<event>
 6    1  0.1568961E-005  0.5885111E+04  0.7818608E-02  0.7704812E-01
          1   -1    0    0  501    0  0.00000000000E+00  0.00000000000E+00  0.27525678295E+04  0.27525678295E+04  0.00000000000E+00 0. -1.
         -1   -1    0    0    0  501 -0.00000000000E+00 -0.00000000000E+00 -0.31456567153E+04  0.31456567153E+04  0.00000000000E+00 0.  1.
         23    2    1    2    0    0  0.27892247609E+03  0.81600060575E+03 -0.30153751082E+04  0.31377825931E+04  0.97661773947E+02 0.  0.
         11    1    3    3    0    0  0.15837949853E+03  0.34735797028E+03 -0.14417752107E+04  0.14914614924E+04  0.00000000000E+00 0.  1.
        -11    1    3    3    0    0  0.12054297756E+03  0.46864263547E+03 -0.15735998975E+04  0.16463211007E+04  0.00000000000E+00 0. -1.
         22    1    1    2    0    0 -0.27892247609E+03 -0.81600060575E+03  0.26222862225E+04  0.27604419517E+04  0.00000000000E+00 0. -1.
<mgrwt>
<rscale>  0 0.58851112E+04</rscale>
<asrwt>0</asrwt>
<pdfrwt beam="1">  1        1 0.42347198E+00 0.58851112E+04</pdfrwt>
<pdfrwt beam="2">  1       -1 0.48394718E+00 0.58851112E+04</pdfrwt>
<totfact> 0.11623492E-03</totfact>
</mgrwt>
</event>
<event>
 6    1  0.1568961E-005  0.2012232E+04  0.7818608E-02  0.8600923E-01
         -2   -1    0    0    0  501 -0.00000000000E+00  0.00000000000E+00  0.43314230391E+03  0.43314230391E+03  0.00000000000E+00 0.  1.
          2   -1    0    0  501    0  0.00000000000E+00 -0.00000000000E+00 -0.23370365116E+04  0.23370365116E+04  0.00000000000E+00 0. -1.
         23    2    1    2    0    0 -0.47160168857E+03  0.63811458089E+03 -0.18009215989E+04  0.19700527447E+04  0.90503262527E+02 0.  0.
         11    1    3    3    0    0 -0.59387320994E+02  0.12491380257E+03 -0.26215088232E+03  0.29640073730E+03  0.00000000000E+00 0.  1.
        -11    1    3    3    0    0 -0.41221436757E+03  0.51320077831E+03 -0.15387707166E+04  0.16736520074E+04  0.00000000000E+00 0. -1.
         22    1    1    2    0    0  0.47160168857E+03 -0.63811458089E+03 -0.10297260878E+03  0.80012607079E+03  0.00000000000E+00 0.  1.
<mgrwt>
<rscale>  0 0.20122320E+04</rscale>
<asrwt>0</asrwt>
<pdfrwt beam="1">  1        2 0.35954407E+00 0.20122320E+04</pdfrwt>
<pdfrwt beam="2">  1       -2 0.66637279E-01 0.20122320E+04</pdfrwt>
<totfact> 0.82955402E+00</totfact>
</mgrwt>
</event>
<event>
 6    1  0.1568961E-005  0.2643293E+04  0.7818608E-02  0.8353642E-01
          1   -1    0    0  501    0  0.00000000000E+00  0.00000000000E+00  0.20671727547E+04  0.20671727547E+04  0.00000000000E+00 0. -1.
         -1   -1    0    0    0  501 -0.00000000000E+00 -0.00000000000E+00 -0.84499459291E+03  0.84499459291E+03  0.00000000000E+00 0.  1.
         23    2    1    2    0    0 -0.10633791001E+04  0.75408102210E+03  0.38438101111E+03  0.13625488901E+04  0.96837068202E+02 0.  0.
         11    1    3    3    0    0 -0.70465060669E+03  0.46481868136E+03  0.28650899551E+03  0.89144617816E+03  0.00000000000E+00 0. -1.
        -11    1    3    3    0    0 -0.35872849337E+03  0.28926234074E+03  0.97872015607E+02  0.47110271191E+03  0.00000000000E+00 0.  1.
         22    1    1    2    0    0  0.10633791001E+04 -0.75408102210E+03  0.83779715071E+03  0.15496184576E+04  0.00000000000E+00 0.  1.
<mgrwt>
<rscale>  0 0.26432932E+04</rscale>
<asrwt>0</asrwt>
<pdfrwt beam="1">  1        1 0.31802658E+00 0.26432932E+04</pdfrwt>
<pdfrwt beam="2">  1       -1 0.12999917E+00 0.26432932E+04</pdfrwt>
<totfact> 0.11936217E+00</totfact>
</mgrwt>
</event>
<event>
 6    1  0.2110963E-005  0.3092986E+04  0.7818608E-02  0.8217665E-01
          2   -1    0    0  501    0  0.00000000000E+00  0.00000000000E+00  0.14971251698E+04  0.14971251698E+04  0.00000000000E+00 0. -1.
         -2   -1    0    0    0  501 -0.00000000000E+00 -0.00000000000E+00 -0.15974889306E+04  0.15974889306E+04  0.00000000000E+00 0.  1.
         23    2    1    2    0    0  0.66814748290E+03 -0.39850066447E+03 -0.13858055465E+04  0.15920880863E+04  0.95203064691E+02 0.  0.
         11    1    3    3    0    0  0.49575309803E+03 -0.26487193254E+03 -0.92740703095E+03  0.10844409048E+04  0.00000000000E+00 0. -1.
        -11    1    3    3    0    0  0.17239438488E+03 -0.13362873194E+03 -0.45839851551E+03  0.50764718157E+03  0.00000000000E+00 0.  1.
         22    1    1    2    0    0 -0.66814748290E+03  0.39850066447E+03  0.12854417857E+04  0.15025260141E+04  0.00000000000E+00 0. -1.
<mgrwt>
<rscale>  0 0.30929862E+04</rscale>
<asrwt>0</asrwt>
<pdfrwt beam="1">  1        2 0.23032695E+00 0.30929862E+04</pdfrwt>
<pdfrwt beam="2">  1       -2 0.24576753E+00 0.30929862E+04</pdfrwt>
<totfact> 0.73863691E-01</totfact>
</mgrwt>
</event>
<event>
 6    1  0.1568961E-005  0.1262345E+04  0.7818608E-02  0.9059971E-01
         -1   -1    0    0    0  501 -0.00000000000E+00  0.00000000000E+00  0.98961982306E+02  0.98961982306E+02  0.00000000000E+00 0.  1.
          1   -1    0    0  501    0  0.00000000000E+00 -0.00000000000E+00 -0.40255741343E+04  0.40255741343E+04  0.00000000000E+00 0. -1.
         23    2    1    2    0    0  0.18977703897E+03 -0.47218161308E+02 -0.39228848551E+04  0.39289376196E+04  0.96334590038E+02 0.  0.
         13    1    3    3    0    0  0.93783985652E+02  0.22952298458E+02 -0.14649241449E+04  0.14681025149E+04  0.00000000000E+00 0.  1.
        -13    1    3    3    0    0  0.95993053322E+02 -0.70170459766E+02 -0.24579607102E+04  0.24608351047E+04  0.00000000000E+00 0. -1.
         22    1    1    2    0    0 -0.18977703897E+03  0.47218161308E+02 -0.37272968914E+01  0.19559849698E+03  0.00000000000E+00 0.  1.
<mgrwt>
<rscale>  0 0.12623451E+04</rscale>
<asrwt>0</asrwt>
<pdfrwt beam="1">  1        1 0.61931919E+00 0.12623451E+04</pdfrwt>
<pdfrwt beam="2">  1       -1 0.15224918E-01 0.12623451E+04</pdfrwt>
<totfact> 0.29731320E+00</totfact>
</mgrwt>
</event>
<event>
 6    1  0.1568961E-005  0.3410690E+04  0.7818608E-02  0.8135288E-01
          2   -1    0    0  501    0  0.00000000000E+00  0.00000000000E+00  0.32917937851E+04  0.32917937851E+04  0.00000000000E+00 0. -1.
         -2   -1    0    0    0  501 -0.00000000000E+00 -0.00000000000E+00 -0.88347014519E+03  0.88347014519E+03  0.00000000000E+00 0.  1.
         23    2    1    2    0    0  0.44215075275E+03  0.40817433860E+03  0.31565760391E+04  0.32150633096E+04  0.10274344402E+03 0.  0.
         13    1    3    3    0    0  0.18665971942E+03  0.23680304833E+03  0.16669935707E+04  0.16940440075E+04  0.00000000000E+00 0. -1.
        -13    1    3    3    0    0  0.25549103334E+03  0.17137129027E+03  0.14895824684E+04  0.15210193021E+04  0.00000000000E+00 0.  1.
         22    1    1    2    0    0 -0.44215075275E+03 -0.40817433860E+03 -0.74825239925E+03  0.96020062062E+03  0.00000000000E+00 0.  1.
<mgrwt>
<rscale>  0 0.34106900E+04</rscale>
<asrwt>0</asrwt>
<pdfrwt beam="1">  1        2 0.50642981E+00 0.34106900E+04</pdfrwt>
<pdfrwt beam="2">  1       -2 0.13591849E+00 0.34106900E+04</pdfrwt>
<totfact> 0.36157403E-01</totfact>
</mgrwt>
</event>
<event>
 6    1  0.1568961E-005  0.3292575E+04  0.7818608E-02  0.8164787E-01
          1   -1    0    0  501    0  0.00000000000E+00  0.00000000000E+00  0.11927786177E+04  0.11927786177E+04  0.00000000000E+00 0. -1.
         -1   -1    0    0    0  501 -0.00000000000E+00 -0.00000000000E+00 -0.22722255631E+04  0.22722255631E+04  0.00000000000E+00 0.  1.
         23    2    1    2    0    0  0.59581338670E+03  0.15332279304E+04 -0.55758650736E+03  0.17392812033E+04  0.91732832533E+02 0.  0.
         13    1    3    3    0    0  0.23152696588E+03  0.69476769987E+03 -0.21831052556E+03  0.76417692865E+03  0.00000000000E+00 0. -1.
        -13    1    3    3    0    0  0.36428642082E+03  0.83846023053E+03 -0.33927598179E+03  0.97510427463E+03  0.00000000000E+00 0.  1.
         22    1    1    2    0    0 -0.59581338670E+03 -0.15332279304E+04 -0.52186043807E+03  0.17257229775E+04  0.00000000000E+00 0. -1.
<mgrwt>
<rscale>  0 0.32925747E+04</rscale>
<asrwt>0</asrwt>
<pdfrwt beam="1">  1        1 0.18350440E+00 0.32925747E+04</pdfrwt>
<pdfrwt beam="2">  1       -1 0.34957316E+00 0.32925747E+04</pdfrwt>
<totfact> 0.14037014E-01</totfact>
</mgrwt>
</event>
<event>
 6    1  0.1568961E-005  0.2605953E+04  0.7818608E-02  0.8366182E-01
          1   -1    0    0  501    0  0.00000000000E+00  0.00000000000E+00  0.18936040441E+04  0.18936040441E+04  0.00000000000E+00 0. -1.
         -1   -1    0    0    0  501 -0.00000000000E+00 -0.00000000000E+00 -0.89656964216E+03  0.89656964216E+03  0.00000000000E+00 0.  1.
         23    2    1    2    0    0 -0.59640920457E+03  0.72383496804E+03 -0.46671925100E+03  0.10517215711E+04  0.93007545916E+02 0.  0.
         11    1    3    3    0    0 -0.52831650443E+03  0.58760236362E+03 -0.39025950254E+03  0.88130434352E+03  0.00000000000E+00 0. -1.
        -11    1    3    3    0    0 -0.68092700140E+02  0.13623260442E+03 -0.76459748456E+02  0.17041722757E+03  0.00000000000E+00 0.  1.
         22    1    1    2    0    0  0.59640920457E+03 -0.72383496804E+03  0.14637536529E+04  0.17384521151E+04  0.00000000000E+00 0. -1.
<mgrwt>
<rscale>  0 0.26059531E+04</rscale>
<asrwt>0</asrwt>
<pdfrwt beam="1">  1        1 0.29132370E+00 0.26059531E+04</pdfrwt>
<pdfrwt beam="2">  1       -1 0.13793379E+00 0.26059531E+04</pdfrwt>
<totfact> 0.13497588E+00</totfact>
</mgrwt>
</event>
<event>
 6    1  0.1568961E-005  0.2216197E+04  0.7818608E-02  0.8511717E-01
          1   -1    0    0  501    0  0.00000000000E+00  0.00000000000E+00  0.11104952363E+04  0.11104952363E+04  0.00000000000E+00 0. -1.
         -1   -1    0    0    0  501 -0.00000000000E+00 -0.00000000000E+00 -0.11057068403E+04  0.11057068403E+04  0.00000000000E+00 0.  1.
         23    2    1    2    0    0  0.25611787329E+03  0.60218201904E+03 -0.88930386200E+03  0.11082217000E+04  0.95259794102E+02 0.  0.
         13    1    3    3    0    0  0.25321023745E+02  0.12248203536E+03 -0.21960971644E+03  0.25272797785E+03  0.00000000000E+00 0. -1.
        -13    1    3    3    0    0  0.23079684955E+03  0.47969998368E+03 -0.66969414556E+03  0.85549372218E+03  0.00000000000E+00 0.  1.
         22    1    1    2    0    0 -0.25611787329E+03 -0.60218201904E+03  0.89409225797E+03  0.11079803766E+04  0.00000000000E+00 0. -1.
<mgrwt>
<rscale>  0 0.22161969E+04</rscale>
<asrwt>0</asrwt>
<pdfrwt beam="1">  1        1 0.17084542E+00 0.22161969E+04</pdfrwt>
<pdfrwt beam="2">  1       -1 0.17010874E+00 0.22161969E+04</pdfrwt>
<totfact> 0.27841657E+00</totfact>
</mgrwt>
</event>
<event>
 6    1  0.1568961E-005  0.4091156E+04  0.7818608E-02  0.7986406E-01
          2   -1    0    0  501    0  0.00000000000E+00  0.00000000000E+00  0.18595811136E+04  0.18595811136E+04  0.00000000000E+00 0. -1.
         -2   -1    0    0    0  501 -0.00000000000E+00 -0.00000000000E+00 -0.22501782201E+04  0.22501782201E+04  0.00000000000E+00 0.  1.
         23    2    1    2    0    0  0.18734985773E+04  0.43872560861E+03 -0.88965921116E+03  0.21219112351E+04  0.92394256787E+02 0.  0.
         11    1    3    3    0    0  0.10713600408E+04  0.21740637018E+03 -0.46969193383E+03  0.11898270377E+04  0.00000000000E+00 0.  1.
        -11    1    3    3    0    0  0.80213853649E+03  0.22131923843E+03 -0.41996727733E+03  0.93208419740E+03  0.00000000000E+00 0. -1.
         22    1    1    2    0    0 -0.18734985773E+04 -0.43872560861E+03  0.49906210468E+03  0.19878480986E+04  0.00000000000E+00 0. -1.
<mgrwt>
<rscale>  0 0.40911558E+04</rscale>
<asrwt>0</asrwt>
<pdfrwt beam="1">  1        2 0.28608940E+00 0.40911558E+04</pdfrwt>
<pdfrwt beam="2">  1       -2 0.34618126E+00 0.40911558E+04</pdfrwt>
<totfact> 0.10295085E-01</totfact>
</mgrwt>
</event>
<event>
 6    1  0.1568961E-005  0.1025507E+04  0.7818608E-02  0.9281003E-01
          2   -1    0    0  501    0  0.00000000000E+00  0.00000000000E+00  0.62557503598E+03  0.62557503598E+03  0.00000000000E+00 0.  1.
         -2   -1    0    0    0  501 -0.00000000000E+00 -0.00000000000E+00 -0.42027950461E+03  0.42027950461E+03  0.00000000000E+00 0. -1.
         23    2    1    2    0    0 -0.19655481349E+03  0.23232257953E+03 -0.31341020602E+03  0.44447012304E+03  0.81976566021E+02 0.  0.
         11    1    3    3    0    0 -0.42569997835E+02  0.12680153059E+02 -0.65974236865E+02  0.79533583644E+02  0.00000000000E+00 0. -1.
        -11    1    3    3    0    0 -0.15398481565E+03  0.21964242647E+03 -0.24743596916E+03  0.36493653940E+03  0.00000000000E+00 0.  1.
         22    1    1    2    0    0  0.19655481349E+03 -0.23232257953E+03  0.51870573740E+03  0.60138441755E+03  0.00000000000E+00 0.  1.
<mgrwt>
<rscale>  0 0.10255074E+04</rscale>
<asrwt>0</asrwt>
<pdfrwt beam="1">  1        2 0.96242313E-01 0.10255074E+04</pdfrwt>
<pdfrwt beam="2">  1       -2 0.64658385E-01 0.10255074E+04</pdfrwt>
<totfact> 0.10383962E+02</totfact>
</mgrwt>
</event>
<event>
 6    1  0.1568961E-005  0.1273624E+04  0.7818608E-02  0.9050747E-01
         -1   -1    0    0    0  501 -0.00000000000E+00  0.00000000000E+00  0.36204282474E+03  0.36204282474E+03  0.00000000000E+00 0.  1.
          1   -1    0    0  501    0  0.00000000000E+00 -0.00000000000E+00 -0.11201154936E+04  0.11201154936E+04  0.00000000000E+00 0. -1.
         23    2    1    2    0    0  0.18557020603E+03  0.13998815081E+03 -0.10668045164E+04  0.10957021922E+04  0.91969745841E+02 0.  0.
         13    1    3    3    0    0  0.49016257730E+02  0.49619287598E+02 -0.16474959592E+03  0.17890527264E+03  0.00000000000E+00 0. -1.
        -13    1    3    3    0    0  0.13655394830E+03  0.90368863216E+02 -0.90205492044E+03  0.91679691956E+03  0.00000000000E+00 0.  1.
         22    1    1    2    0    0 -0.18557020603E+03 -0.13998815081E+03  0.30873184752E+03  0.38645612611E+03  0.00000000000E+00 0.  1.
<mgrwt>
<rscale>  0 0.12736244E+04</rscale>
<asrwt>0</asrwt>
<pdfrwt beam="1">  1        1 0.17232546E+00 0.12736244E+04</pdfrwt>
<pdfrwt beam="2">  1       -1 0.55698896E-01 0.12736244E+04</pdfrwt>
<totfact> 0.39292589E+01</totfact>
</mgrwt>
</event>
<event>
 6    1  0.1568961E-005  0.1550698E+04  0.7818608E-02  0.8851422E-01
          2   -1    0    0  501    0  0.00000000000E+00  0.00000000000E+00  0.21941386426E+04  0.21941386426E+04  0.00000000000E+00 0. -1.
         -2   -1    0    0    0  501 -0.00000000000E+00 -0.00000000000E+00 -0.27398710080E+03  0.27398710080E+03  0.00000000000E+00 0.  1.
         23    2    1    2    0    0 -0.18931996321E+02  0.76716882889E+03  0.81906953553E+03  0.11260050271E+04  0.90033241569E+02 0.  0.
         13    1    3    3    0    0  0.20987754856E+02  0.61108589487E+03  0.65600168916E+03  0.89677459428E+03  0.00000000000E+00 0. -1.
        -13    1    3    3    0    0 -0.39919751176E+02  0.15608293402E+03  0.16306784637E+03  0.22923043286E+03  0.00000000000E+00 0.  1.
         22    1    1    2    0    0  0.18931996321E+02 -0.76716882889E+03  0.11010820063E+04  0.13421207163E+04  0.00000000000E+00 0. -1.
<mgrwt>
<rscale>  0 0.15506975E+04</rscale>
<asrwt>0</asrwt>
<pdfrwt beam="1">  1        2 0.33755978E+00 0.15506975E+04</pdfrwt>
<pdfrwt beam="2">  1       -2 0.42151863E-01 0.15506975E+04</pdfrwt>
<totfact> 0.26738732E+01</totfact>
</mgrwt>
</event>
<event>
 6    1  0.1568961E-005  0.3343215E+04  0.7818608E-02  0.8151985E-01
         -1   -1    0    0    0  501 -0.00000000000E+00  0.00000000000E+00  0.12330017478E+04  0.12330017478E+04  0.00000000000E+00 0.  1.
          1   -1    0    0  501    0  0.00000000000E+00 -0.00000000000E+00 -0.22662353823E+04  0.22662353823E+04  0.00000000000E+00 0. -1.
         23    2    1    2    0    0  0.14183818673E+04 -0.13395989100E+03  0.39570287894E+03  0.14814135667E+04  0.90846096370E+02 0.  0.
         11    1    3    3    0    0  0.50436592826E+03 -0.81507359886E+02  0.17042755214E+03  0.53858517417E+03  0.00000000000E+00 0. -1.
        -11    1    3    3    0    0  0.91401593906E+03 -0.52452531118E+02  0.22527532680E+03  0.94282839252E+03  0.00000000000E+00 0.  1.
         22    1    1    2    0    0 -0.14183818673E+04  0.13395989100E+03 -0.14289365134E+04  0.20178235635E+04  0.00000000000E+00 0. -1.
<mgrwt>
<rscale>  0 0.33432153E+04</rscale>
<asrwt>0</asrwt>
<pdfrwt beam="1">  1        1 0.34865159E+00 0.33432153E+04</pdfrwt>
<pdfrwt beam="2">  1       -1 0.18969258E+00 0.33432153E+04</pdfrwt>
<totfact> 0.28812842E-01</totfact>
</mgrwt>
</event>
<event>
 6    1  0.1568961E-005  0.1134003E+04  0.7818608E-02  0.9172670E-01
          2   -1    0    0  501    0  0.00000000000E+00  0.00000000000E+00  0.97172210850E+03  0.97172210850E+03  0.00000000000E+00 0. -1.
         -2   -1    0    0    0  501 -0.00000000000E+00 -0.00000000000E+00 -0.33084624067E+03  0.33084624067E+03  0.00000000000E+00 0.  1.
         23    2    1    2    0    0  0.43268573716E+03 -0.32131685131E+03  0.13446106542E+03  0.56302969691E+03  0.91984756399E+02 0.  0.
         13    1    3    3    0    0  0.21430247451E+03 -0.10453269249E+03  0.45769628919E+02  0.24279104867E+03  0.00000000000E+00 0. -1.
        -13    1    3    3    0    0  0.21838326265E+03 -0.21678415882E+03  0.88691436502E+02  0.32023864825E+03  0.00000000000E+00 0.  1.
         22    1    1    2    0    0 -0.43268573716E+03  0.32131685131E+03  0.50641480241E+03  0.73953865226E+03  0.00000000000E+00 0. -1.
<mgrwt>
<rscale>  0 0.11340028E+04</rscale>
<asrwt>0</asrwt>
<pdfrwt beam="1">  1        2 0.14949571E+00 0.11340028E+04</pdfrwt>
<pdfrwt beam="2">  1       -2 0.50899422E-01 0.11340028E+04</pdfrwt>
<totfact> 0.94973390E+01</totfact>
</mgrwt>
</event>
<event>
 6    1  0.1568961E-005  0.1501154E+04  0.7818608E-02  0.8883686E-01
          4   -1    0    0  501    0  0.00000000000E+00  0.00000000000E+00  0.84350259443E+03  0.84350259443E+03  0.00000000000E+00 0. -1.
         -4   -1    0    0    0  501 -0.00000000000E+00 -0.00000000000E+00 -0.66788850468E+03  0.66788850468E+03  0.00000000000E+00 0.  1.
         23    2    1    2    0    0 -0.14935443515E+03 -0.93835278285E+02  0.81984131168E+03  0.84345358690E+03  0.90345836381E+02 0.  0.
         11    1    3    3    0    0 -0.19683060219E+02 -0.97357720532E+01  0.30811604913E+03  0.30889756854E+03  0.00000000000E+00 0.  1.
        -11    1    3    3    0    0 -0.12967137493E+03 -0.84099506232E+02  0.51172526255E+03  0.53455601836E+03  0.00000000000E+00 0. -1.
         22    1    1    2    0    0  0.14935443515E+03  0.93835278285E+02 -0.64422722193E+03  0.66793751222E+03  0.00000000000E+00 0.  1.
<mgrwt>
<rscale>  0 0.15011538E+04</rscale>
<asrwt>0</asrwt>
<pdfrwt beam="1">  1        4 0.12976963E+00 0.15011538E+04</pdfrwt>
<pdfrwt beam="2">  1       -4 0.10275208E+00 0.15011538E+04</pdfrwt>
<totfact> 0.64934262E-01</totfact>
</mgrwt>
</event>
<event>
 6    1  0.1568961E-005  0.1318304E+04  0.7818608E-02  0.9015175E-01
         -2   -1    0    0    0  501 -0.00000000000E+00  0.00000000000E+00  0.13633668776E+03  0.13633668776E+03  0.00000000000E+00 0.  1.
          2   -1    0    0  501    0  0.00000000000E+00 -0.00000000000E+00 -0.31868251266E+04  0.31868251266E+04  0.00000000000E+00 0. -1.
         23    2    1    2    0    0 -0.60865993668E+03 -0.62074423140E+02 -0.93765208450E+03  0.11235260234E+04  0.93803737739E+02 0.  0.
         11    1    3    3    0    0 -0.42858054333E+03 -0.50977914265E+01 -0.61421180199E+03  0.74897490432E+03  0.00000000000E+00 0. -1.
        -11    1    3    3    0    0 -0.18007939335E+03 -0.56976631714E+02 -0.32344028251E+03  0.37455111910E+03  0.00000000000E+00 0.  1.
         22    1    1    2    0    0  0.60865993668E+03  0.62074423140E+02 -0.21128363543E+04  0.21996357909E+04  0.00000000000E+00 0. -1.
<mgrwt>
<rscale>  0 0.13183037E+04</rscale>
<asrwt>0</asrwt>
<pdfrwt beam="1">  1        2 0.49028080E+00 0.13183037E+04</pdfrwt>
<pdfrwt beam="2">  1       -2 0.20974875E-01 0.13183037E+04</pdfrwt>
<totfact> 0.25807544E+01</totfact>
</mgrwt>
</event>
<event>
 6    1  0.1568961E-005  0.2872993E+04  0.7818608E-02  0.8280958E-01
          2   -1    0    0  501    0  0.00000000000E+00  0.00000000000E+00  0.18263158885E+04  0.18263158885E+04  0.00000000000E+00 0. -1.
         -2   -1    0    0    0  501 -0.00000000000E+00 -0.00000000000E+00 -0.11298824218E+04  0.11298824218E+04  0.00000000000E+00 0.  1.
         23    2    1    2    0    0  0.28390657251E+03  0.18201720667E+03 -0.10869325315E+04  0.11412251730E+04  0.85084440199E+02 0.  0.
         11    1    3    3    0    0  0.44966736356E+02 -0.31730560680E+01 -0.12297688488E+03  0.13097858557E+03  0.00000000000E+00 0.  1.
        -11    1    3    3    0    0  0.23893983615E+03  0.18519026274E+03 -0.96395564666E+03  0.10102465874E+04  0.00000000000E+00 0. -1.
         22    1    1    2    0    0 -0.28390657251E+03 -0.18201720667E+03  0.17833659983E+04  0.18149731373E+04  0.00000000000E+00 0. -1.
<mgrwt>
<rscale>  0 0.28729930E+04</rscale>
<asrwt>0</asrwt>
<pdfrwt beam="1">  1        2 0.28097168E+00 0.28729930E+04</pdfrwt>
<pdfrwt beam="2">  1       -2 0.17382806E+00 0.28729930E+04</pdfrwt>
<totfact> 0.14453326E+00</totfact>
</mgrwt>
</event>
<event>
 6    1  0.1568961E-005  0.2123735E+04  0.7818608E-02  0.8550859E-01
         -1   -1    0    0    0  501 -0.00000000000E+00  0.00000000000E+00  0.14369537838E+04  0.14369537838E+04  0.00000000000E+00 0.  1.
          1   -1    0    0  501    0  0.00000000000E+00 -0.00000000000E+00 -0.78468983450E+03  0.78468983450E+03  0.00000000000E+00 0. -1.
         23    2    1    2    0    0 -0.25071237818E+03 -0.34825379010E+03 -0.68712758397E+03  0.81519167164E+03  0.90861135634E+02 0.  0.
         13    1    3    3    0    0 -0.10416911298E+03 -0.21494063640E+03 -0.34003703728E+03  0.41554285940E+03  0.00000000000E+00 0. -1.
        -13    1    3    3    0    0 -0.14654326520E+03 -0.13331315370E+03 -0.34709054669E+03  0.39964881224E+03  0.00000000000E+00 0.  1.
         22    1    1    2    0    0  0.25071237818E+03  0.34825379010E+03  0.13393915332E+04  0.14064519466E+04  0.00000000000E+00 0.  1.
<mgrwt>
<rscale>  0 0.21237354E+04</rscale>
<asrwt>0</asrwt>
<pdfrwt beam="1">  1        1 0.12072151E+00 0.21237354E+04</pdfrwt>
<pdfrwt beam="2">  1       -1 0.22106981E+00 0.21237354E+04</pdfrwt>
<totfact> 0.22653852E+00</totfact>
</mgrwt>
</event>
<event>
 6    1  0.1568961E-005  0.9072476E+03  0.7818608E-02  0.9416567E-01
         -2   -1    0    0    0  501 -0.00000000000E+00  0.00000000000E+00  0.62823464778E+03  0.62823464778E+03  0.00000000000E+00 0.  1.
          2   -1    0    0  501    0  0.00000000000E+00 -0.00000000000E+00 -0.32754412559E+03  0.32754412559E+03  0.00000000000E+00 0. -1.
         23    2    1    2    0    0 -0.19668582668E+03  0.81685639117E+02  0.56976664665E+03  0.61261726794E+03  0.72856209696E+02 0.  0.
         11    1    3    3    0    0 -0.24718440992E+02  0.32098808458E+02  0.60454003511E+02  0.72773768420E+02  0.00000000000E+00 0. -1.
        -11    1    3    3    0    0 -0.17196738569E+03  0.49586830658E+02  0.50931264314E+03  0.53984349952E+03  0.00000000000E+00 0.  1.
         22    1    1    2    0    0  0.19668582668E+03 -0.81685639117E+02 -0.26907612446E+03  0.34316150543E+03  0.00000000000E+00 0. -1.
<mgrwt>
<rscale>  0 0.90724764E+03</rscale>
<asrwt>0</asrwt>
<pdfrwt beam="1">  1        2 0.50391404E-01 0.90724764E+03</pdfrwt>
<pdfrwt beam="2">  1       -2 0.96651484E-01 0.90724764E+03</pdfrwt>
<totfact> 0.89373859E+01</totfact>
</mgrwt>
</event>
<event>
 6    1  0.1568961E-005  0.2726390E+04  0.7818608E-02  0.8326493E-01
          1   -1    0    0  501    0  0.00000000000E+00  0.00000000000E+00  0.29319056252E+04  0.29319056252E+04  0.00000000000E+00 0. -1.
         -1   -1    0    0    0  501 -0.00000000000E+00 -0.00000000000E+00 -0.63381996457E+03  0.63381996457E+03  0.00000000000E+00 0.  1.
         23    2    1    2    0    0  0.72965506605E+03  0.80031767227E+03  0.70828923855E+02  0.10891195526E+04  0.90883284366E+02 0.  0.
         13    1    3    3    0    0  0.66188196653E+02  0.63761211937E+02  0.31050148496E+02  0.97007634985E+02  0.00000000000E+00 0. -1.
        -13    1    3    3    0    0  0.66346686940E+03  0.73655646033E+03  0.39778775359E+02  0.99211191758E+03  0.00000000000E+00 0.  1.
         22    1    1    2    0    0 -0.72965506605E+03 -0.80031767227E+03  0.22272567368E+04  0.24766060372E+04  0.00000000000E+00 0. -1.
<mgrwt>
<rscale>  0 0.27263898E+04</rscale>
<asrwt>0</asrwt>
<pdfrwt beam="1">  1        1 0.45106240E+00 0.27263898E+04</pdfrwt>
<pdfrwt beam="2">  1       -1 0.97510765E-01 0.27263898E+04</pdfrwt>
<totfact> 0.58888046E-01</totfact>
</mgrwt>
</event>
<event>
 6    1  0.1568961E-005  0.1953855E+04  0.7818608E-02  0.8628504E-01
         -2   -1    0    0    0  501 -0.00000000000E+00  0.00000000000E+00  0.47761166577E+03  0.47761166577E+03  0.00000000000E+00 0.  1.
          2   -1    0    0  501    0  0.00000000000E+00 -0.00000000000E+00 -0.19982495239E+04  0.19982495239E+04  0.00000000000E+00 0. -1.
         23    2    1    2    0    0  0.46025145131E+03 -0.84320001986E+03 -0.55166582118E+03  0.11114109413E+04  0.89896775333E+02 0.  0.
         11    1    3    3    0    0  0.21767486006E+03 -0.37260195294E+03 -0.19851250732E+03  0.47499660588E+03  0.00000000000E+00 0.  1.
        -11    1    3    3    0    0  0.24257659125E+03 -0.47059806692E+03 -0.35315331386E+03  0.63641433540E+03  0.00000000000E+00 0. -1.
         22    1    1    2    0    0 -0.46025145131E+03  0.84320001986E+03 -0.96897203691E+03  0.13644502484E+04  0.00000000000E+00 0.  1.
<mgrwt>
<rscale>  0 0.19538549E+04</rscale>
<asrwt>0</asrwt>
<pdfrwt beam="1">  1        2 0.30742300E+00 0.19538549E+04</pdfrwt>
<pdfrwt beam="2">  1       -2 0.73478720E-01 0.19538549E+04</pdfrwt>
<totfact> 0.10433241E+01</totfact>
</mgrwt>
</event>
<event>
 6    1  0.1568961E-005  0.3413947E+04  0.7818608E-02  0.8134492E-01
          1   -1    0    0  501    0  0.00000000000E+00  0.00000000000E+00  0.48839757627E+04  0.48839757627E+04  0.00000000000E+00 0. -1.
         -1   -1    0    0    0  501 -0.00000000000E+00 -0.00000000000E+00 -0.59659554857E+03  0.59659554857E+03  0.00000000000E+00 0.  1.
         23    2    1    2    0    0  0.12237805671E+04 -0.32297090989E+03  0.39809892267E+04  0.41783330373E+04  0.90789110533E+02 0.  0.
         11    1    3    3    0    0  0.31224633218E+03 -0.44025371359E+02  0.94839385390E+03  0.99944329874E+03  0.00000000000E+00 0. -1.
        -11    1    3    3    0    0  0.91153423488E+03 -0.27894553853E+03  0.30325953728E+04  0.31788897386E+04  0.00000000000E+00 0.  1.
         22    1    1    2    0    0 -0.12237805671E+04  0.32297090989E+03  0.30639098741E+03  0.13022382739E+04  0.00000000000E+00 0.  1.
<mgrwt>
<rscale>  0 0.34139468E+04</rscale>
<asrwt>0</asrwt>
<pdfrwt beam="1">  1        1 0.75138086E+00 0.34139468E+04</pdfrwt>
<pdfrwt beam="2">  1       -1 0.91783934E-01 0.34139468E+04</pdfrwt>
<totfact> 0.11402586E-02</totfact>
</mgrwt>
</event>
<event>
 6    1  0.1568961E-005  0.7302183E+03  0.7818608E-02  0.9666906E-01
          1   -1    0    0  501    0  0.00000000000E+00  0.00000000000E+00  0.27468132920E+04  0.27468132920E+04  0.00000000000E+00 0. -1.
         -1   -1    0    0    0  501 -0.00000000000E+00 -0.00000000000E+00 -0.48530667324E+02  0.48530667324E+02  0.00000000000E+00 0.  1.
         23    2    1    2    0    0  0.25729610930E+03  0.24557878773E+03  0.11704015051E+04  0.12266084990E+04  0.90655931386E+02 0.  0.
         11    1    3    3    0    0  0.17309406764E+03  0.10373947893E+03  0.66873493313E+03  0.69851975386E+03  0.00000000000E+00 0.  1.
        -11    1    3    3    0    0  0.84202041664E+02  0.14183930880E+03  0.50166657198E+03  0.52808874518E+03  0.00000000000E+00 0. -1.
         22    1    1    2    0    0 -0.25729610930E+03 -0.24557878773E+03  0.15278811196E+04  0.15687354603E+04  0.00000000000E+00 0. -1.
<mgrwt>
<rscale>  0 0.73021827E+03</rscale>
<asrwt>0</asrwt>
<pdfrwt beam="1">  1        1 0.42258654E+00 0.73021827E+03</pdfrwt>
<pdfrwt beam="2">  1       -1 0.74662587E-02 0.73021827E+03</pdfrwt>
<totfact> 0.95550519E+01</totfact>
</mgrwt>
</event>
<event>
 6    1  0.1568961E-005  0.1356100E+04  0.7818608E-02  0.8986223E-01
          2   -1    0    0  501    0  0.00000000000E+00  0.00000000000E+00  0.32049600427E+04  0.32049600427E+04  0.00000000000E+00 0. -1.
         -2   -1    0    0    0  501 -0.00000000000E+00 -0.00000000000E+00 -0.14345005852E+03  0.14345005852E+03  0.00000000000E+00 0.  1.
         23    2    1    2    0    0  0.19702823603E+03 -0.78625300841E+02  0.31198418743E+04  0.31283994807E+04  0.92021337042E+02 0.  0.
         13    1    3    3    0    0  0.86614887700E+02  0.11691743498E+01  0.82974152677E+03  0.83425086574E+03  0.00000000000E+00 0.  1.
        -13    1    3    3    0    0  0.11041334833E+03 -0.79794475191E+02  0.22901003476E+04  0.22941486150E+04  0.00000000000E+00 0. -1.
         22    1    1    2    0    0 -0.19702823603E+03  0.78625300841E+02 -0.58331890137E+02  0.22001062050E+03  0.00000000000E+00 0.  1.
<mgrwt>
<rscale>  0 0.13560999E+04</rscale>
<asrwt>0</asrwt>
<pdfrwt beam="1">  1        2 0.49307072E+00 0.13560999E+04</pdfrwt>
<pdfrwt beam="2">  1       -2 0.22069242E-01 0.13560999E+04</pdfrwt>
<totfact> 0.22865422E+01</totfact>
</mgrwt>
</event>
<event>
 6    1  0.1568961E-005  0.1427869E+04  0.7818608E-02  0.8933889E-01
          1   -1    0    0  501    0  0.00000000000E+00  0.00000000000E+00  0.33415163910E+03  0.33415163910E+03  0.00000000000E+00 0. -1.
         -1   -1    0    0    0  501 -0.00000000000E+00 -0.00000000000E+00 -0.15253618921E+04  0.15253618921E+04  0.00000000000E+00 0.  1.
         23    2    1    2    0    0 -0.84725907818E+01  0.71095281239E+03 -0.59532041416E+03  0.93182264178E+03  0.91440439589E+02 0.  0.
         11    1    3    3    0    0 -0.31901040322E+02  0.64021769442E+03 -0.51504534968E+03  0.82229440278E+03  0.00000000000E+00 0.  1.
        -11    1    3    3    0    0  0.23428449540E+02  0.70735117971E+02 -0.80275064479E+02  0.10952823900E+03  0.00000000000E+00 0. -1.
         22    1    1    2    0    0  0.84725907818E+01 -0.71095281239E+03 -0.59588983881E+03  0.92769088937E+03  0.00000000000E+00 0.  1.
<mgrwt>
<rscale>  0 0.14278686E+04</rscale>
<asrwt>0</asrwt>
<pdfrwt beam="1">  1        1 0.51407946E-01 0.14278686E+04</pdfrwt>
<pdfrwt beam="2">  1       -1 0.23467106E+00 0.14278686E+04</pdfrwt>
<totfact> 0.65132831E+00</totfact>
</mgrwt>
</event>
<event>
 6    1  0.1568961E-005  0.2720699E+04  0.7818608E-02  0.8328320E-01
         -1   -1    0    0    0  501 -0.00000000000E+00  0.00000000000E+00  0.69987770727E+03  0.69987770727E+03  0.00000000000E+00 0.  1.
          1   -1    0    0  501    0  0.00000000000E+00 -0.00000000000E+00 -0.26441054066E+04  0.26441054066E+04  0.00000000000E+00 0. -1.
         23    2    1    2    0    0  0.41906858150E+03  0.12578161449E+04 -0.60761573067E+03  0.14613648612E+04  0.93115257415E+02 0.  0.
         13    1    3    3    0    0  0.23609354880E+03  0.77226637457E+03 -0.41447069083E+03  0.90770120118E+03  0.00000000000E+00 0. -1.
        -13    1    3    3    0    0  0.18297503271E+03  0.48554977033E+03 -0.19314503984E+03  0.55366366006E+03  0.00000000000E+00 0.  1.
         22    1    1    2    0    0 -0.41906858150E+03 -0.12578161449E+04 -0.13366119687E+04  0.18826182527E+04  0.00000000000E+00 0.  1.
<mgrwt>
<rscale>  0 0.27206988E+04</rscale>
<asrwt>0</asrwt>
<pdfrwt beam="1">  1        1 0.40678544E+00 0.27206988E+04</pdfrwt>
<pdfrwt beam="2">  1       -1 0.10767349E+00 0.27206988E+04</pdfrwt>
<totfact> 0.75138027E-01</totfact>
</mgrwt>
</event>
<event>
 6    1  0.1568961E-005  0.1393571E+04  0.7818608E-02  0.8958485E-01
          2   -1    0    0  501    0  0.00000000000E+00  0.00000000000E+00  0.12678999757E+04  0.12678999757E+04  0.00000000000E+00 0. -1.
         -2   -1    0    0    0  501 -0.00000000000E+00 -0.00000000000E+00 -0.38292471590E+03  0.38292471590E+03  0.00000000000E+00 0.  1.
         23    2    1    2    0    0 -0.75900954164E+02 -0.67470415832E+03  0.60570000764E+03  0.91667121815E+03  0.11147630609E+03 0.  0.
         13    1    3    3    0    0 -0.71040792939E+02 -0.40738296427E+03  0.43093630078E+03  0.59725519601E+03  0.00000000000E+00 0. -1.
        -13    1    3    3    0    0 -0.48601612247E+01 -0.26732119406E+03  0.17476370686E+03  0.31941602213E+03  0.00000000000E+00 0.  1.
         22    1    1    2    0    0  0.75900954164E+02  0.67470415832E+03  0.27927525214E+03  0.73415347344E+03  0.00000000000E+00 0.  1.
<mgrwt>
<rscale>  0 0.13935713E+04</rscale>
<asrwt>0</asrwt>
<pdfrwt beam="1">  1        2 0.19506153E+00 0.13935713E+04</pdfrwt>
<pdfrwt beam="2">  1       -2 0.58911496E-01 0.13935713E+04</pdfrwt>
<totfact> 0.45251815E+01</totfact>
</mgrwt>
</event>
<event>
 6    1  0.1568961E-005  0.2678727E+04  0.7818608E-02  0.8341941E-01
          1   -1    0    0  501    0  0.00000000000E+00  0.00000000000E+00  0.75732025646E+03  0.75732025646E+03  0.00000000000E+00 0. -1.
         -1   -1    0    0    0  501 -0.00000000000E+00 -0.00000000000E+00 -0.23687390409E+04  0.23687390409E+04  0.00000000000E+00 0.  1.
         23    2    1    2    0    0 -0.83498347161E+02 -0.60495550935E+03 -0.21957693741E+04  0.22808322546E+04  0.88597330095E+02 0.  0.
         13    1    3    3    0    0 -0.22632088325E-01 -0.30774567928E+03 -0.10447227601E+04  0.10891065371E+04  0.00000000000E+00 0.  1.
        -13    1    3    3    0    0 -0.83475715073E+02 -0.29720983006E+03 -0.11510466140E+04  0.11917257175E+04  0.00000000000E+00 0. -1.
         22    1    1    2    0    0  0.83498347161E+02  0.60495550935E+03  0.58435058965E+03  0.84522704281E+03  0.00000000000E+00 0. -1.
<mgrwt>
<rscale>  0 0.26787266E+04</rscale>
<asrwt>0</asrwt>
<pdfrwt beam="1">  1        1 0.11651081E+00 0.26787266E+04</pdfrwt>
<pdfrwt beam="2">  1       -1 0.36442139E+00 0.26787266E+04</pdfrwt>
<totfact> 0.26277757E-01</totfact>
</mgrwt>
</event>
<event>
 6    1  0.3427757E-005  0.3798629E+04  0.7818608E-02  0.8046449E-01
         -1   -1    0    0    0  501 -0.00000000000E+00  0.00000000000E+00  0.18215506728E+04  0.18215506728E+04  0.00000000000E+00 0.  1.
          1   -1    0    0  501    0  0.00000000000E+00 -0.00000000000E+00 -0.19803985614E+04  0.19803985614E+04  0.00000000000E+00 0. -1.
         23    2    1    2    0    0 -0.86834885041E+03 -0.91760317906E+03  0.13385250766E+04  0.18428292488E+04  0.91350639076E+02 0.  0.
         13    1    3    3    0    0 -0.61681612818E+03 -0.70245702257E+03  0.10171378554E+04  0.13814765367E+04  0.00000000000E+00 0. -1.
        -13    1    3    3    0    0 -0.25153272223E+03 -0.21514615649E+03  0.32138722118E+03  0.46135271208E+03  0.00000000000E+00 0.  1.
         22    1    1    2    0    0  0.86834885041E+03  0.91760317906E+03 -0.14973729652E+04  0.19591199854E+04  0.00000000000E+00 0. -1.
<mgrwt>
<rscale>  0 0.37986294E+04</rscale>
<asrwt>0</asrwt>
<pdfrwt beam="1">  1        1 0.30467670E+00 0.37986294E+04</pdfrwt>
<pdfrwt beam="2">  1       -1 0.28023857E+00 0.37986294E+04</pdfrwt>
<totfact> 0.10844239E-01</totfact>
</mgrwt>
</event>
<event>
 6    1  0.1568961E-005  0.4496135E+04  0.7818608E-02  0.7911314E-01
         -2   -1    0    0    0  501 -0.00000000000E+00  0.00000000000E+00  0.32242388131E+04  0.32242388131E+04  0.00000000000E+00 0.  1.
          2   -1    0    0  501    0  0.00000000000E+00 -0.00000000000E+00 -0.15674420475E+04  0.15674420475E+04  0.00000000000E+00 0. -1.
         23    2    1    2    0    0 -0.16401435715E+04  0.15344867698E+04  0.90329181830E+03  0.24226113624E+04  0.91592152255E+02 0.  0.
         13    1    3    3    0    0 -0.11742460127E+04  0.11509199101E+04  0.67548721816E+03  0.17775694979E+04  0.00000000000E+00 0. -1.
        -13    1    3    3    0    0 -0.46589755881E+03  0.38356685967E+03  0.22780460014E+03  0.64504186452E+03  0.00000000000E+00 0.  1.
         22    1    1    2    0    0  0.16401435715E+04 -0.15344867698E+04  0.75350494730E+03  0.23690694982E+04  0.00000000000E+00 0. -1.
<mgrwt>
<rscale>  0 0.44961350E+04</rscale>
<asrwt>0</asrwt>
<pdfrwt beam="1">  1        2 0.24114493E+00 0.44961350E+04</pdfrwt>
<pdfrwt beam="2">  1       -2 0.49603674E+00 0.44961350E+04</pdfrwt>
<totfact> 0.15449395E-02</totfact>
</mgrwt>
</event>
<event>
 6    1  0.1568961E-005  0.2272134E+04  0.7818608E-02  0.8488990E-01
          2   -1    0    0  501    0  0.00000000000E+00  0.00000000000E+00  0.61224488670E+03  0.61224488670E+03  0.00000000000E+00 0. -1.
         -2   -1    0    0    0  501 -0.00000000000E+00 -0.00000000000E+00 -0.21080581834E+04  0.21080581834E+04  0.00000000000E+00 0.  1.
         23    2    1    2    0    0 -0.13062551019E+03  0.35248157703E+03  0.52965465660E+03  0.66024804270E+03  0.11868924374E+03 0.  0.
         11    1    3    3    0    0 -0.10118400657E+03  0.21862289279E+03  0.24125397485E+03  0.34093643516E+03  0.00000000000E+00 0. -1.
        -11    1    3    3    0    0 -0.29441503625E+02  0.13385868424E+03  0.28840068174E+03  0.31931160755E+03  0.00000000000E+00 0.  1.
         22    1    1    2    0    0  0.13062551019E+03 -0.35248157703E+03 -0.20254679533E+04  0.20600550274E+04  0.00000000000E+00 0.  1.
<mgrwt>
<rscale>  0 0.22721337E+04</rscale>
<asrwt>0</asrwt>
<pdfrwt beam="1">  1        2 0.94191521E-01 0.22721337E+04</pdfrwt>
<pdfrwt beam="2">  1       -2 0.32431664E+00 0.22721337E+04</pdfrwt>
<totfact> 0.99089623E-01</totfact>
</mgrwt>
</event>
<event>
 6    1  0.1568961E-005  0.3666865E+04  0.7818608E-02  0.8075345E-01
          2   -1    0    0  501    0  0.00000000000E+00  0.00000000000E+00  0.13207765407E+04  0.13207765407E+04  0.00000000000E+00 0. -1.
         -2   -1    0    0    0  501 -0.00000000000E+00 -0.00000000000E+00 -0.25450750378E+04  0.25450750378E+04  0.00000000000E+00 0.  1.
         23    2    1    2    0    0 -0.17170227211E+04  0.41336840137E+03 -0.11265131137E+04  0.20970659948E+04  0.98048614665E+02 0.  0.
         11    1    3    3    0    0 -0.71676138944E+03  0.13225953440E+03 -0.49795840092E+03  0.88272421677E+03  0.00000000000E+00 0.  1.
        -11    1    3    3    0    0 -0.10002613317E+04  0.28110886697E+03 -0.62855471282E+03  0.12143417780E+04  0.00000000000E+00 0. -1.
         22    1    1    2    0    0  0.17170227211E+04 -0.41336840137E+03 -0.97785383397E+02  0.17687855838E+04  0.00000000000E+00 0. -1.
<mgrwt>
<rscale>  0 0.36668654E+04</rscale>
<asrwt>0</asrwt>
<pdfrwt beam="1">  1        2 0.20319639E+00 0.36668654E+04</pdfrwt>
<pdfrwt beam="2">  1       -2 0.39155000E+00 0.36668654E+04</pdfrwt>
<totfact> 0.10974239E-01</totfact>
</mgrwt>
</event>
<event>
 6    1  0.1568961E-005  0.4572556E+04  0.7818608E-02  0.7898056E-01
         -1   -1    0    0    0  501 -0.00000000000E+00  0.00000000000E+00  0.19236376889E+04  0.19236376889E+04  0.00000000000E+00 0.  1.
          1   -1    0    0  501    0  0.00000000000E+00 -0.00000000000E+00 -0.27172822813E+04  0.27172822813E+04  0.00000000000E+00 0. -1.
         23    2    1    2    0    0 -0.16354592640E+04  0.19900809553E+03 -0.20045128971E+04  0.25962847269E+04  0.91056038272E+02 0.  0.
         13    1    3    3    0    0 -0.88793312659E+03  0.63753730879E+02 -0.10638494580E+04  0.13871789519E+04  0.00000000000E+00 0. -1.
        -13    1    3    3    0    0 -0.74752613746E+03  0.13525436465E+03 -0.94066343915E+03  0.12091057750E+04  0.00000000000E+00 0.  1.
         22    1    1    2    0    0  0.16354592640E+04 -0.19900809553E+03  0.12108683048E+04  0.20446352432E+04  0.00000000000E+00 0. -1.
<mgrwt>
<rscale>  0 0.45725558E+04</rscale>
<asrwt>0</asrwt>
<pdfrwt beam="1">  1        1 0.41804343E+00 0.45725558E+04</pdfrwt>
<pdfrwt beam="2">  1       -1 0.29594426E+00 0.45725558E+04</pdfrwt>
<totfact> 0.25009352E-02</totfact>
</mgrwt>
</event>
<event>
 6    1  0.1568961E-005  0.2586755E+04  0.7818608E-02  0.8372714E-01
          1   -1    0    0  501    0  0.00000000000E+00  0.00000000000E+00  0.21358057363E+04  0.21358057363E+04  0.00000000000E+00 0. -1.
         -1   -1    0    0    0  501 -0.00000000000E+00 -0.00000000000E+00 -0.78322887591E+03  0.78322887591E+03  0.00000000000E+00 0.  1.
         23    2    1    2    0    0 -0.12867340540E+04 -0.65873176587E+02  0.78340239245E+03  0.15104951644E+04  0.88614512499E+02 0.  0.
         11    1    3    3    0    0 -0.10087269369E+04 -0.79400117220E+02  0.64162158884E+03  0.11981288224E+04  0.00000000000E+00 0.  1.
        -11    1    3    3    0    0 -0.27800711715E+03  0.13526940634E+02  0.14178080362E+03  0.31236634195E+03  0.00000000000E+00 0. -1.
         22    1    1    2    0    0  0.12867340540E+04  0.65873176587E+02  0.56917446794E+03  0.14085394479E+04  0.00000000000E+00 0.  1.
<mgrwt>
<rscale>  0 0.25867545E+04</rscale>
<asrwt>0</asrwt>
<pdfrwt beam="1">  1        1 0.32858550E+00 0.25867545E+04</pdfrwt>
<pdfrwt beam="2">  1       -1 0.12049675E+00 0.25867545E+04</pdfrwt>
<totfact> 0.13016703E+00</totfact>
</mgrwt>
</event>
<event>
 6    1  0.1568961E-005  0.1343258E+04  0.7818608E-02  0.8995947E-01
         -2   -1    0    0    0  501 -0.00000000000E+00  0.00000000000E+00  0.24320591104E+03  0.24320591104E+03  0.00000000000E+00 0.  1.
          2   -1    0    0  501    0  0.00000000000E+00 -0.00000000000E+00 -0.18547476130E+04  0.18547476130E+04  0.00000000000E+00 0. -1.
         23    2    1    2    0    0 -0.11003992731E+03 -0.32829788291E+03  0.80707467622E+02  0.37064476835E+03  0.10476432336E+03 0.  0.
         13    1    3    3    0    0 -0.84956540658E+02 -0.97979335088E+02  0.37222205208E+02  0.13491870317E+03  0.00000000000E+00 0.  1.
        -13    1    3    3    0    0 -0.25083386651E+02 -0.23031854782E+03  0.43485262414E+02  0.23572606518E+03  0.00000000000E+00 0. -1.
         22    1    1    2    0    0  0.11003992731E+03  0.32829788291E+03 -0.16922491696E+04  0.17273087557E+04  0.00000000000E+00 0. -1.
<mgrwt>
<rscale>  0 0.13432581E+04</rscale>
<asrwt>0</asrwt>
<pdfrwt beam="1">  1        2 0.28534578E+00 0.13432581E+04</pdfrwt>
<pdfrwt beam="2">  1       -2 0.37416295E-01 0.13432581E+04</pdfrwt>
<totfact> 0.52975280E+01</totfact>
</mgrwt>
</event>
<event>
 6    1  0.1568961E-005  0.4902250E+04  0.7818608E-02  0.7843766E-01
          2   -1    0    0  501    0  0.00000000000E+00  0.00000000000E+00  0.20529240102E+04  0.20529240102E+04  0.00000000000E+00 0. -1.
         -2   -1    0    0    0  501 -0.00000000000E+00 -0.00000000000E+00 -0.29265636131E+04  0.29265636131E+04  0.00000000000E+00 0.  1.
         23    2    1    2    0    0 -0.24260342741E+04 -0.23683113913E+03 -0.18420301467E+03  0.24462971258E+04  0.93314466459E+02 0.  0.
         13    1    3    3    0    0 -0.89806349389E+03 -0.10813172308E+03 -0.28040873070E+02  0.90498441929E+03  0.00000000000E+00 0. -1.
        -13    1    3    3    0    0 -0.15279707802E+04 -0.12869941605E+03 -0.15616214160E+03  0.15413127065E+04  0.00000000000E+00 0.  1.
         22    1    1    2    0    0  0.24260342741E+04  0.23683113913E+03 -0.68943658816E+03  0.25331904975E+04  0.00000000000E+00 0.  1.
<mgrwt>
<rscale>  0 0.49022496E+04</rscale>
<asrwt>0</asrwt>
<pdfrwt beam="1">  1        2 0.31583446E+00 0.49022496E+04</pdfrwt>
<pdfrwt beam="2">  1       -2 0.45024056E+00 0.49022496E+04</pdfrwt>
<totfact> 0.15878504E-02</totfact>
</mgrwt>
</event>
<event>
 6    1  0.1568961E-005  0.2319601E+04  0.7818608E-02  0.8470233E-01
         -2   -1    0    0    0  501 -0.00000000000E+00  0.00000000000E+00  0.67034748816E+03  0.67034748816E+03  0.00000000000E+00 0.  1.
          2   -1    0    0  501    0  0.00000000000E+00 -0.00000000000E+00 -0.20066259179E+04  0.20066259179E+04  0.00000000000E+00 0. -1.
         23    2    1    2    0    0  0.59379879173E+03 -0.36211082675E+02  0.47729557364E+03  0.76831971478E+03  0.92713925257E+02 0.  0.
         13    1    3    3    0    0  0.29430722050E+03 -0.62493341282E+02  0.22200227414E+03  0.37390796657E+03  0.00000000000E+00 0. -1.
        -13    1    3    3    0    0  0.29949157122E+03  0.26282258607E+02  0.25529329950E+03  0.39441174820E+03  0.00000000000E+00 0.  1.
         22    1    1    2    0    0 -0.59379879173E+03  0.36211082675E+02 -0.18135740034E+04  0.19086536913E+04  0.00000000000E+00 0. -1.
<mgrwt>
<rscale>  0 0.23196005E+04</rscale>
<asrwt>0</asrwt>
<pdfrwt beam="1">  1        2 0.30871167E+00 0.23196005E+04</pdfrwt>
<pdfrwt beam="2">  1       -2 0.10313039E+00 0.23196005E+04</pdfrwt>
<totfact> 0.46017071E+00</totfact>
</mgrwt>
</event>
<event>
 6    1  0.1568961E-005  0.4850683E+04  0.7818608E-02  0.7851963E-01
          1   -1    0    0  501    0  0.00000000000E+00  0.00000000000E+00  0.27530086861E+04  0.27530086861E+04  0.00000000000E+00 0. -1.
         -1   -1    0    0    0  501 -0.00000000000E+00 -0.00000000000E+00 -0.21366741005E+04  0.21366741005E+04  0.00000000000E+00 0.  1.
         23    2    1    2    0    0 -0.42298252931E+03 -0.11324289641E+04 -0.18101714396E+04  0.21787344158E+04  0.94092695819E+02 0.  0.
         13    1    3    3    0    0 -0.47579364963E+02 -0.22481374217E+03 -0.36874769397E+03  0.43448806248E+03  0.00000000000E+00 0. -1.
        -13    1    3    3    0    0 -0.37540316435E+03 -0.90761522189E+03 -0.14414237456E+04  0.17442463533E+04  0.00000000000E+00 0.  1.
         22    1    1    2    0    0  0.42298252931E+03  0.11324289641E+04  0.24265060251E+04  0.27109483707E+04  0.00000000000E+00 0. -1.
<mgrwt>
<rscale>  0 0.48506834E+04</rscale>
<asrwt>0</asrwt>
<pdfrwt beam="1">  1        1 0.42353980E+00 0.48506834E+04</pdfrwt>
<pdfrwt beam="2">  1       -1 0.32871909E+00 0.48506834E+04</pdfrwt>
<totfact> 0.14113898E-02</totfact>
</mgrwt>
</event>
<event>
 6    1  0.1607175E-005  0.4569120E+04  0.7818608E-02  0.7898646E-01
          2   -1    0    0  501    0  0.00000000000E+00  0.00000000000E+00  0.23648306545E+04  0.23648306545E+04  0.00000000000E+00 0. -1.
         -2   -1    0    0    0  501 -0.00000000000E+00 -0.00000000000E+00 -0.22070141166E+04  0.22070141166E+04  0.00000000000E+00 0.  1.
         23    2    1    2    0    0 -0.20679481368E+04  0.79520916556E+03 -0.47481088331E+03  0.22677213874E+04  0.91366309166E+02 0.  0.
         13    1    3    3    0    0 -0.73391833969E+03  0.23760931484E+03 -0.17812855247E+03  0.79172223477E+03  0.00000000000E+00 0. -1.
        -13    1    3    3    0    0 -0.13340297971E+04  0.55759985072E+03 -0.29668233084E+03  0.14759991526E+04  0.00000000000E+00 0.  1.
         22    1    1    2    0    0  0.20679481368E+04 -0.79520916556E+03  0.63262742123E+03  0.23041233837E+04  0.00000000000E+00 0. -1.
<mgrwt>
<rscale>  0 0.45691201E+04</rscale>
<asrwt>0</asrwt>
<pdfrwt beam="1">  1        2 0.36382010E+00 0.45691201E+04</pdfrwt>
<pdfrwt beam="2">  1       -2 0.33954063E+00 0.45691201E+04</pdfrwt>
<totfact> 0.56792952E-02</totfact>
</mgrwt>
</event>
<event>
 6    1  0.1568961E-005  0.4689307E+04  0.7818608E-02  0.7878308E-01
          2   -1    0    0  501    0  0.00000000000E+00  0.00000000000E+00  0.35481149330E+04  0.35481149330E+04  0.00000000000E+00 0. -1.
         -2   -1    0    0    0  501 -0.00000000000E+00 -0.00000000000E+00 -0.15493858315E+04  0.15493858315E+04  0.00000000000E+00 0.  1.
         23    2    1    2    0    0 -0.19757429675E+04  0.12616235058E+04  0.10142524965E+04  0.25549728236E+04  0.62640710458E+02 0.  0.
         13    1    3    3    0    0 -0.59691013805E+03  0.39226552231E+03  0.27943887314E+03  0.76698111888E+03  0.00000000000E+00 0.  1.
        -13    1    3    3    0    0 -0.13788328295E+04  0.86935798351E+03  0.73481362332E+03  0.17879917047E+04  0.00000000000E+00 0. -1.
         22    1    1    2    0    0  0.19757429675E+04 -0.12616235058E+04  0.98447660501E+03  0.25425279409E+04  0.00000000000E+00 0. -1.
<mgrwt>
<rscale>  0 0.46893066E+04</rscale>
<asrwt>0</asrwt>
<pdfrwt beam="1">  1        2 0.54586383E+00 0.46893066E+04</pdfrwt>
<pdfrwt beam="2">  1       -2 0.23836705E+00 0.46893066E+04</pdfrwt>
<totfact> 0.42451939E-02</totfact>
</mgrwt>
</event>
<event>
 6    1  0.1568961E-005  0.3072997E+04  0.7818608E-02  0.8223188E-01
         -1   -1    0    0    0  501 -0.00000000000E+00  0.00000000000E+00  0.99511043939E+03  0.99511043939E+03  0.00000000000E+00 0.  1.
          1   -1    0    0  501    0  0.00000000000E+00 -0.00000000000E+00 -0.23724275335E+04  0.23724275335E+04  0.00000000000E+00 0. -1.
         23    2    1    2    0    0  0.14261615116E+04 -0.25056363150E+03 -0.13074354302E+03  0.14568667796E+04  0.92995424341E+02 0.  0.
         11    1    3    3    0    0  0.80621726041E+02 -0.17349239419E+02 -0.29243668952E+02  0.87498862804E+02  0.00000000000E+00 0. -1.
        -11    1    3    3    0    0  0.13455397855E+04 -0.23321439208E+03 -0.10149987407E+03  0.13693679168E+04  0.00000000000E+00 0.  1.
         22    1    1    2    0    0 -0.14261615116E+04  0.25056363150E+03 -0.12465735511E+04  0.19106711933E+04  0.00000000000E+00 0. -1.
<mgrwt>
<rscale>  0 0.30729968E+04</rscale>
<asrwt>0</asrwt>
<pdfrwt beam="1">  1        1 0.36498885E+00 0.30729968E+04</pdfrwt>
<pdfrwt beam="2">  1       -1 0.15309391E+00 0.30729968E+04</pdfrwt>
<totfact> 0.46326170E-01</totfact>
</mgrwt>
</event>
<event>
 6    1  0.1568961E-005  0.3830281E+04  0.7818608E-02  0.8039688E-01
         -1   -1    0    0    0  501 -0.00000000000E+00  0.00000000000E+00  0.18213130415E+04  0.18213130415E+04  0.00000000000E+00 0.  1.
          1   -1    0    0  501    0  0.00000000000E+00 -0.00000000000E+00 -0.20138012933E+04  0.20138012933E+04  0.00000000000E+00 0. -1.
         23    2    1    2    0    0  0.14828441571E+04 -0.11577733371E+04  0.25670615574E+03  0.19009371170E+04  0.91640482029E+02 0.  0.
         13    1    3    3    0    0  0.77719174666E+03 -0.55184768579E+03  0.14496631663E+03  0.96414631273E+03  0.00000000000E+00 0. -1.
        -13    1    3    3    0    0  0.70565241046E+03 -0.60592565133E+03  0.11173983911E+03  0.93679080427E+03  0.00000000000E+00 0.  1.
         22    1    1    2    0    0 -0.14828441571E+04  0.11577733371E+04 -0.44919440754E+03  0.19341772179E+04  0.00000000000E+00 0.  1.
<mgrwt>
<rscale>  0 0.38302807E+04</rscale>
<asrwt>0</asrwt>
<pdfrwt beam="1">  1        1 0.30981558E+00 0.38302807E+04</pdfrwt>
<pdfrwt beam="2">  1       -1 0.28020201E+00 0.38302807E+04</pdfrwt>
<totfact> 0.10271119E-01</totfact>
</mgrwt>
</event>
<event>
 6    1  0.1568961E-005  0.4633060E+04  0.7818608E-02  0.7887747E-01
         -1   -1    0    0    0  501 -0.00000000000E+00  0.00000000000E+00  0.23909598848E+04  0.23909598848E+04  0.00000000000E+00 0.  1.
          1   -1    0    0  501    0  0.00000000000E+00 -0.00000000000E+00 -0.22444168980E+04  0.22444168980E+04  0.00000000000E+00 0. -1.
         23    2    1    2    0    0  0.13291284481E+04 -0.13945054174E+04 -0.12121863988E+04  0.22779686014E+04  0.92289179781E+02 0.  0.
         11    1    3    3    0    0  0.59358877488E+03 -0.56275960805E+03 -0.49166260722E+03  0.95434696492E+03  0.00000000000E+00 0. -1.
        -11    1    3    3    0    0  0.73553967321E+03 -0.83174580936E+03 -0.72052379160E+03  0.13236216365E+04  0.00000000000E+00 0.  1.
         22    1    1    2    0    0 -0.13291284481E+04  0.13945054174E+04  0.13587293856E+04  0.23574081815E+04  0.00000000000E+00 0.  1.
<mgrwt>
<rscale>  0 0.46330598E+04</rscale>
<asrwt>0</asrwt>
<pdfrwt beam="1">  1        1 0.34529491E+00 0.46330598E+04</pdfrwt>
<pdfrwt beam="2">  1       -1 0.36783998E+00 0.46330598E+04</pdfrwt>
<totfact> 0.17840661E-02</totfact>
</mgrwt>
</event>
<event>
 6    1  0.1568961E-005  0.1637965E+04  0.7818608E-02  0.8797558E-01
         -1   -1    0    0    0  501 -0.00000000000E+00  0.00000000000E+00  0.80625247987E+03  0.80625247987E+03  0.00000000000E+00 0.  1.
          1   -1    0    0  501    0  0.00000000000E+00 -0.00000000000E+00 -0.83191314851E+03  0.83191314851E+03  0.00000000000E+00 0. -1.
         23    2    1    2    0    0  0.45665610002E+03  0.52737360602E+03  0.41136655850E+03  0.81497032271E+03  0.91084946209E+02 0.  0.
         13    1    3    3    0    0  0.85411833496E+02  0.13805790876E+03  0.12939679224E+03  0.20760225749E+03  0.00000000000E+00 0. -1.
        -13    1    3    3    0    0  0.37124426653E+03  0.38931569727E+03  0.28196976626E+03  0.60736806522E+03  0.00000000000E+00 0.  1.
         22    1    1    2    0    0 -0.45665610002E+03 -0.52737360602E+03 -0.43702722714E+03  0.82319530567E+03  0.00000000000E+00 0. -1.
<mgrwt>
<rscale>  0 0.16379646E+04</rscale>
<asrwt>0</asrwt>
<pdfrwt beam="1">  1        1 0.12798664E+00 0.16379646E+04</pdfrwt>
<pdfrwt beam="2">  1       -1 0.12403884E+00 0.16379646E+04</pdfrwt>
<totfact> 0.11325358E+01</totfact>
</mgrwt>
</event>
<event>
 6    1  0.1568961E-005  0.2782016E+04  0.7818608E-02  0.8308874E-01
          2   -1    0    0  501    0  0.00000000000E+00  0.00000000000E+00  0.26808499813E+04  0.26808499813E+04  0.00000000000E+00 0. -1.
         -2   -1    0    0    0  501 -0.00000000000E+00 -0.00000000000E+00 -0.72174984617E+03  0.72174984617E+03  0.00000000000E+00 0.  1.
         23    2    1    2    0    0  0.97276942848E+02 -0.85286580765E+03  0.23170379792E+04  0.24725662852E+04  0.89867390453E+02 0.  0.
         11    1    3    3    0    0  0.22389482544E+02 -0.32664156521E+03  0.10035433054E+04  0.10556018031E+04  0.00000000000E+00 0. -1.
        -11    1    3    3    0    0  0.74887460305E+02 -0.52622424245E+03  0.13134946739E+04  0.14169644820E+04  0.00000000000E+00 0.  1.
         22    1    1    2    0    0 -0.97276942848E+02  0.85286580765E+03 -0.35793784414E+03  0.93003354227E+03  0.00000000000E+00 0.  1.
<mgrwt>
<rscale>  0 0.27820159E+04</rscale>
<asrwt>0</asrwt>
<pdfrwt beam="1">  1        2 0.41243845E+00 0.27820159E+04</pdfrwt>
<pdfrwt beam="2">  1       -2 0.11103844E+00 0.27820159E+04</pdfrwt>
<totfact> 0.15251778E+00</totfact>
</mgrwt>
</event>
<event>
 6    1  0.1568961E-005  0.3265354E+04  0.7818608E-02  0.8171767E-01
         -2   -1    0    0    0  501 -0.00000000000E+00  0.00000000000E+00  0.11743049552E+04  0.11743049552E+04  0.00000000000E+00 0.  1.
          2   -1    0    0  501    0  0.00000000000E+00 -0.00000000000E+00 -0.22699677718E+04  0.22699677718E+04  0.00000000000E+00 0. -1.
         23    2    1    2    0    0 -0.12280984518E+04  0.88858505931E+03  0.87889323474E+02  0.15210969983E+04  0.90566716252E+02 0.  0.
         11    1    3    3    0    0 -0.55182842180E+03  0.43925803502E+03  0.93283919194E+01  0.70537170863E+03  0.00000000000E+00 0. -1.
        -11    1    3    3    0    0 -0.67627003000E+03  0.44932702429E+03  0.78560931555E+02  0.81572528967E+03  0.00000000000E+00 0.  1.
         22    1    1    2    0    0  0.12280984518E+04 -0.88858505931E+03 -0.11835521401E+04  0.19231757286E+04  0.00000000000E+00 0. -1.
<mgrwt>
<rscale>  0 0.32653541E+04</rscale>
<asrwt>0</asrwt>
<pdfrwt beam="1">  1        2 0.34922581E+00 0.32653541E+04</pdfrwt>
<pdfrwt beam="2">  1       -2 0.18066230E+00 0.32653541E+04</pdfrwt>
<totfact> 0.70854499E-01</totfact>
</mgrwt>
</event>
<event>
 6    1  0.1568961E-005  0.9842703E+03  0.7818608E-02  0.9325967E-01
         -2   -1    0    0    0  501 -0.00000000000E+00  0.00000000000E+00  0.24020424083E+04  0.24020424083E+04  0.00000000000E+00 0.  1.
          2   -1    0    0  501    0  0.00000000000E+00 -0.00000000000E+00 -0.10082960789E+03  0.10082960789E+03  0.00000000000E+00 0. -1.
         23    2    1    2    0    0  0.40903265193E+03 -0.19951437389E+03  0.71215726972E+03  0.84993185534E+03  0.90013811001E+02 0.  0.
         11    1    3    3    0    0  0.26941048805E+03 -0.17728249548E+03  0.49918978853E+03  0.59430761332E+03  0.00000000000E+00 0. -1.
        -11    1    3    3    0    0  0.13962216388E+03 -0.22231878409E+02  0.21296748119E+03  0.25562424202E+03  0.00000000000E+00 0.  1.
         22    1    1    2    0    0 -0.40903265193E+03  0.19951437389E+03  0.15890555307E+04  0.16529401609E+04  0.00000000000E+00 0.  1.
<mgrwt>
<rscale>  0 0.98427028E+03</rscale>
<asrwt>0</asrwt>
<pdfrwt beam="1">  1        2 0.15512249E-01 0.98427028E+03</pdfrwt>
<pdfrwt beam="2">  1       -2 0.36954494E+00 0.98427028E+03</pdfrwt>
<totfact> 0.46306380E+00</totfact>
</mgrwt>
</event>
<event>
 6    1  0.1568961E-005  0.1722047E+04  0.7818608E-02  0.8748889E-01
          2   -1    0    0  501    0  0.00000000000E+00  0.00000000000E+00  0.34292982039E+03  0.34292982039E+03  0.00000000000E+00 0. -1.
         -2   -1    0    0    0  501 -0.00000000000E+00 -0.00000000000E+00 -0.21618458372E+04  0.21618458372E+04  0.00000000000E+00 0.  1.
         23    2    1    2    0    0 -0.29138890555E+03  0.36193115326E+03 -0.19623665989E+04  0.20184838486E+04  0.86560527028E+02 0.  0.
         11    1    3    3    0    0 -0.25491391633E+03  0.32745494010E+03 -0.18401779550E+04  0.18863888116E+04  0.00000000000E+00 0. -1.
        -11    1    3    3    0    0 -0.36474989220E+02  0.34476213155E+02 -0.12218864390E+03  0.13209503704E+03  0.00000000000E+00 0.  1.
         22    1    1    2    0    0  0.29138890555E+03 -0.36193115326E+03  0.14345058205E+03  0.48629180897E+03  0.00000000000E+00 0. -1.
<mgrwt>
<rscale>  0 0.17220469E+04</rscale>
<asrwt>0</asrwt>
<pdfrwt beam="1">  1        2 0.52758435E-01 0.17220469E+04</pdfrwt>
<pdfrwt beam="2">  1       -2 0.33259166E+00 0.17220469E+04</pdfrwt>
<totfact> 0.18029912E+00</totfact>
</mgrwt>
</event>
<event>
 6    1  0.1568961E-005  0.5542787E+04  0.7818608E-02  0.7749829E-01
          2   -1    0    0  501    0  0.00000000000E+00  0.00000000000E+00  0.31384185659E+04  0.31384185659E+04  0.00000000000E+00 0. -1.
         -2   -1    0    0    0  501 -0.00000000000E+00 -0.00000000000E+00 -0.24472908378E+04  0.24472908378E+04  0.00000000000E+00 0.  1.
         23    2    1    2    0    0  0.88102053726E+03 -0.23373258184E+04 -0.86250653230E+03  0.26440995412E+04  0.89753534616E+02 0.  0.
         13    1    3    3    0    0  0.62615547966E+03 -0.15425507326E+04 -0.58124887156E+03  0.17633444638E+04  0.00000000000E+00 0. -1.
        -13    1    3    3    0    0  0.25486505760E+03 -0.79477508574E+03 -0.28125766075E+03  0.88075507732E+03  0.00000000000E+00 0.  1.
         22    1    1    2    0    0 -0.88102053726E+03  0.23373258184E+04  0.15536342604E+04  0.29416098626E+04  0.00000000000E+00 0. -1.
<mgrwt>
<rscale>  0 0.55427874E+04</rscale>
<asrwt>0</asrwt>
<pdfrwt beam="1">  1        2 0.48283362E+00 0.55427874E+04</pdfrwt>
<pdfrwt beam="2">  1       -2 0.37650628E+00 0.55427874E+04</pdfrwt>
<totfact> 0.10453238E-02</totfact>
</mgrwt>
</event>
<event>
 6    1  0.1568961E-005  0.2468106E+04  0.7818608E-02  0.8414437E-01
          1   -1    0    0  501    0  0.00000000000E+00  0.00000000000E+00  0.13508218927E+04  0.13508218927E+04  0.00000000000E+00 0. -1.
         -1   -1    0    0    0  501 -0.00000000000E+00 -0.00000000000E+00 -0.11273782818E+04  0.11273782818E+04  0.00000000000E+00 0.  1.
         23    2    1    2    0    0 -0.80879718553E+03  0.45341753052E+03 -0.70318668974E+03  0.11673286863E+04  0.91893399770E+02 0.  0.
         13    1    3    3    0    0 -0.48809519885E+02  0.52740787001E+01 -0.44919674333E+02  0.66542935611E+02  0.00000000000E+00 0. -1.
        -13    1    3    3    0    0 -0.75998766564E+03  0.44814345182E+03 -0.65826701541E+03  0.11007857507E+04  0.00000000000E+00 0.  1.
         22    1    1    2    0    0  0.80879718553E+03 -0.45341753052E+03  0.92663030067E+03  0.13108714881E+04  0.00000000000E+00 0. -1.
<mgrwt>
<rscale>  0 0.24681064E+04</rscale>
<asrwt>0</asrwt>
<pdfrwt beam="1">  1        1 0.20781875E+00 0.24681064E+04</pdfrwt>
<pdfrwt beam="2">  1       -1 0.17344281E+00 0.24681064E+04</pdfrwt>
<totfact> 0.17215036E+00</totfact>
</mgrwt>
</event>
<event>
 6    1  0.1568961E-005  0.3262790E+04  0.7818608E-02  0.8172429E-01
         -2   -1    0    0    0  501 -0.00000000000E+00  0.00000000000E+00  0.10400175601E+04  0.10400175601E+04  0.00000000000E+00 0.  1.
          2   -1    0    0  501    0  0.00000000000E+00 -0.00000000000E+00 -0.25590422303E+04  0.25590422303E+04  0.00000000000E+00 0. -1.
         23    2    1    2    0    0 -0.99726026705E+03 -0.45362847740E+03  0.57136930616E+03  0.12389636457E+04  0.90891119014E+02 0.  0.
         13    1    3    3    0    0 -0.29684826461E+03 -0.12101771030E+03  0.21221603805E+03  0.38444742841E+03  0.00000000000E+00 0. -1.
        -13    1    3    3    0    0 -0.70041200244E+03 -0.33261076710E+03  0.35915326811E+03  0.85451621725E+03  0.00000000000E+00 0.  1.
         22    1    1    2    0    0  0.99726026705E+03  0.45362847740E+03 -0.20903939764E+04  0.23600961447E+04  0.00000000000E+00 0. -1.
<mgrwt>
<rscale>  0 0.32627895E+04</rscale>
<asrwt>0</asrwt>
<pdfrwt beam="1">  1        2 0.39369880E+00 0.32627895E+04</pdfrwt>
<pdfrwt beam="2">  1       -2 0.16000270E+00 0.32627895E+04</pdfrwt>
<totfact> 0.67848804E-01</totfact>
</mgrwt>
</event>
<event>
 6    1  0.1568961E-005  0.2318587E+04  0.7818608E-02  0.8470628E-01
         -2   -1    0    0    0  501 -0.00000000000E+00  0.00000000000E+00  0.12723711911E+04  0.12723711911E+04  0.00000000000E+00 0.  1.
          2   -1    0    0  501    0  0.00000000000E+00 -0.00000000000E+00 -0.10562653914E+04  0.10562653914E+04  0.00000000000E+00 0. -1.
         23    2    1    2    0    0 -0.30764141463E+03  0.99781872843E+03 -0.39349610616E+03  0.11195460407E+04  0.90877372537E+02 0.  0.
         13    1    3    3    0    0 -0.21113632406E+03  0.54798349631E+03 -0.24220503250E+03  0.63523833113E+03  0.00000000000E+00 0.  1.
        -13    1    3    3    0    0 -0.96505090564E+02  0.44983523212E+03 -0.15129107366E+03  0.48430770955E+03  0.00000000000E+00 0. -1.
         22    1    1    2    0    0  0.30764141463E+03 -0.99781872843E+03  0.60960190581E+03  0.12090905418E+04  0.00000000000E+00 0.  1.
<mgrwt>
<rscale>  0 0.23185872E+04</rscale>
<asrwt>0</asrwt>
<pdfrwt beam="1">  1        2 0.16250237E+00 0.23185872E+04</pdfrwt>
<pdfrwt beam="2">  1       -2 0.19574941E+00 0.23185872E+04</pdfrwt>
<totfact> 0.29788583E+00</totfact>
</mgrwt>
</event>
<event>
 6    1  0.1568961E-005  0.9681906E+03  0.7818608E-02  0.9344138E-01
          1   -1    0    0  501    0  0.00000000000E+00  0.00000000000E+00  0.17522098252E+04  0.17522098252E+04  0.00000000000E+00 0. -1.
         -1   -1    0    0    0  501 -0.00000000000E+00 -0.00000000000E+00 -0.13374440280E+03  0.13374440280E+03  0.00000000000E+00 0.  1.
         23    2    1    2    0    0  0.44508716427E+03  0.14088719195E+03  0.60257711444E+03  0.76792880838E+03  0.93078951673E+02 0.  0.
         11    1    3    3    0    0  0.29193991628E+03  0.98969013498E+02  0.32354766893E+03  0.44688575097E+03  0.00000000000E+00 0.  1.
        -11    1    3    3    0    0  0.15314724799E+03  0.41918178450E+02  0.27902944551E+03  0.32104305741E+03  0.00000000000E+00 0. -1.
         22    1    1    2    0    0 -0.44508716427E+03 -0.14088719195E+03  0.10158883080E+04  0.11180254197E+04  0.00000000000E+00 0. -1.
<mgrwt>
<rscale>  0 0.96819059E+03</rscale>
<asrwt>0</asrwt>
<pdfrwt beam="1">  1        1 0.26957073E+00 0.96819059E+03</pdfrwt>
<pdfrwt beam="2">  1       -1 0.20576063E-01 0.96819059E+03</pdfrwt>
<totfact> 0.86222227E+01</totfact>
</mgrwt>
</event>
<event>
 6    1  0.1568961E-005  0.1682017E+04  0.7818608E-02  0.8771687E-01
         -2   -1    0    0    0  501 -0.00000000000E+00  0.00000000000E+00  0.50147296359E+03  0.50147296359E+03  0.00000000000E+00 0.  1.
          2   -1    0    0  501    0  0.00000000000E+00 -0.00000000000E+00 -0.14104361677E+04  0.14104361677E+04  0.00000000000E+00 0. -1.
         23    2    1    2    0    0  0.14692570327E+02  0.81554884407E+03 -0.23243969190E+03  0.85218282170E+03  0.82774165924E+02 0.  0.
         13    1    3    3    0    0 -0.29032248881E+02  0.39894038923E+03 -0.13434635261E+03  0.42195408293E+03  0.00000000000E+00 0.  1.
        -13    1    3    3    0    0  0.43724819208E+02  0.41660845483E+03 -0.98093339290E+02  0.43022873877E+03  0.00000000000E+00 0. -1.
         22    1    1    2    0    0 -0.14692570327E+02 -0.81554884407E+03 -0.67652351223E+03  0.10597263096E+04  0.00000000000E+00 0.  1.
<mgrwt>
<rscale>  0 0.16820174E+04</rscale>
<asrwt>0</asrwt>
<pdfrwt beam="1">  1        2 0.21699018E+00 0.16820174E+04</pdfrwt>
<pdfrwt beam="2">  1       -2 0.77149687E-01 0.16820174E+04</pdfrwt>
<totfact> 0.20393227E+01</totfact>
</mgrwt>
</event>
<event>
 6    1  0.1568961E-005  0.1303720E+04  0.7818608E-02  0.9026620E-01
         -1   -1    0    0    0  501 -0.00000000000E+00  0.00000000000E+00  0.42943979794E+03  0.42943979794E+03  0.00000000000E+00 0.  1.
          1   -1    0    0  501    0  0.00000000000E+00 -0.00000000000E+00 -0.98947860311E+03  0.98947860311E+03  0.00000000000E+00 0. -1.
         23    2    1    2    0    0 -0.23623240305E+03  0.53556548119E+03 -0.58556864037E+03  0.83301063921E+03  0.91542118946E+02 0.  0.
         11    1    3    3    0    0 -0.10225056249E+03  0.16652092621E+03 -0.24408006222E+03  0.31266511345E+03  0.00000000000E+00 0. -1.
        -11    1    3    3    0    0 -0.13398184056E+03  0.36904455499E+03 -0.34148857816E+03  0.52034552576E+03  0.00000000000E+00 0.  1.
         22    1    1    2    0    0  0.23623240305E+03 -0.53556548119E+03  0.25529835197E+02  0.58590776184E+03  0.00000000000E+00 0.  1.
<mgrwt>
<rscale>  0 0.13037200E+04</rscale>
<asrwt>0</asrwt>
<pdfrwt beam="1">  1        1 0.15222748E+00 0.13037200E+04</pdfrwt>
<pdfrwt beam="2">  1       -1 0.66067662E-01 0.13037200E+04</pdfrwt>
<totfact> 0.35175091E+01</totfact>
</mgrwt>
</event>
<event>
 6    1  0.1568961E-005  0.3496898E+03  0.7818608E-02  0.1062742E+00
          2   -1    0    0  501    0  0.00000000000E+00  0.00000000000E+00  0.72215158831E+03  0.72215158831E+03  0.00000000000E+00 0. -1.
         -2   -1    0    0    0  501 -0.00000000000E+00 -0.00000000000E+00 -0.42332861015E+02  0.42332861015E+02  0.00000000000E+00 0.  1.
         23    2    1    2    0    0 -0.16009442874E+03 -0.26724862537E+02  0.40556767735E+03  0.44580266009E+03  0.88940578169E+02 0.  0.
         13    1    3    3    0    0 -0.40373613363E+02 -0.48691132875E+02  0.13150199242E+03  0.14592336718E+03  0.00000000000E+00 0. -1.
        -13    1    3    3    0    0 -0.11972081538E+03  0.21966270338E+02  0.27406568492E+03  0.29987929292E+03  0.00000000000E+00 0.  1.
         22    1    1    2    0    0  0.16009442874E+03  0.26724862537E+02  0.27425104995E+03  0.31868178923E+03  0.00000000000E+00 0.  1.
<mgrwt>
<rscale>  0 0.34968982E+03</rscale>
<asrwt>0</asrwt>
<pdfrwt beam="1">  1        2 0.11110024E+00 0.34968982E+03</pdfrwt>
<pdfrwt beam="2">  1       -2 0.65127484E-02 0.34968982E+03</pdfrwt>
<totfact> 0.52838696E+03</totfact>
</mgrwt>
</event>
<event>
 6    1  0.1568961E-005  0.2702508E+04  0.7818608E-02  0.8334192E-01
          2   -1    0    0  501    0  0.00000000000E+00  0.00000000000E+00  0.19704907479E+04  0.19704907479E+04  0.00000000000E+00 0. -1.
         -2   -1    0    0    0  501 -0.00000000000E+00 -0.00000000000E+00 -0.92661548738E+03  0.92661548738E+03  0.00000000000E+00 0.  1.
         23    2    1    2    0    0  0.10377141318E+04  0.52875344441E+03 -0.20866040220E+03  0.11867622901E+04  0.91840869789E+02 0.  0.
         13    1    3    3    0    0  0.61345023499E+03  0.28175091100E+03 -0.15739393102E+03  0.69316492711E+03  0.00000000000E+00 0.  1.
        -13    1    3    3    0    0  0.42426389686E+03  0.24700253340E+03 -0.51266471179E+02  0.49359736299E+03  0.00000000000E+00 0. -1.
         22    1    1    2    0    0 -0.10377141318E+04 -0.52875344441E+03  0.12525356627E+04  0.17103439452E+04  0.00000000000E+00 0.  1.
<mgrwt>
<rscale>  0 0.27025079E+04</rscale>
<asrwt>0</asrwt>
<pdfrwt beam="1">  1        2 0.30315242E+00 0.27025079E+04</pdfrwt>
<pdfrwt beam="2">  1       -2 0.14255623E+00 0.27025079E+04</pdfrwt>
<totfact> 0.20852450E+00</totfact>
</mgrwt>
</event>
<event>
 6    1  0.1568961E-005  0.2228072E+04  0.7818608E-02  0.8506834E-01
         -1   -1    0    0    0  501 -0.00000000000E+00  0.00000000000E+00  0.42724090594E+03  0.42724090594E+03  0.00000000000E+00 0.  1.
          1   -1    0    0  501    0  0.00000000000E+00 -0.00000000000E+00 -0.29048635279E+04  0.29048635279E+04  0.00000000000E+00 0. -1.
         23    2    1    2    0    0  0.45997189064E+03  0.58781846101E+03 -0.75960170236E+01  0.75176799989E+03  0.89402141502E+02 0.  0.
         13    1    3    3    0    0  0.90579570742E+02  0.10938736406E+03 -0.36501941674E+02  0.14663780481E+03  0.00000000000E+00 0. -1.
        -13    1    3    3    0    0  0.36939231990E+03  0.47843109694E+03  0.28905924651E+02  0.60513019508E+03  0.00000000000E+00 0.  1.
         22    1    1    2    0    0 -0.45997189064E+03 -0.58781846101E+03 -0.24700266049E+04  0.25803364339E+04  0.00000000000E+00 0. -1.
<mgrwt>
<rscale>  0 0.22280723E+04</rscale>
<asrwt>0</asrwt>
<pdfrwt beam="1">  1        1 0.44690206E+00 0.22280723E+04</pdfrwt>
<pdfrwt beam="2">  1       -1 0.65729374E-01 0.22280723E+04</pdfrwt>
<totfact> 0.14962331E+00</totfact>
</mgrwt>
</event>
<event>
 6    1  0.1568961E-005  0.4791423E+03  0.7818608E-02  0.1019371E+00
         -1   -1    0    0    0  501 -0.00000000000E+00  0.00000000000E+00  0.54558505882E+03  0.54558505882E+03  0.00000000000E+00 0.  1.
          1   -1    0    0  501    0  0.00000000000E+00 -0.00000000000E+00 -0.10519778634E+03  0.10519778634E+03  0.00000000000E+00 0. -1.
         23    2    1    2    0    0 -0.82035325828E+02  0.11538379678E+03 -0.19762588890E+02  0.16934633827E+03  0.90798717640E+02 0.  0.
         13    1    3    3    0    0 -0.90374494504E+02  0.52273531409E+02 -0.90813344360E+01  0.10479762391E+03  0.00000000000E+00 0. -1.
        -13    1    3    3    0    0  0.83391686760E+01  0.63110265367E+02 -0.10681254454E+02  0.64548714361E+02  0.00000000000E+00 0.  1.
         22    1    1    2    0    0  0.82035325828E+02 -0.11538379678E+03  0.46014986137E+03  0.48143650689E+03  0.00000000000E+00 0.  1.
<mgrwt>
<rscale>  0 0.47914232E+03</rscale>
<asrwt>0</asrwt>
<pdfrwt beam="1">  1        1 0.16184275E-01 0.47914232E+03</pdfrwt>
<pdfrwt beam="2">  1       -1 0.83936161E-01 0.47914232E+03</pdfrwt>
<totfact> 0.49646575E+02</totfact>
</mgrwt>
</event>
<event>
 6    1  0.1568961E-005  0.2338533E+04  0.7818608E-02  0.8462881E-01
         -1   -1    0    0    0  501 -0.00000000000E+00  0.00000000000E+00  0.16013101210E+04  0.16013101210E+04  0.00000000000E+00 0.  1.
          1   -1    0    0  501    0  0.00000000000E+00 -0.00000000000E+00 -0.85379129539E+03  0.85379129539E+03  0.00000000000E+00 0. -1.
         23    2    1    2    0    0 -0.10875277094E+04  0.38980144913E+02  0.81844811410E+03  0.13645662568E+04  0.89150341659E+02 0.  0.
         13    1    3    3    0    0 -0.37357146949E+03  0.53007057849E+02  0.30197977138E+03  0.48327753240E+03  0.00000000000E+00 0.  1.
        -13    1    3    3    0    0 -0.71395623989E+03 -0.14026912936E+02  0.51646834272E+03  0.88128872443E+03  0.00000000000E+00 0. -1.
         22    1    1    2    0    0  0.10875277094E+04 -0.38980144913E+02 -0.70929288444E+02  0.10905351596E+04  0.00000000000E+00 0. -1.
<mgrwt>
<rscale>  0 0.23385334E+04</rscale>
<asrwt>0</asrwt>
<pdfrwt beam="1">  1        1 0.13135251E+00 0.23385334E+04</pdfrwt>
<pdfrwt beam="2">  1       -1 0.24635540E+00 0.23385334E+04</pdfrwt>
<totfact> 0.13191015E+00</totfact>
</mgrwt>
</event>
<event>
 6    1  0.1568961E-005  0.3676113E+04  0.7818608E-02  0.8073276E-01
          2   -1    0    0  501    0  0.00000000000E+00  0.00000000000E+00  0.12364898809E+04  0.12364898809E+04  0.00000000000E+00 0. -1.
         -2   -1    0    0    0  501 -0.00000000000E+00 -0.00000000000E+00 -0.27322921879E+04  0.27322921879E+04  0.00000000000E+00 0.  1.
         23    2    1    2    0    0 -0.56732776954E+03  0.86891516576E+03 -0.23847756279E+04  0.26023458541E+04  0.90414520082E+02 0.  0.
         13    1    3    3    0    0 -0.25690227181E+03  0.40735095911E+03 -0.99620912384E+03  0.11065108222E+04  0.00000000000E+00 0. -1.
        -13    1    3    3    0    0 -0.31042549772E+03  0.46156420665E+03 -0.13885665041E+04  0.14958350319E+04  0.00000000000E+00 0.  1.
         22    1    1    2    0    0  0.56732776954E+03 -0.86891516576E+03  0.88897332095E+03  0.13664362147E+04  0.00000000000E+00 0. -1.
<mgrwt>
<rscale>  0 0.36761130E+04</rscale>
<asrwt>0</asrwt>
<pdfrwt beam="1">  1        2 0.19022922E+00 0.36761130E+04</pdfrwt>
<pdfrwt beam="2">  1       -2 0.42035264E+00 0.36761130E+04</pdfrwt>
<totfact> 0.79518306E-02</totfact>
</mgrwt>
</event>
<event>
 6    1  0.1568961E-005  0.3320022E+04  0.7818608E-02  0.8157819E-01
         -2   -1    0    0    0  501 -0.00000000000E+00  0.00000000000E+00  0.86241923272E+03  0.86241923272E+03  0.00000000000E+00 0.  1.
          2   -1    0    0  501    0  0.00000000000E+00 -0.00000000000E+00 -0.31952394726E+04  0.31952394726E+04  0.00000000000E+00 0. -1.
         23    2    1    2    0    0 -0.32834070316E+03  0.57714500137E+03  0.69029942625E+03  0.96247591821E+03  0.94565455063E+02 0.  0.
         11    1    3    3    0    0 -0.13672967239E+03  0.15846955352E+03  0.19217635887E+03  0.28414671495E+03  0.00000000000E+00 0. -1.
        -11    1    3    3    0    0 -0.19161103077E+03  0.41867544784E+03  0.49812306738E+03  0.67832920326E+03  0.00000000000E+00 0.  1.
         22    1    1    2    0    0  0.32834070316E+03 -0.57714500137E+03 -0.30231196662E+04  0.30951827872E+04  0.00000000000E+00 0. -1.
<mgrwt>
<rscale>  0 0.33200217E+04</rscale>
<asrwt>0</asrwt>
<pdfrwt beam="1">  1        2 0.49157529E+00 0.33200217E+04</pdfrwt>
<pdfrwt beam="2">  1       -2 0.13267989E+00 0.33200217E+04</pdfrwt>
<totfact> 0.44864070E-01</totfact>
</mgrwt>
</event>
<event>
 6    1  0.1568961E-005  0.4215655E+04  0.7818608E-02  0.7962401E-01
          2   -1    0    0  501    0  0.00000000000E+00  0.00000000000E+00  0.47469998164E+04  0.47469998164E+04  0.00000000000E+00 0. -1.
         -2   -1    0    0    0  501 -0.00000000000E+00 -0.00000000000E+00 -0.93594636549E+03  0.93594636549E+03  0.00000000000E+00 0.  1.
         23    2    1    2    0    0  0.10702660866E+04 -0.31556122300E+03 -0.50243840827E+03  0.12274708536E+04  0.95874714741E+02 0.  0.
         11    1    3    3    0    0  0.58483855509E+03 -0.21828145188E+03 -0.30019424088E+03  0.69267561673E+03  0.00000000000E+00 0.  1.
        -11    1    3    3    0    0  0.48542753146E+03 -0.97279771123E+02 -0.20224416739E+03  0.53479523690E+03  0.00000000000E+00 0. -1.
         22    1    1    2    0    0 -0.10702660866E+04  0.31556122300E+03  0.43134918592E+04  0.44554753283E+04  0.00000000000E+00 0. -1.
<mgrwt>
<rscale>  0 0.42156552E+04</rscale>
<asrwt>0</asrwt>
<pdfrwt beam="1">  1        2 0.73030765E+00 0.42156552E+04</pdfrwt>
<pdfrwt beam="2">  1       -2 0.14399175E+00 0.42156552E+04</pdfrwt>
<totfact> 0.17468327E-02</totfact>
</mgrwt>
</event>
<event>
 6    1  0.1568961E-005  0.8633217E+03  0.7818608E-02  0.9472629E-01
          1   -1    0    0  501    0  0.00000000000E+00  0.00000000000E+00  0.10640501858E+04  0.10640501858E+04  0.00000000000E+00 0. -1.
         -1   -1    0    0    0  501 -0.00000000000E+00 -0.00000000000E+00 -0.17511494202E+03  0.17511494202E+03  0.00000000000E+00 0.  1.
         23    2    1    2    0    0  0.32313286252E+03  0.13547444312E+03  0.79904426125E+03  0.87743517285E+03  0.93019242892E+02 0.  0.
         13    1    3    3    0    0  0.16122000485E+03  0.84618851117E+02  0.30685603592E+03  0.35680928618E+03  0.00000000000E+00 0.  1.
        -13    1    3    3    0    0  0.16191285767E+03  0.50855592006E+02  0.49218822533E+03  0.52062588667E+03  0.00000000000E+00 0. -1.
         22    1    1    2    0    0 -0.32313286252E+03 -0.13547444312E+03  0.89890982537E+02  0.36172995496E+03  0.00000000000E+00 0.  1.
<mgrwt>
<rscale>  0 0.86332169E+03</rscale>
<asrwt>0</asrwt>
<pdfrwt beam="1">  1        1 0.16370002E+00 0.86332169E+03</pdfrwt>
<pdfrwt beam="2">  1       -1 0.26940761E-01 0.86332169E+03</pdfrwt>
<totfact> 0.16750517E+02</totfact>
</mgrwt>
</event>
<event>
 6    1  0.1568961E-005  0.1740258E+04  0.7818608E-02  0.8738731E-01
          2   -1    0    0  501    0  0.00000000000E+00  0.00000000000E+00  0.20022878071E+04  0.20022878071E+04  0.00000000000E+00 0.  1.
         -2   -1    0    0    0  501 -0.00000000000E+00 -0.00000000000E+00 -0.37812967184E+03  0.37812967184E+03  0.00000000000E+00 0. -1.
         23    2    1    2    0    0  0.51977090332E+03 -0.36167616072E+03  0.16260389775E+04  0.17471916308E+04  0.87774717655E+02 0.  0.
         13    1    3    3    0    0  0.35736649598E+03 -0.20636148539E+03  0.98716712740E+03  0.10699508458E+04  0.00000000000E+00 0. -1.
        -13    1    3    3    0    0  0.16240440733E+03 -0.15531467534E+03  0.63887185012E+03  0.67724078493E+03  0.00000000000E+00 0.  1.
         22    1    1    2    0    0 -0.51977090332E+03  0.36167616072E+03 -0.18808422925E+01  0.63322584813E+03  0.00000000000E+00 0. -1.
<mgrwt>
<rscale>  0 0.17402579E+04</rscale>
<asrwt>0</asrwt>
<pdfrwt beam="1">  1        2 0.30804427E+00 0.17402579E+04</pdfrwt>
<pdfrwt beam="2">  1       -2 0.58173797E-01 0.17402579E+04</pdfrwt>
<totfact> 0.17469890E+01</totfact>
</mgrwt>
</event>
<event>
 6    1  0.1568961E-005  0.4054153E+04  0.7818608E-02  0.7993710E-01
         -1   -1    0    0    0  501 -0.00000000000E+00  0.00000000000E+00  0.15440390410E+04  0.15440390410E+04  0.00000000000E+00 0.  1.
          1   -1    0    0  501    0  0.00000000000E+00 -0.00000000000E+00 -0.26612269883E+04  0.26612269883E+04  0.00000000000E+00 0. -1.
         23    2    1    2    0    0  0.37718906732E+03  0.15275134538E+04 -0.18829155721E+04  0.24554352548E+04  0.90676870691E+02 0.  0.
         11    1    3    3    0    0  0.74713548961E+02  0.34390386959E+03 -0.36586793584E+03  0.50765276754E+03  0.00000000000E+00 0.  1.
        -11    1    3    3    0    0  0.30247551836E+03  0.11836095842E+04 -0.15170476363E+04  0.19477824873E+04  0.00000000000E+00 0. -1.
         22    1    1    2    0    0 -0.37718906732E+03 -0.15275134538E+04  0.76572762475E+03  0.17498307745E+04  0.00000000000E+00 0.  1.
<mgrwt>
<rscale>  0 0.40541526E+04</rscale>
<asrwt>0</asrwt>
<pdfrwt beam="1">  1        1 0.40941953E+00 0.40541526E+04</pdfrwt>
<pdfrwt beam="2">  1       -1 0.23754447E+00 0.40541526E+04</pdfrwt>
<totfact> 0.68522337E-02</totfact>
</mgrwt>
</event>
<event>
 6    1  0.1568961E-005  0.2037020E+04  0.7818608E-02  0.8589506E-01
          2   -1    0    0  501    0  0.00000000000E+00  0.00000000000E+00  0.98910446347E+03  0.98910446347E+03  0.00000000000E+00 0. -1.
         -2   -1    0    0    0  501 -0.00000000000E+00 -0.00000000000E+00 -0.10487894442E+04  0.10487894442E+04  0.00000000000E+00 0.  1.
         23    2    1    2    0    0 -0.58247719971E+02 -0.51339136407E+03  0.84569524925E+03  0.99545597167E+03  0.93641055887E+02 0.  0.
         11    1    3    3    0    0  0.16051211592E+02 -0.24005550932E+03  0.35427718830E+03  0.42824831009E+03  0.00000000000E+00 0. -1.
        -11    1    3    3    0    0 -0.74298931563E+02 -0.27333585474E+03  0.49141806095E+03  0.56720766157E+03  0.00000000000E+00 0.  1.
         22    1    1    2    0    0  0.58247719971E+02  0.51339136407E+03 -0.90538023001E+03  0.10424379360E+04  0.00000000000E+00 0.  1.
<mgrwt>
<rscale>  0 0.20370197E+04</rscale>
<asrwt>0</asrwt>
<pdfrwt beam="1">  1        2 0.15216992E+00 0.20370197E+04</pdfrwt>
<pdfrwt beam="2">  1       -2 0.16135222E+00 0.20370197E+04</pdfrwt>
<totfact> 0.58362854E+00</totfact>
</mgrwt>
</event>
<event>
 6    1  0.1568961E-005  0.4235767E+04  0.7818608E-02  0.7958603E-01
          2   -1    0    0  501    0  0.00000000000E+00  0.00000000000E+00  0.92753795341E+03  0.92753795341E+03  0.00000000000E+00 0. -1.
         -2   -1    0    0    0  501 -0.00000000000E+00 -0.00000000000E+00 -0.48358463729E+04  0.48358463729E+04  0.00000000000E+00 0.  1.
         23    2    1    2    0    0 -0.13744138923E+04 -0.88745954649E+03 -0.37829413469E+04  0.41225568226E+04  0.90727764103E+02 0.  0.
         13    1    3    3    0    0 -0.53515849018E+03 -0.38445185292E+03 -0.15988596759E+04  0.17293207048E+04  0.00000000000E+00 0.  1.
        -13    1    3    3    0    0 -0.83925540216E+03 -0.50300769357E+03 -0.21840816711E+04  0.23932361178E+04  0.00000000000E+00 0. -1.
         22    1    1    2    0    0  0.13744138923E+04  0.88745954649E+03 -0.12536707259E+03  0.16408275037E+04  0.00000000000E+00 0. -1.
<mgrwt>
<rscale>  0 0.42357672E+04</rscale>
<asrwt>0</asrwt>
<pdfrwt beam="1">  1        2 0.14269815E+00 0.42357672E+04</pdfrwt>
<pdfrwt beam="2">  1       -2 0.74397637E+00 0.42357672E+04</pdfrwt>
<totfact> 0.33214369E-03</totfact>
</mgrwt>
</event>
<event>
 6    1  0.1568961E-005  0.9260753E+03  0.7818608E-02  0.9393560E-01
         -4   -1    0    0    0  501 -0.00000000000E+00  0.00000000000E+00  0.62651862996E+03  0.62651862996E+03  0.00000000000E+00 0.  1.
          4   -1    0    0  501    0  0.00000000000E+00 -0.00000000000E+00 -0.34221465801E+03  0.34221465801E+03  0.00000000000E+00 0. -1.
         23    2    1    2    0    0  0.38894176660E+03 -0.60790437926E+02  0.38910471669E+03  0.56135831177E+03  0.93538753965E+02 0.  0.
         11    1    3    3    0    0  0.24390448526E+03  0.32530140439E+01  0.20713901403E+03  0.32001023603E+03  0.00000000000E+00 0. -1.
        -11    1    3    3    0    0  0.14503728133E+03 -0.64043451970E+02  0.18196570266E+03  0.24134807573E+03  0.00000000000E+00 0.  1.
         22    1    1    2    0    0 -0.38894176660E+03  0.60790437926E+02 -0.10480074474E+03  0.40737497621E+03  0.00000000000E+00 0. -1.
<mgrwt>
<rscale>  0 0.92607529E+03</rscale>
<asrwt>0</asrwt>
<pdfrwt beam="1">  1        4 0.52648409E-01 0.92607529E+03</pdfrwt>
<pdfrwt beam="2">  1       -4 0.96387482E-01 0.92607529E+03</pdfrwt>
<totfact> 0.62016693E+00</totfact>
</mgrwt>
</event>
<event>
 6    1  0.1568961E-005  0.2506681E+04  0.7818608E-02  0.8400609E-01
          2   -1    0    0  501    0  0.00000000000E+00  0.00000000000E+00  0.18469509039E+04  0.18469509039E+04  0.00000000000E+00 0. -1.
         -2   -1    0    0    0  501 -0.00000000000E+00 -0.00000000000E+00 -0.85051649453E+03  0.85051649453E+03  0.00000000000E+00 0.  1.
         23    2    1    2    0    0 -0.39415179062E+03  0.47016513663E+03  0.16729824816E+04  0.17841612155E+04  0.89162600824E+02 0.  0.
         11    1    3    3    0    0 -0.19785046601E+03  0.30385052341E+03  0.96298727355E+03  0.10289870925E+04  0.00000000000E+00 0. -1.
        -11    1    3    3    0    0 -0.19630132461E+03  0.16631461323E+03  0.70999520802E+03  0.75517412299E+03  0.00000000000E+00 0.  1.
         22    1    1    2    0    0  0.39415179062E+03 -0.47016513663E+03 -0.67654807222E+03  0.91330618293E+03  0.00000000000E+00 0.  1.
<mgrwt>
<rscale>  0 0.25066808E+04</rscale>
<asrwt>0</asrwt>
<pdfrwt beam="1">  1        2 0.28414629E+00 0.25066808E+04</pdfrwt>
<pdfrwt beam="2">  1       -2 0.13084869E+00 0.25066808E+04</pdfrwt>
<totfact> 0.30946914E+00</totfact>
</mgrwt>
</event>
<event>
 6    1  0.1568961E-005  0.2965374E+04  0.7818608E-02  0.8253688E-01
          2   -1    0    0  501    0  0.00000000000E+00  0.00000000000E+00  0.22151728750E+04  0.22151728750E+04  0.00000000000E+00 0. -1.
         -2   -1    0    0    0  501 -0.00000000000E+00 -0.00000000000E+00 -0.99241022012E+03  0.99241022012E+03  0.00000000000E+00 0.  1.
         23    2    1    2    0    0 -0.24035515785E+03 -0.89025345005E+03 -0.64150885148E+03  0.11277201052E+04  0.99484782769E+02 0.  0.
         11    1    3    3    0    0 -0.23309078759E+03 -0.85024097338E+03 -0.58480198325E+03  0.10579387448E+04  0.00000000000E+00 0. -1.
        -11    1    3    3    0    0 -0.72643702537E+01 -0.40012476675E+02 -0.56706868228E+02  0.69781360471E+02  0.00000000000E+00 0.  1.
         22    1    1    2    0    0  0.24035515785E+03  0.89025345005E+03  0.18642715064E+04  0.20798629899E+04  0.00000000000E+00 0. -1.
<mgrwt>
<rscale>  0 0.29653736E+04</rscale>
<asrwt>0</asrwt>
<pdfrwt beam="1">  1        2 0.34079583E+00 0.29653736E+04</pdfrwt>
<pdfrwt beam="2">  1       -2 0.15267850E+00 0.29653736E+04</pdfrwt>
<totfact> 0.12423369E+00</totfact>
</mgrwt>
</event>
<event>
 6    1  0.1568961E-005  0.4069031E+04  0.7818608E-02  0.7990764E-01
         -2   -1    0    0    0  501 -0.00000000000E+00  0.00000000000E+00  0.11338124677E+04  0.11338124677E+04  0.00000000000E+00 0.  1.
          2   -1    0    0  501    0  0.00000000000E+00 -0.00000000000E+00 -0.36507395509E+04  0.36507395509E+04  0.00000000000E+00 0. -1.
         23    2    1    2    0    0 -0.18583839979E+04  0.81601840288E+03 -0.11119796037E+04  0.23160799127E+04  0.90831743037E+02 0.  0.
         11    1    3    3    0    0 -0.98869483396E+03  0.43196245277E+03 -0.64266482609E+03  0.12558372164E+04  0.00000000000E+00 0.  1.
        -11    1    3    3    0    0 -0.86968916394E+03  0.38405595011E+03 -0.46931477762E+03  0.10602426964E+04  0.00000000000E+00 0. -1.
         22    1    1    2    0    0  0.18583839979E+04 -0.81601840288E+03 -0.14049474794E+04  0.24684721059E+04  0.00000000000E+00 0. -1.
<mgrwt>
<rscale>  0 0.40690313E+04</rscale>
<asrwt>0</asrwt>
<pdfrwt beam="1">  1        2 0.56165223E+00 0.40690313E+04</pdfrwt>
<pdfrwt beam="2">  1       -2 0.17443269E+00 0.40690313E+04</pdfrwt>
<totfact> 0.98456273E-02</totfact>
</mgrwt>
</event>
<event>
 6    1  0.1632817E-005  0.2731040E+04  0.7818608E-02  0.8325003E-01
         -2   -1    0    0    0  501 -0.00000000000E+00  0.00000000000E+00  0.16140344518E+04  0.16140344518E+04  0.00000000000E+00 0.  1.
          2   -1    0    0  501    0  0.00000000000E+00 -0.00000000000E+00 -0.11552696527E+04  0.11552696527E+04  0.00000000000E+00 0. -1.
         23    2    1    2    0    0  0.64104962467E+03 -0.95323802326E+02 -0.98736650382E+03  0.11845874125E+04  0.91233088885E+02 0.  0.
         11    1    3    3    0    0  0.19514093617E+03 -0.69867748576E+02 -0.33653166072E+03  0.39524049126E+03  0.00000000000E+00 0. -1.
        -11    1    3    3    0    0  0.44590868850E+03 -0.25456053749E+02 -0.65083484309E+03  0.78934692128E+03  0.00000000000E+00 0.  1.
         22    1    1    2    0    0 -0.64104962467E+03  0.95323802326E+02  0.14461313029E+04  0.15847166920E+04  0.00000000000E+00 0.  1.
<mgrwt>
<rscale>  0 0.27310401E+04</rscale>
<asrwt>0</asrwt>
<pdfrwt beam="1">  1        2 0.17773379E+00 0.27310401E+04</pdfrwt>
<pdfrwt beam="2">  1       -2 0.24831299E+00 0.27310401E+04</pdfrwt>
<totfact> 0.11607034E+00</totfact>
</mgrwt>
</event>
<event>
 6    1  0.1568961E-005  0.6277777E+03  0.7818608E-02  0.9849395E-01
         -2   -1    0    0    0  501 -0.00000000000E+00  0.00000000000E+00  0.54930405999E+02  0.54930405999E+02  0.00000000000E+00 0.  1.
          2   -1    0    0  501    0  0.00000000000E+00 -0.00000000000E+00 -0.17936551269E+04  0.17936551269E+04  0.00000000000E+00 0. -1.
         23    2    1    2    0    0  0.48957359205E+02 -0.24177364771E+03 -0.14280658852E+04  0.14518989665E+04  0.88244641753E+02 0.  0.
         13    1    3    3    0    0 -0.13602260858E+02 -0.43194115120E+02 -0.42809995147E+03  0.43048846852E+03  0.00000000000E+00 0. -1.
        -13    1    3    3    0    0  0.62559620063E+02 -0.19857953259E+03 -0.99996593370E+03  0.10214104980E+04  0.00000000000E+00 0.  1.
         22    1    1    2    0    0 -0.48957359205E+02  0.24177364771E+03 -0.31065883575E+03  0.39668656642E+03  0.00000000000E+00 0.  1.
<mgrwt>
<rscale>  0 0.62777768E+03</rscale>
<asrwt>0</asrwt>
<pdfrwt beam="1">  1        2 0.27594693E+00 0.62777768E+03</pdfrwt>
<pdfrwt beam="2">  1       -2 0.84508321E-02 0.62777768E+03</pdfrwt>
<totfact> 0.80399557E+02</totfact>
</mgrwt>
</event>
<event>
 6    1  0.1568961E-005  0.3508415E+04  0.7818608E-02  0.8111799E-01
          2   -1    0    0  501    0  0.00000000000E+00  0.00000000000E+00  0.27938286993E+04  0.27938286993E+04  0.00000000000E+00 0. -1.
         -2   -1    0    0    0  501 -0.00000000000E+00 -0.00000000000E+00 -0.11014430825E+04  0.11014430825E+04  0.00000000000E+00 0.  1.
         23    2    1    2    0    0 -0.11283337270E+04  0.11379327083E+04  0.57774302200E+02  0.16061710855E+04  0.91759673805E+02 0.  0.
         11    1    3    3    0    0 -0.26300519352E+03  0.31583395755E+03 -0.34904886773E+01  0.41101703623E+03  0.00000000000E+00 0.  1.
        -11    1    3    3    0    0 -0.86532853348E+03  0.82209875072E+03  0.61264790877E+02  0.11951540492E+04  0.00000000000E+00 0. -1.
         22    1    1    2    0    0  0.11283337270E+04 -0.11379327083E+04  0.16346113146E+04  0.22891006963E+04  0.00000000000E+00 0. -1.
<mgrwt>
<rscale>  0 0.35084146E+04</rscale>
<asrwt>0</asrwt>
<pdfrwt beam="1">  1        2 0.42981980E+00 0.35084146E+04</pdfrwt>
<pdfrwt beam="2">  1       -2 0.16945278E+00 0.35084146E+04</pdfrwt>
<totfact> 0.41171201E-01</totfact>
</mgrwt>
</event>
<event>
 6    1  0.1635969E-005  0.4191918E+04  0.7818608E-02  0.7966911E-01
          2   -1    0    0  501    0  0.00000000000E+00  0.00000000000E+00  0.26748425391E+04  0.26748425391E+04  0.00000000000E+00 0. -1.
         -2   -1    0    0    0  501 -0.00000000000E+00 -0.00000000000E+00 -0.16423561907E+04  0.16423561907E+04  0.00000000000E+00 0.  1.
         23    2    1    2    0    0 -0.98767037714E+03  0.40753988049E+03  0.23723600951E+04  0.26034767030E+04  0.91744180151E+02 0.  0.
         11    1    3    3    0    0 -0.24409287457E+03  0.12881640661E+03  0.54000363948E+03  0.60644779551E+03  0.00000000000E+00 0. -1.
        -11    1    3    3    0    0 -0.74357750258E+03  0.27872347388E+03  0.18323564556E+04  0.19970289075E+04  0.00000000000E+00 0.  1.
         22    1    1    2    0    0  0.98767037714E+03 -0.40753988049E+03 -0.13398737466E+04  0.17137220267E+04  0.00000000000E+00 0.  1.
<mgrwt>
<rscale>  0 0.41919180E+04</rscale>
<asrwt>0</asrwt>
<pdfrwt beam="1">  1        2 0.41151424E+00 0.41919180E+04</pdfrwt>
<pdfrwt beam="2">  1       -2 0.25267018E+00 0.41919180E+04</pdfrwt>
<totfact> 0.13209693E-01</totfact>
</mgrwt>
</event>
<event>
 6    1  0.1568961E-005  0.3521382E+03  0.7818608E-02  0.1061741E+00
         -1   -1    0    0    0  501 -0.00000000000E+00  0.00000000000E+00  0.31202197899E+02  0.31202197899E+02  0.00000000000E+00 0.  1.
          1   -1    0    0  501    0  0.00000000000E+00 -0.00000000000E+00 -0.99353034668E+03  0.99353034668E+03  0.00000000000E+00 0. -1.
         23    2    1    2    0    0  0.27380056547E+02  0.15573084687E+03 -0.39655507757E+03  0.43727962539E+03  0.94634967470E+02 0.  0.
         11    1    3    3    0    0  0.34311472665E+01  0.14194517087E+03 -0.24452856342E+03  0.28276213083E+03  0.00000000000E+00 0.  1.
        -11    1    3    3    0    0  0.23948909280E+02  0.13785676002E+02 -0.15202651416E+03  0.15451749456E+03  0.00000000000E+00 0. -1.
         22    1    1    2    0    0 -0.27380056547E+02 -0.15573084687E+03 -0.56577307121E+03  0.58745291920E+03  0.00000000000E+00 0. -1.
<mgrwt>
<rscale>  0 0.35213821E+03</rscale>
<asrwt>0</asrwt>
<pdfrwt beam="1">  1        1 0.15285083E+00 0.35213821E+03</pdfrwt>
<pdfrwt beam="2">  1       -1 0.48003380E-02 0.35213821E+03</pdfrwt>
<totfact> 0.30340531E+03</totfact>
</mgrwt>
</event>
<event>
 6    1  0.1568961E-005  0.1496314E+04  0.7818608E-02  0.8886908E-01
          2   -1    0    0  501    0  0.00000000000E+00  0.00000000000E+00  0.26426443984E+04  0.26426443984E+04  0.00000000000E+00 0. -1.
         -2   -1    0    0    0  501 -0.00000000000E+00 -0.00000000000E+00 -0.21181002513E+03  0.21181002513E+03  0.00000000000E+00 0.  1.
         23    2    1    2    0    0 -0.35261773349E+03  0.56536435973E+03  0.58159678558E+03  0.88883600152E+03  0.88309067328E+02 0.  0.
         13    1    3    3    0    0 -0.11397071563E+03  0.20859585666E+03  0.15562120094E+03  0.28411179775E+03  0.00000000000E+00 0.  1.
        -13    1    3    3    0    0 -0.23864701786E+03  0.35676850307E+03  0.42597558464E+03  0.60472420377E+03  0.00000000000E+00 0. -1.
         22    1    1    2    0    0  0.35261773349E+03 -0.56536435973E+03  0.18492375877E+04  0.19656184220E+04  0.00000000000E+00 0. -1.
<mgrwt>
<rscale>  0 0.14963136E+04</rscale>
<asrwt>0</asrwt>
<pdfrwt beam="1">  1        2 0.40656065E+00 0.14963136E+04</pdfrwt>
<pdfrwt beam="2">  1       -2 0.32586160E-01 0.14963136E+04</pdfrwt>
<totfact> 0.24460054E+01</totfact>
</mgrwt>
</event>
<event>
 6    1  0.1568961E-005  0.3336678E+04  0.7818608E-02  0.8153625E-01
          1   -1    0    0  501    0  0.00000000000E+00  0.00000000000E+00  0.11502069780E+04  0.11502069780E+04  0.00000000000E+00 0. -1.
         -1   -1    0    0    0  501 -0.00000000000E+00 -0.00000000000E+00 -0.24198731678E+04  0.24198731678E+04  0.00000000000E+00 0.  1.
         23    2    1    2    0    0 -0.12673244273E+03  0.14478113887E+04 -0.15086438939E+04  0.20972158369E+04  0.10044371010E+03 0.  0.
         13    1    3    3    0    0 -0.95537327514E+02  0.71713392729E+03 -0.80519817079E+03  0.10824751937E+04  0.00000000000E+00 0.  1.
        -13    1    3    3    0    0 -0.31195115217E+02  0.73067746138E+03 -0.70344572309E+03  0.10147406433E+04  0.00000000000E+00 0. -1.
         22    1    1    2    0    0  0.12673244273E+03 -0.14478113887E+04  0.23897770403E+03  0.14728643088E+04  0.00000000000E+00 0. -1.
<mgrwt>
<rscale>  0 0.33366780E+04</rscale>
<asrwt>0</asrwt>
<pdfrwt beam="1">  1        1 0.17695492E+00 0.33366780E+04</pdfrwt>
<pdfrwt beam="2">  1       -1 0.37228817E+00 0.33366780E+04</pdfrwt>
<totfact> 0.10600022E-01</totfact>
</mgrwt>
</event>
<event>
 6    1  0.1568961E-005  0.1689211E+04  0.7818608E-02  0.8767542E-01
         -1   -1    0    0    0  501 -0.00000000000E+00  0.00000000000E+00  0.80510021543E+03  0.80510021543E+03  0.00000000000E+00 0. -1.
          1   -1    0    0  501    0  0.00000000000E+00 -0.00000000000E+00 -0.88604885352E+03  0.88604885352E+03  0.00000000000E+00 0.  1.
         23    2    1    2    0    0 -0.31952630447E+03  0.46056884892E+03  0.58861610341E+03  0.81791504138E+03  0.91078943081E+02 0.  0.
         11    1    3    3    0    0 -0.25117508580E+03  0.28770362948E+03  0.38875153330E+03  0.54496794106E+03  0.00000000000E+00 0.  1.
        -11    1    3    3    0    0 -0.68351218680E+02  0.17286521944E+03  0.19986457011E+03  0.27294710032E+03  0.00000000000E+00 0. -1.
         22    1    1    2    0    0  0.31952630447E+03 -0.46056884892E+03 -0.66956474150E+03  0.87323402757E+03  0.00000000000E+00 0.  1.
<mgrwt>
<rscale>  0 0.16892106E+04</rscale>
<asrwt>0</asrwt>
<pdfrwt beam="1">  1        1 0.13631521E+00 0.16892106E+04</pdfrwt>
<pdfrwt beam="2">  1       -1 0.12386157E+00 0.16892106E+04</pdfrwt>
<totfact> 0.10191153E+01</totfact>
</mgrwt>
</event>
<event>
 6    1  0.1568961E-005  0.7958617E+03  0.7818608E-02  0.9566027E-01
         -2   -1    0    0    0  501 -0.00000000000E+00  0.00000000000E+00  0.47398002332E+03  0.47398002332E+03  0.00000000000E+00 0.  1.
          2   -1    0    0  501    0  0.00000000000E+00 -0.00000000000E+00 -0.33408360874E+03  0.33408360874E+03  0.00000000000E+00 0. -1.
         23    2    1    2    0    0 -0.34354891921E+03 -0.99591518136E+02 -0.94724027851E+02  0.38028906248E+03  0.87765592467E+02 0.  0.
         13    1    3    3    0    0 -0.90249224817E+02 -0.37957728033E+02 -0.65879672160E+02  0.11800780865E+03  0.00000000000E+00 0.  1.
        -13    1    3    3    0    0 -0.25329969439E+03 -0.61633790104E+02 -0.28844355690E+02  0.26228125384E+03  0.00000000000E+00 0. -1.
         22    1    1    2    0    0  0.34354891921E+03  0.99591518136E+02  0.23462044242E+03  0.42777456958E+03  0.00000000000E+00 0.  1.
<mgrwt>
<rscale>  0 0.79586169E+03</rscale>
<asrwt>0</asrwt>
<pdfrwt beam="1">  1        2 0.51397478E-01 0.79586169E+03</pdfrwt>
<pdfrwt beam="2">  1       -2 0.72920004E-01 0.79586169E+03</pdfrwt>
<totfact> 0.16673494E+02</totfact>
</mgrwt>
</event>
<event>
 6    1  0.1568961E-005  0.2401827E+04  0.7818608E-02  0.8438820E-01
         -1   -1    0    0    0  501 -0.00000000000E+00  0.00000000000E+00  0.91141254344E+03  0.91141254344E+03  0.00000000000E+00 0.  1.
          1   -1    0    0  501    0  0.00000000000E+00 -0.00000000000E+00 -0.15823715569E+04  0.15823715569E+04  0.00000000000E+00 0. -1.
         23    2    1    2    0    0  0.33554244811E+00 -0.38432524205E+03  0.84349250452E+03  0.93132789149E+03  0.90476693223E+02 0.  0.
         11    1    3    3    0    0  0.34926445666E+02 -0.94290230294E+02  0.17545440320E+03  0.20222450825E+03  0.00000000000E+00 0.  1.
        -11    1    3    3    0    0 -0.34590903218E+02 -0.29003501176E+03  0.66803810133E+03  0.72910338324E+03  0.00000000000E+00 0. -1.
         22    1    1    2    0    0 -0.33554244811E+00  0.38432524205E+03 -0.15144515180E+04  0.15624562089E+04  0.00000000000E+00 0. -1.
<mgrwt>
<rscale>  0 0.24018270E+04</rscale>
<asrwt>0</asrwt>
<pdfrwt beam="1">  1        1 0.24344178E+00 0.24018270E+04</pdfrwt>
<pdfrwt beam="2">  1       -1 0.14021731E+00 0.24018270E+04</pdfrwt>
<totfact> 0.21462717E+00</totfact>
</mgrwt>
</event>
<event>
 6    1  0.1568961E-005  0.7691519E+03  0.7818608E-02  0.9605774E-01
         -1   -1    0    0    0  501 -0.00000000000E+00  0.00000000000E+00  0.28510920071E+03  0.28510920071E+03  0.00000000000E+00 0.  1.
          1   -1    0    0  501    0  0.00000000000E+00 -0.00000000000E+00 -0.51874392941E+03  0.51874392941E+03  0.00000000000E+00 0. -1.
         23    2    1    2    0    0  0.14850253672E+03  0.28270918297E+03 -0.33638260778E+03  0.46839134065E+03  0.65266405070E+02 0.  0.
         13    1    3    3    0    0  0.32843318189E+02  0.25903932186E+02 -0.64833690081E+02  0.77156364753E+02  0.00000000000E+00 0.  1.
        -13    1    3    3    0    0  0.11565921853E+03  0.25680525078E+03 -0.27154891770E+03  0.39123497589E+03  0.00000000000E+00 0. -1.
         22    1    1    2    0    0 -0.14850253672E+03 -0.28270918297E+03  0.10274787908E+03  0.33546178948E+03  0.00000000000E+00 0.  1.
<mgrwt>
<rscale>  0 0.76915192E+03</rscale>
<asrwt>0</asrwt>
<pdfrwt beam="1">  1        1 0.79806758E-01 0.76915192E+03</pdfrwt>
<pdfrwt beam="2">  1       -1 0.43862954E-01 0.76915192E+03</pdfrwt>
<totfact> 0.21890495E+02</totfact>
</mgrwt>
</event>
<event>
 6    1  0.1568961E-005  0.2063296E+04  0.7818608E-02  0.8577587E-01
         -2   -1    0    0    0  501 -0.00000000000E+00  0.00000000000E+00  0.11248826949E+04  0.11248826949E+04  0.00000000000E+00 0.  1.
          2   -1    0    0  501    0  0.00000000000E+00 -0.00000000000E+00 -0.94614057255E+03  0.94614057255E+03  0.00000000000E+00 0. -1.
         23    2    1    2    0    0 -0.57881672460E+03 -0.37174626385E+03  0.85861731024E+03  0.11038343735E+04  0.89456991120E+02 0.  0.
         11    1    3    3    0    0 -0.35899280928E+03 -0.19017330546E+03  0.45946849372E+03  0.61331314998E+03  0.00000000000E+00 0.  1.
        -11    1    3    3    0    0 -0.21982391532E+03 -0.18157295839E+03  0.39914881652E+03  0.49052122349E+03  0.00000000000E+00 0. -1.
         22    1    1    2    0    0  0.57881672460E+03  0.37174626385E+03 -0.67987518794E+03  0.96718889393E+03  0.00000000000E+00 0. -1.
<mgrwt>
<rscale>  0 0.20632956E+04</rscale>
<asrwt>0</asrwt>
<pdfrwt beam="1">  1        2 0.14556009E+00 0.20632956E+04</pdfrwt>
<pdfrwt beam="2">  1       -2 0.17305888E+00 0.20632956E+04</pdfrwt>
<totfact> 0.51168395E+00</totfact>
</mgrwt>
</event>
<event>
 6    1  0.1568961E-005  0.4254543E+03  0.7818608E-02  0.1035306E+00
          1   -1    0    0  501    0  0.00000000000E+00  0.00000000000E+00  0.20579590383E+03  0.20579590383E+03  0.00000000000E+00 0. -1.
         -1   -1    0    0    0  501 -0.00000000000E+00 -0.00000000000E+00 -0.21989188834E+03  0.21989188834E+03  0.00000000000E+00 0.  1.
         23    2    1    2    0    0 -0.80348089068E+01  0.17187637580E+03 -0.11466193266E+03  0.22639013378E+03  0.92190493867E+02 0.  0.
         13    1    3    3    0    0  0.34433701284E+02  0.47414946434E+02 -0.12635028953E+02  0.59945816252E+02  0.00000000000E+00 0. -1.
        -13    1    3    3    0    0 -0.42468510190E+02  0.12446142937E+03 -0.10202690371E+03  0.16644431753E+03  0.00000000000E+00 0.  1.
         22    1    1    2    0    0  0.80348089068E+01 -0.17187637580E+03  0.10056594814E+03  0.19929765839E+03  0.00000000000E+00 0. -1.
<mgrwt>
<rscale>  0 0.42545434E+03</rscale>
<asrwt>0</asrwt>
<pdfrwt beam="1">  1        1 0.31660908E-01 0.42545434E+03</pdfrwt>
<pdfrwt beam="2">  1       -1 0.33829521E-01 0.42545434E+03</pdfrwt>
<totfact> 0.11794824E+03</totfact>
</mgrwt>
</event>
<event>
 6    1  0.1568961E-005  0.1323396E+04  0.7818608E-02  0.9011215E-01
         -1   -1    0    0    0  501 -0.00000000000E+00  0.00000000000E+00  0.73336940681E+03  0.73336940681E+03  0.00000000000E+00 0.  1.
          1   -1    0    0  501    0  0.00000000000E+00 -0.00000000000E+00 -0.59703121710E+03  0.59703121710E+03  0.00000000000E+00 0. -1.
         23    2    1    2    0    0 -0.24329370437E+03  0.36759205361E+03 -0.42336503756E+03  0.61795171550E+03  0.91162619545E+02 0.  0.
         11    1    3    3    0    0 -0.56130226287E+02  0.16179970824E+03 -0.17830251769E+03  0.24722770011E+03  0.00000000000E+00 0. -1.
        -11    1    3    3    0    0 -0.18716347808E+03  0.20579234538E+03 -0.24506251987E+03  0.37072401539E+03  0.00000000000E+00 0.  1.
         22    1    1    2    0    0  0.24329370437E+03 -0.36759205361E+03  0.55970322728E+03  0.71244890840E+03  0.00000000000E+00 0.  1.
<mgrwt>
<rscale>  0 0.13233963E+04</rscale>
<asrwt>0</asrwt>
<pdfrwt beam="1">  1        1 0.91850957E-01 0.13233963E+04</pdfrwt>
<pdfrwt beam="2">  1       -1 0.11282606E+00 0.13233963E+04</pdfrwt>
<totfact> 0.24320184E+01</totfact>
</mgrwt>
</event>
<event>
 6    1  0.1568961E-005  0.1097263E+04  0.7818608E-02  0.9207864E-01
         -2   -1    0    0    0  501 -0.00000000000E+00  0.00000000000E+00  0.23012974108E+03  0.23012974108E+03  0.00000000000E+00 0.  1.
          2   -1    0    0  501    0  0.00000000000E+00 -0.00000000000E+00 -0.13079421672E+04  0.13079421672E+04  0.00000000000E+00 0. -1.
         23    2    1    2    0    0 -0.77646255115E+02  0.42401620604E+03 -0.10092306763E+04  0.11015834888E+04  0.95503617107E+02 0.  0.
         13    1    3    3    0    0 -0.11712932972E+02  0.68477714378E+02 -0.26794992378E+03  0.27680959488E+03  0.00000000000E+00 0.  1.
        -13    1    3    3    0    0 -0.65933322142E+02  0.35553849166E+03 -0.74128075255E+03  0.82477389394E+03  0.00000000000E+00 0. -1.
         22    1    1    2    0    0  0.77646255115E+02 -0.42401620604E+03 -0.68581749785E+02  0.43648841946E+03  0.00000000000E+00 0.  1.
<mgrwt>
<rscale>  0 0.10972628E+04</rscale>
<asrwt>0</asrwt>
<pdfrwt beam="1">  1        2 0.20122188E+00 0.10972628E+04</pdfrwt>
<pdfrwt beam="2">  1       -2 0.35404575E-01 0.10972628E+04</pdfrwt>
<totfact> 0.12159676E+02</totfact>
</mgrwt>
</event>
<event>
 6    1  0.1861306E-005  0.3947157E+04  0.7818608E-02  0.8015292E-01
          1   -1    0    0  501    0  0.00000000000E+00  0.00000000000E+00  0.21061781789E+04  0.21061781789E+04  0.00000000000E+00 0. -1.
         -1   -1    0    0    0  501 -0.00000000000E+00 -0.00000000000E+00 -0.18493271183E+04  0.18493271183E+04  0.00000000000E+00 0.  1.
         23    2    1    2    0    0 -0.51751326404E+03  0.37056103463E+03 -0.17424909173E+04  0.18572908651E+04  0.90107169169E+02 0.  0.
         11    1    3    3    0    0 -0.33855468536E+03  0.19734320784E+03 -0.11341036601E+04  0.11998977992E+04  0.00000000000E+00 0.  1.
        -11    1    3    3    0    0 -0.17895857869E+03  0.17321782679E+03 -0.60838725716E+03  0.65739306589E+03  0.00000000000E+00 0. -1.
         22    1    1    2    0    0  0.51751326404E+03 -0.37056103463E+03  0.19993419779E+04  0.20982144322E+04  0.00000000000E+00 0. -1.
<mgrwt>
<rscale>  0 0.39471572E+04</rscale>
<asrwt>0</asrwt>
<pdfrwt beam="1">  1        1 0.32402741E+00 0.39471572E+04</pdfrwt>
<pdfrwt beam="2">  1       -1 0.28451187E+00 0.39471572E+04</pdfrwt>
<totfact> 0.82555790E-02</totfact>
</mgrwt>
</event>
<event>
 6    1  0.1568961E-005  0.6407061E+03  0.7818608E-02  0.9824377E-01
         -2   -1    0    0    0  501 -0.00000000000E+00  0.00000000000E+00  0.11056351124E+03  0.11056351124E+03  0.00000000000E+00 0.  1.
          2   -1    0    0  501    0  0.00000000000E+00 -0.00000000000E+00 -0.92820915581E+03  0.92820915581E+03  0.00000000000E+00 0. -1.
         23    2    1    2    0    0  0.20031634152E+03 -0.40633554519E+02 -0.28058949767E+02  0.22315947991E+03  0.85059546085E+02 0.  0.
         11    1    3    3    0    0  0.68057203784E+02 -0.43117924169E+02  0.18963416582E+02  0.82768046612E+02  0.00000000000E+00 0.  1.
        -11    1    3    3    0    0  0.13225913774E+03  0.24843696500E+01 -0.47022366348E+02  0.14039143330E+03  0.00000000000E+00 0. -1.
         22    1    1    2    0    0 -0.20031634152E+03  0.40633554519E+02 -0.78958669480E+03  0.81561318714E+03  0.00000000000E+00 0. -1.
<mgrwt>
<rscale>  0 0.64070606E+03</rscale>
<asrwt>0</asrwt>
<pdfrwt beam="1">  1        2 0.14280141E+00 0.64070606E+03</pdfrwt>
<pdfrwt beam="2">  1       -2 0.17009771E-01 0.64070606E+03</pdfrwt>
<totfact> 0.79903238E+02</totfact>
</mgrwt>
</event>
<event>
 6    1  0.1568961E-005  0.2205479E+04  0.7818608E-02  0.8516151E-01
          2   -1    0    0  501    0  0.00000000000E+00  0.00000000000E+00  0.14866096399E+04  0.14866096399E+04  0.00000000000E+00 0. -1.
         -2   -1    0    0    0  501 -0.00000000000E+00 -0.00000000000E+00 -0.81799138324E+03  0.81799138324E+03  0.00000000000E+00 0.  1.
         23    2    1    2    0    0  0.83095639148E+03 -0.57811945117E+02 -0.41688848082E+03  0.93633364334E+03  0.95362155365E+02 0.  0.
         11    1    3    3    0    0  0.61630375263E+03 -0.68107879394E+02 -0.34590958277E+03  0.71001580137E+03  0.00000000000E+00 0. -1.
        -11    1    3    3    0    0  0.21465263884E+03  0.10295934277E+02 -0.70978898054E+02  0.22631784197E+03  0.00000000000E+00 0.  1.
         22    1    1    2    0    0 -0.83095639148E+03  0.57811945117E+02  0.10855067375E+04  0.13682673798E+04  0.00000000000E+00 0. -1.
<mgrwt>
<rscale>  0 0.22054785E+04</rscale>
<asrwt>0</asrwt>
<pdfrwt beam="1">  1        2 0.22870918E+00 0.22054785E+04</pdfrwt>
<pdfrwt beam="2">  1       -2 0.12584483E+00 0.22054785E+04</pdfrwt>
<totfact> 0.55645629E+00</totfact>
</mgrwt>
</event>
<event>
 6    1  0.1568961E-005  0.1298405E+04  0.7818608E-02  0.9030831E-01
         -2   -1    0    0    0  501 -0.00000000000E+00  0.00000000000E+00  0.44194460522E+03  0.44194460522E+03  0.00000000000E+00 0.  1.
          2   -1    0    0  501    0  0.00000000000E+00 -0.00000000000E+00 -0.95365796462E+03  0.95365796462E+03  0.00000000000E+00 0. -1.
         23    2    1    2    0    0 -0.55879406002E+02  0.58647704337E+03 -0.54193582597E+03  0.80569475679E+03  0.91497383694E+02 0.  0.
         11    1    3    3    0    0 -0.46393679588E+01  0.45110652712E+03 -0.39878871241E+03  0.60212213021E+03  0.00000000000E+00 0. -1.
        -11    1    3    3    0    0 -0.51240038043E+02  0.13537051625E+03 -0.14314711356E+03  0.20357262657E+03  0.00000000000E+00 0.  1.
         22    1    1    2    0    0  0.55879406002E+02 -0.58647704337E+03  0.30222466571E+02  0.58990781306E+03  0.00000000000E+00 0.  1.
<mgrwt>
<rscale>  0 0.12984052E+04</rscale>
<asrwt>0</asrwt>
<pdfrwt beam="1">  1        2 0.14671661E+00 0.12984052E+04</pdfrwt>
<pdfrwt beam="2">  1       -2 0.67991478E-01 0.12984052E+04</pdfrwt>
<totfact> 0.52438163E+01</totfact>
</mgrwt>
</event>
<event>
 6    1  0.1568961E-005  0.3492949E+04  0.7818608E-02  0.8115463E-01
          1   -1    0    0  501    0  0.00000000000E+00  0.00000000000E+00  0.17819397927E+04  0.17819397927E+04  0.00000000000E+00 0. -1.
         -1   -1    0    0    0  501 -0.00000000000E+00 -0.00000000000E+00 -0.17117153715E+04  0.17117153715E+04  0.00000000000E+00 0.  1.
         23    2    1    2    0    0  0.49312753358E+03 -0.62125514685E+03  0.15900693233E+04  0.17792861116E+04  0.91683653022E+02 0.  0.
         13    1    3    3    0    0  0.83255977310E+02 -0.15262323502E+03  0.29702850354E+03  0.34416760676E+03  0.00000000000E+00 0.  1.
        -13    1    3    3    0    0  0.40987155627E+03 -0.46863191183E+03  0.12930408197E+04  0.14351185048E+04  0.00000000000E+00 0. -1.
         22    1    1    2    0    0 -0.49312753358E+03  0.62125514685E+03 -0.15198449021E+04  0.17143690525E+04  0.00000000000E+00 0.  1.
<mgrwt>
<rscale>  0 0.34929493E+04</rscale>
<asrwt>0</asrwt>
<pdfrwt beam="1">  1        1 0.27414458E+00 0.34929493E+04</pdfrwt>
<pdfrwt beam="2">  1       -1 0.26334083E+00 0.34929493E+04</pdfrwt>
<totfact> 0.19527060E-01</totfact>
</mgrwt>
</event>
<event>
 6    1  0.1568961E-005  0.1223221E+04  0.7818608E-02  0.9092770E-01
          1   -1    0    0  501    0  0.00000000000E+00  0.00000000000E+00  0.34466531936E+03  0.34466531936E+03  0.00000000000E+00 0. -1.
         -1   -1    0    0    0  501 -0.00000000000E+00 -0.00000000000E+00 -0.10853065094E+04  0.10853065094E+04  0.00000000000E+00 0.  1.
         23    2    1    2    0    0 -0.60319114718E+03 -0.18476755318E+02 -0.28913184020E+03  0.67628645441E+03  0.97904018675E+02 0.  0.
         13    1    3    3    0    0 -0.44892187151E+03  0.14559973484E+02 -0.24872702033E+03  0.51342766792E+03  0.00000000000E+00 0. -1.
        -13    1    3    3    0    0 -0.15426927568E+03 -0.33036728802E+02 -0.40404819872E+02  0.16285878649E+03  0.00000000000E+00 0.  1.
         22    1    1    2    0    0  0.60319114718E+03  0.18476755318E+02 -0.45150934983E+03  0.75368537435E+03  0.00000000000E+00 0. -1.
<mgrwt>
<rscale>  0 0.12232212E+04</rscale>
<asrwt>0</asrwt>
<pdfrwt beam="1">  1        1 0.53025434E-01 0.12232212E+04</pdfrwt>
<pdfrwt beam="2">  1       -1 0.16697023E+00 0.12232212E+04</pdfrwt>
<totfact> 0.18708778E+01</totfact>
</mgrwt>
</event>
<event>
 6    1  0.1568961E-005  0.1529647E+04  0.7818608E-02  0.8864974E-01
         -1   -1    0    0    0  501 -0.00000000000E+00  0.00000000000E+00  0.46953214239E+03  0.46953214239E+03  0.00000000000E+00 0.  1.
          1   -1    0    0  501    0  0.00000000000E+00 -0.00000000000E+00 -0.12458252316E+04  0.12458252316E+04  0.00000000000E+00 0. -1.
         23    2    1    2    0    0  0.83814299962E+02  0.42630717983E+03 -0.10916276086E+04  0.11785161428E+04  0.92123907536E+02 0.  0.
         13    1    3    3    0    0  0.58895667834E+01  0.60584575520E+02 -0.25435403183E+03  0.26153613764E+03  0.00000000000E+00 0. -1.
        -13    1    3    3    0    0  0.77924733178E+02  0.36572260431E+03 -0.83727357682E+03  0.91698000512E+03  0.00000000000E+00 0.  1.
         22    1    1    2    0    0 -0.83814299962E+02 -0.42630717983E+03  0.31533451941E+03  0.53684123126E+03  0.00000000000E+00 0.  1.
<mgrwt>
<rscale>  0 0.15296470E+04</rscale>
<asrwt>0</asrwt>
<pdfrwt beam="1">  1        1 0.19166542E+00 0.15296470E+04</pdfrwt>
<pdfrwt beam="2">  1       -1 0.72235714E-01 0.15296470E+04</pdfrwt>
<totfact> 0.18464363E+01</totfact>
</mgrwt>
</event>
<event>
 6    1  0.1568961E-005  0.4041870E+04  0.7818608E-02  0.7996153E-01
         -2   -1    0    0    0  501 -0.00000000000E+00  0.00000000000E+00  0.21025531428E+04  0.21025531428E+04  0.00000000000E+00 0.  1.
          2   -1    0    0  501    0  0.00000000000E+00 -0.00000000000E+00 -0.19424856331E+04  0.19424856331E+04  0.00000000000E+00 0. -1.
         23    2    1    2    0    0 -0.10402436470E+04  0.32540703342E+03  0.17820274488E+04  0.20908763910E+04  0.90253373194E+02 0.  0.
         13    1    3    3    0    0 -0.69213680635E+03  0.17230852287E+03  0.11466575752E+04  0.13503951942E+04  0.00000000000E+00 0.  1.
        -13    1    3    3    0    0 -0.34810684068E+03  0.15309851055E+03  0.63536987361E+03  0.74048119676E+03  0.00000000000E+00 0. -1.
         22    1    1    2    0    0  0.10402436470E+04 -0.32540703342E+03 -0.16219599391E+04  0.19541623849E+04  0.00000000000E+00 0. -1.
<mgrwt>
<rscale>  0 0.40418705E+04</rscale>
<asrwt>0</asrwt>
<pdfrwt beam="1">  1        2 0.29884394E+00 0.40418705E+04</pdfrwt>
<pdfrwt beam="2">  1       -2 0.32346971E+00 0.40418705E+04</pdfrwt>
<totfact> 0.12885015E-01</totfact>
</mgrwt>
</event>
<event>
 6    1  0.1568961E-005  0.2461633E+04  0.7818608E-02  0.8416783E-01
          1   -1    0    0  501    0  0.00000000000E+00  0.00000000000E+00  0.20117968129E+04  0.20117968129E+04  0.00000000000E+00 0. -1.
         -1   -1    0    0    0  501 -0.00000000000E+00 -0.00000000000E+00 -0.75301329306E+03  0.75301329306E+03  0.00000000000E+00 0.  1.
         23    2    1    2    0    0 -0.29379742801E+03  0.10177555995E+04  0.13304181823E+04  0.17030780711E+04  0.91208483320E+02 0.  0.
         11    1    3    3    0    0 -0.25612898201E+03  0.81479430006E+03  0.11175095120E+04  0.14065273962E+04  0.00000000000E+00 0. -1.
        -11    1    3    3    0    0 -0.37668446002E+02  0.20296129942E+03  0.21290867027E+03  0.29655067487E+03  0.00000000000E+00 0.  1.
         22    1    1    2    0    0  0.29379742801E+03 -0.10177555995E+04 -0.71634662460E+02  0.10617320349E+04  0.00000000000E+00 0.  1.
<mgrwt>
<rscale>  0 0.24616334E+04</rscale>
<asrwt>0</asrwt>
<pdfrwt beam="1">  1        1 0.30950720E+00 0.24616334E+04</pdfrwt>
<pdfrwt beam="2">  1       -1 0.11584820E+00 0.24616334E+04</pdfrwt>
<totfact> 0.17582469E+00</totfact>
</mgrwt>
</event>
<event>
 6    1  0.1568961E-005  0.2166979E+04  0.7818608E-02  0.8532299E-01
         -1   -1    0    0    0  501 -0.00000000000E+00  0.00000000000E+00  0.12535707031E+04  0.12535707031E+04  0.00000000000E+00 0.  1.
          1   -1    0    0  501    0  0.00000000000E+00 -0.00000000000E+00 -0.93648463441E+03  0.93648463441E+03  0.00000000000E+00 0. -1.
         23    2    1    2    0    0 -0.52879551460E+03 -0.54074768299E+03  0.94023067545E+03  0.12100849533E+04  0.90769588287E+02 0.  0.
         11    1    3    3    0    0 -0.15950194542E+03 -0.17490628982E+03  0.23095751374E+03  0.33071808835E+03  0.00000000000E+00 0. -1.
        -11    1    3    3    0    0 -0.36929356919E+03 -0.36584139317E+03  0.70927316171E+03  0.87936686492E+03  0.00000000000E+00 0.  1.
         22    1    1    2    0    0  0.52879551460E+03  0.54074768299E+03 -0.62314460680E+03  0.97997038420E+03  0.00000000000E+00 0. -1.
<mgrwt>
<rscale>  0 0.21669792E+04</rscale>
<asrwt>0</asrwt>
<pdfrwt beam="1">  1        1 0.14407456E+00 0.21669792E+04</pdfrwt>
<pdfrwt beam="2">  1       -1 0.19285703E+00 0.21669792E+04</pdfrwt>
<totfact> 0.26218336E+00</totfact>
</mgrwt>
</event>
<event>
 6    1  0.1568961E-005  0.2484385E+04  0.7818608E-02  0.8408570E-01
          2   -1    0    0  501    0  0.00000000000E+00  0.00000000000E+00  0.38357614602E+04  0.38357614602E+04  0.00000000000E+00 0. -1.
         -2   -1    0    0    0  501 -0.00000000000E+00 -0.00000000000E+00 -0.40227779955E+03  0.40227779955E+03  0.00000000000E+00 0.  1.
         23    2    1    2    0    0  0.40212320425E+03  0.11732120701E+04  0.17643120711E+04  0.21585529222E+04  0.91782355265E+02 0.  0.
         13    1    3    3    0    0  0.15634791596E+03  0.50326751741E+03  0.82425704591E+03  0.97832639883E+03  0.00000000000E+00 0. -1.
        -13    1    3    3    0    0  0.24577528829E+03  0.66994455269E+03  0.94005502517E+03  0.11802265233E+04  0.00000000000E+00 0.  1.
         22    1    1    2    0    0 -0.40212320425E+03 -0.11732120701E+04  0.16691715896E+04  0.20794863376E+04  0.00000000000E+00 0.  1.
<mgrwt>
<rscale>  0 0.24843846E+04</rscale>
<asrwt>0</asrwt>
<pdfrwt beam="1">  1        2 0.59011712E+00 0.24843846E+04</pdfrwt>
<pdfrwt beam="2">  1       -2 0.61888895E-01 0.24843846E+04</pdfrwt>
<totfact> 0.10013789E+00</totfact>
</mgrwt>
</event>
<event>
 6    1  0.1568961E-005  0.2147106E+04  0.7818608E-02  0.8540772E-01
          2   -1    0    0  501    0  0.00000000000E+00  0.00000000000E+00  0.77006369293E+03  0.77006369293E+03  0.00000000000E+00 0. -1.
         -2   -1    0    0    0  501 -0.00000000000E+00 -0.00000000000E+00 -0.14966497324E+04  0.14966497324E+04  0.00000000000E+00 0.  1.
         23    2    1    2    0    0  0.60729934217E+03 -0.60226267964E+03  0.31774087381E+03  0.91684249517E+03  0.90044831936E+02 0.  0.
         11    1    3    3    0    0  0.40045488341E+03 -0.34326032346E+03  0.21783091327E+03  0.57065056741E+03  0.00000000000E+00 0.  1.
        -11    1    3    3    0    0  0.20684445876E+03 -0.25900235618E+03  0.99909960542E+02  0.34619192776E+03  0.00000000000E+00 0. -1.
         22    1    1    2    0    0 -0.60729934217E+03  0.60226267964E+03 -0.10443269132E+04  0.13498709301E+04  0.00000000000E+00 0.  1.
<mgrwt>
<rscale>  0 0.21471056E+04</rscale>
<asrwt>0</asrwt>
<pdfrwt beam="1">  1        2 0.11847134E+00 0.21471056E+04</pdfrwt>
<pdfrwt beam="2">  1       -2 0.23025381E+00 0.21471056E+04</pdfrwt>
<totfact> 0.28321309E+00</totfact>
</mgrwt>
</event>
<event>
 6    1  0.1568961E-005  0.1656088E+04  0.7818608E-02  0.8786813E-01
         -2   -1    0    0    0  501 -0.00000000000E+00  0.00000000000E+00  0.88476682649E+03  0.88476682649E+03  0.00000000000E+00 0.  1.
          2   -1    0    0  501    0  0.00000000000E+00 -0.00000000000E+00 -0.77495812089E+03  0.77495812089E+03  0.00000000000E+00 0. -1.
         23    2    1    2    0    0  0.63399280653E+03 -0.52551231106E+03  0.11342314474E+03  0.83624262701E+03  0.91251595446E+02 0.  0.
         11    1    3    3    0    0  0.31242216411E+03 -0.20808380913E+03  0.74705756391E+02  0.38273676370E+03  0.00000000000E+00 0. -1.
        -11    1    3    3    0    0  0.32157064242E+03 -0.31742850192E+03  0.38717388346E+02  0.45350586331E+03  0.00000000000E+00 0.  1.
         22    1    1    2    0    0 -0.63399280653E+03  0.52551231106E+03 -0.36144391394E+01  0.82348232037E+03  0.00000000000E+00 0.  1.
<mgrwt>
<rscale>  0 0.16560884E+04</rscale>
<asrwt>0</asrwt>
<pdfrwt beam="1">  1        2 0.11922433E+00 0.16560884E+04</pdfrwt>
<pdfrwt beam="2">  1       -2 0.13611797E+00 0.16560884E+04</pdfrwt>
<totfact> 0.13246959E+01</totfact>
</mgrwt>
</event>
<event>
 6    1  0.1568961E-005  0.4861687E+04  0.7818608E-02  0.7850205E-01
         -1   -1    0    0    0  501 -0.00000000000E+00  0.00000000000E+00  0.24799692850E+04  0.24799692850E+04  0.00000000000E+00 0.  1.
          1   -1    0    0  501    0  0.00000000000E+00 -0.00000000000E+00 -0.23826907255E+04  0.23826907255E+04  0.00000000000E+00 0. -1.
         23    2    1    2    0    0 -0.45615780225E+03 -0.95479831840E+03 -0.21392501100E+04  0.23884368477E+04  0.92302617516E+02 0.  0.
         11    1    3    3    0    0 -0.32658170486E+03 -0.64705354041E+03 -0.15517176108E+04  0.17126474938E+04  0.00000000000E+00 0. -1.
        -11    1    3    3    0    0 -0.12957609739E+03 -0.30774477799E+03 -0.58753249913E+03  0.67578935396E+03  0.00000000000E+00 0.  1.
         22    1    1    2    0    0  0.45615780225E+03  0.95479831840E+03  0.22365286695E+04  0.24742231627E+04  0.00000000000E+00 0.  1.
<mgrwt>
<rscale>  0 0.48616869E+04</rscale>
<asrwt>0</asrwt>
<pdfrwt beam="1">  1        1 0.36656780E+00 0.48616869E+04</pdfrwt>
<pdfrwt beam="2">  1       -1 0.38153374E+00 0.48616869E+04</pdfrwt>
<totfact> 0.11388029E-02</totfact>
</mgrwt>
</event>
<event>
 6    1  0.1568961E-005  0.4216073E+04  0.7818608E-02  0.7962322E-01
          1   -1    0    0  501    0  0.00000000000E+00  0.00000000000E+00  0.42357972677E+04  0.42357972677E+04  0.00000000000E+00 0. -1.
         -1   -1    0    0    0  501 -0.00000000000E+00 -0.00000000000E+00 -0.10491099112E+04  0.10491099112E+04  0.00000000000E+00 0.  1.
         23    2    1    2    0    0  0.13765856706E+04 -0.76675478149E+03  0.33475628340E+04  0.37009936956E+04  0.90974742185E+02 0.  0.
         13    1    3    3    0    0  0.12379964192E+04 -0.65717716828E+03  0.29626769047E+04  0.32774946844E+04  0.00000000000E+00 0.  1.
        -13    1    3    3    0    0  0.13858925141E+03 -0.10957761321E+03  0.38488592927E+03  0.42349901118E+03  0.00000000000E+00 0. -1.
         22    1    1    2    0    0 -0.13765856706E+04  0.76675478149E+03 -0.16087547742E+03  0.15839134834E+04  0.00000000000E+00 0.  1.
<mgrwt>
<rscale>  0 0.42160725E+04</rscale>
<asrwt>0</asrwt>
<pdfrwt beam="1">  1        1 0.65166111E+00 0.42160725E+04</pdfrwt>
<pdfrwt beam="2">  1       -1 0.16140153E+00 0.42160725E+04</pdfrwt>
<totfact> 0.12781024E-02</totfact>
</mgrwt>
</event>
<event>
 6    1  0.1736607E-005  0.3521860E+04  0.7818608E-02  0.8108629E-01
         -1   -1    0    0    0  501 -0.00000000000E+00  0.00000000000E+00  0.95730890118E+03  0.95730890118E+03  0.00000000000E+00 0.  1.
          1   -1    0    0  501    0  0.00000000000E+00 -0.00000000000E+00 -0.32391572983E+04  0.32391572983E+04  0.00000000000E+00 0. -1.
         23    2    1    2    0    0  0.11078287807E+04 -0.22690197253E+03  0.46488656025E+03  0.12260584769E+04  0.91273010060E+02 0.  0.
         11    1    3    3    0    0  0.37999771788E+03 -0.11257223392E+03  0.19209918581E+03  0.44042351281E+03  0.00000000000E+00 0.  1.
        -11    1    3    3    0    0  0.72783106281E+03 -0.11432973861E+03  0.27278737443E+03  0.78563496407E+03  0.00000000000E+00 0. -1.
         22    1    1    2    0    0 -0.11078287807E+04  0.22690197253E+03 -0.27467349573E+04  0.29704077226E+04  0.00000000000E+00 0. -1.
<mgrwt>
<rscale>  0 0.35218598E+04</rscale>
<asrwt>0</asrwt>
<pdfrwt beam="1">  1        1 0.49833190E+00 0.35218598E+04</pdfrwt>
<pdfrwt beam="2">  1       -1 0.14727829E+00 0.35218598E+04</pdfrwt>
<totfact> 0.11841313E-01</totfact>
</mgrwt>
</event>
<event>
 6    1  0.1568961E-005  0.7318531E+03  0.7818608E-02  0.9664258E-01
         -1   -1    0    0    0  501 -0.00000000000E+00  0.00000000000E+00  0.63151506819E+02  0.63151506819E+02  0.00000000000E+00 0.  1.
          1   -1    0    0  501    0  0.00000000000E+00 -0.00000000000E+00 -0.21203335264E+04  0.21203335264E+04  0.00000000000E+00 0. -1.
         23    2    1    2    0    0  0.92979383232E+02  0.34467192130E+03 -0.90356931872E+03  0.97589811601E+03  0.92172230389E+02 0.  0.
         13    1    3    3    0    0  0.87170116671E+01  0.20617733460E+03 -0.48906673835E+03  0.53082139572E+03  0.00000000000E+00 0. -1.
        -13    1    3    3    0    0  0.84262371565E+02  0.13849458670E+03 -0.41450258037E+03  0.44507672029E+03  0.00000000000E+00 0.  1.
         22    1    1    2    0    0 -0.92979383232E+02 -0.34467192130E+03 -0.11536127009E+04  0.12075869172E+04  0.00000000000E+00 0.  1.
<mgrwt>
<rscale>  0 0.73185315E+03</rscale>
<asrwt>0</asrwt>
<pdfrwt beam="1">  1        1 0.32620512E+00 0.73185315E+03</pdfrwt>
<pdfrwt beam="2">  1       -1 0.97156174E-02 0.73185315E+03</pdfrwt>
<totfact> 0.16859146E+02</totfact>
</mgrwt>
</event>
<event>
 6    1  0.1568961E-005  0.3771338E+04  0.7818608E-02  0.8052334E-01
          2   -1    0    0  501    0  0.00000000000E+00  0.00000000000E+00  0.25239008932E+04  0.25239008932E+04  0.00000000000E+00 0. -1.
         -2   -1    0    0    0  501 -0.00000000000E+00 -0.00000000000E+00 -0.14088300140E+04  0.14088300140E+04  0.00000000000E+00 0.  1.
         23    2    1    2    0    0 -0.39375317792E+03 -0.86101976784E+03  0.22570447807E+04  0.24493223331E+04  0.92369603396E+02 0.  0.
         11    1    3    3    0    0 -0.84378863359E+02 -0.13438174881E+03  0.45290765768E+03  0.47989956593E+03  0.00000000000E+00 0. -1.
        -11    1    3    3    0    0 -0.30937431457E+03 -0.72663801903E+03  0.18041371230E+04  0.19694227672E+04  0.00000000000E+00 0.  1.
         22    1    1    2    0    0  0.39375317792E+03  0.86101976784E+03 -0.11419739015E+04  0.14834085740E+04  0.00000000000E+00 0.  1.
<mgrwt>
<rscale>  0 0.37713379E+04</rscale>
<asrwt>0</asrwt>
<pdfrwt beam="1">  1        2 0.38829244E+00 0.37713379E+04</pdfrwt>
<pdfrwt beam="2">  1       -2 0.21674308E+00 0.37713379E+04</pdfrwt>
<totfact> 0.28087522E-01</totfact>
</mgrwt>
</event>
<event>
 6    1  0.1568961E-005  0.9870187E+03  0.7818608E-02  0.9322898E-01
         -2   -1    0    0    0  501 -0.00000000000E+00  0.00000000000E+00  0.21694516712E+03  0.21694516712E+03  0.00000000000E+00 0.  1.
          2   -1    0    0  501    0  0.00000000000E+00 -0.00000000000E+00 -0.11226406798E+04  0.11226406798E+04  0.00000000000E+00 0. -1.
         23    2    1    2    0    0  0.15298484509E+03  0.34405119155E+03 -0.88084167152E+03  0.96223548098E+03  0.90771610847E+02 0.  0.
         13    1    3    3    0    0  0.86733573493E+02  0.13613939231E+03 -0.28279045836E+03  0.32561801278E+03  0.00000000000E+00 0. -1.
        -13    1    3    3    0    0  0.66251271600E+02  0.20791179924E+03 -0.59805121316E+03  0.63661746820E+03  0.00000000000E+00 0.  1.
         22    1    1    2    0    0 -0.15298484509E+03 -0.34405119155E+03 -0.24853841132E+02  0.37735036591E+03  0.00000000000E+00 0.  1.
<mgrwt>
<rscale>  0 0.98701868E+03</rscale>
<asrwt>0</asrwt>
<pdfrwt beam="1">  1        2 0.17271395E+00 0.98701868E+03</pdfrwt>
<pdfrwt beam="2">  1       -2 0.33376179E-01 0.98701868E+03</pdfrwt>
<totfact> 0.17654660E+02</totfact>
</mgrwt>
</event>
<event>
 6    1  0.1568961E-005  0.3006881E+04  0.7818608E-02  0.8241769E-01
         -2   -1    0    0    0  501 -0.00000000000E+00  0.00000000000E+00  0.89926294713E+03  0.89926294713E+03  0.00000000000E+00 0.  1.
          2   -1    0    0  501    0  0.00000000000E+00 -0.00000000000E+00 -0.25135401446E+04  0.25135401446E+04  0.00000000000E+00 0. -1.
         23    2    1    2    0    0 -0.10921083268E+04  0.28087189244E+03 -0.19341327645E+04  0.22406694811E+04  0.90225025969E+02 0.  0.
         13    1    3    3    0    0 -0.13459625803E+03  0.46544448367E+01 -0.23439186980E+03  0.27032825446E+03  0.00000000000E+00 0. -1.
        -13    1    3    3    0    0 -0.95751206879E+03  0.27621744761E+03 -0.16997408947E+04  0.19703412266E+04  0.00000000000E+00 0.  1.
         22    1    1    2    0    0  0.10921083268E+04 -0.28087189244E+03  0.31985556702E+03  0.11721336107E+04  0.00000000000E+00 0.  1.
<mgrwt>
<rscale>  0 0.30068811E+04</rscale>
<asrwt>0</asrwt>
<pdfrwt beam="1">  1        2 0.38669847E+00 0.30068811E+04</pdfrwt>
<pdfrwt beam="2">  1       -2 0.13834815E+00 0.30068811E+04</pdfrwt>
<totfact> 0.10831094E+00</totfact>
</mgrwt>
</event>
<event>
 6    1  0.1568961E-005  0.1867145E+04  0.7818608E-02  0.8671385E-01
          1   -1    0    0  501    0  0.00000000000E+00  0.00000000000E+00  0.12591470283E+04  0.12591470283E+04  0.00000000000E+00 0. -1.
         -1   -1    0    0    0  501 -0.00000000000E+00 -0.00000000000E+00 -0.69218119362E+03  0.69218119362E+03  0.00000000000E+00 0.  1.
         23    2    1    2    0    0  0.39136851147E+02 -0.17888352137E+03  0.12385784125E+04  0.12552000283E+04  0.88992245771E+02 0.  0.
         11    1    3    3    0    0 -0.51933991855E+01  0.10464566684E+01  0.36217256580E+01  0.64174265404E+01  0.00000000000E+00 0. -1.
        -11    1    3    3    0    0  0.44330250332E+02 -0.17992997804E+03  0.12349566868E+04  0.12487826017E+04  0.00000000000E+00 0.  1.
         22    1    1    2    0    0 -0.39136851147E+02  0.17888352137E+03 -0.67161257780E+03  0.69612819365E+03  0.00000000000E+00 0.  1.
<mgrwt>
<rscale>  0 0.18671453E+04</rscale>
<asrwt>0</asrwt>
<pdfrwt beam="1">  1        1 0.19371493E+00 0.18671453E+04</pdfrwt>
<pdfrwt beam="2">  1       -1 0.10648941E+00 0.18671453E+04</pdfrwt>
<totfact> 0.74809359E+00</totfact>
</mgrwt>
</event>
<event>
 6    1  0.1568961E-005  0.1804441E+04  0.7818608E-02  0.8703942E-01
          2   -1    0    0  501    0  0.00000000000E+00  0.00000000000E+00  0.21027650805E+04  0.21027650805E+04  0.00000000000E+00 0. -1.
         -2   -1    0    0    0  501 -0.00000000000E+00 -0.00000000000E+00 -0.38711004450E+03  0.38711004450E+03  0.00000000000E+00 0.  1.
         23    2    1    2    0    0 -0.37625864704E+03 -0.72299160209E+03  0.33419998147E+03  0.88590957242E+03  0.94120756064E+02 0.  0.
         11    1    3    3    0    0 -0.11418676163E+03 -0.29015063437E+03  0.16222063738E+03  0.35148476830E+03  0.00000000000E+00 0.  1.
        -11    1    3    3    0    0 -0.26207188541E+03 -0.43284096772E+03  0.17197934409E+03  0.53442480412E+03  0.00000000000E+00 0. -1.
         22    1    1    2    0    0  0.37625864704E+03  0.72299160209E+03  0.13814550545E+04  0.16039655526E+04  0.00000000000E+00 0. -1.
<mgrwt>
<rscale>  0 0.18044406E+04</rscale>
<asrwt>0</asrwt>
<pdfrwt beam="1">  1        2 0.32350231E+00 0.18044406E+04</pdfrwt>
<pdfrwt beam="2">  1       -2 0.59555393E-01 0.18044406E+04</pdfrwt>
<totfact> 0.14539500E+01</totfact>
</mgrwt>
</event>
<event>
 6    1  0.1568961E-005  0.2051913E+04  0.7818608E-02  0.8582727E-01
          1   -1    0    0  501    0  0.00000000000E+00  0.00000000000E+00  0.25101677435E+04  0.25101677435E+04  0.00000000000E+00 0. -1.
         -1   -1    0    0    0  501 -0.00000000000E+00 -0.00000000000E+00 -0.41932925124E+03  0.41932925124E+03  0.00000000000E+00 0.  1.
         23    2    1    2    0    0 -0.78020763833E+03 -0.59271735906E+03  0.14720646590E+04  0.17706532247E+04  0.90557469469E+02 0.  0.
         13    1    3    3    0    0 -0.21777821976E+03 -0.11932390862E+03  0.39727479635E+03  0.46850059977E+03  0.00000000000E+00 0. -1.
        -13    1    3    3    0    0 -0.56242941856E+03 -0.47339345045E+03  0.10747898626E+04  0.13021526249E+04  0.00000000000E+00 0.  1.
         22    1    1    2    0    0  0.78020763833E+03  0.59271735906E+03  0.61877383329E+03  0.11588437701E+04  0.00000000000E+00 0.  1.
<mgrwt>
<rscale>  0 0.20519130E+04</rscale>
<asrwt>0</asrwt>
<pdfrwt beam="1">  1        1 0.38617964E+00 0.20519130E+04</pdfrwt>
<pdfrwt beam="2">  1       -1 0.64512194E-01 0.20519130E+04</pdfrwt>
<totfact> 0.30002215E+00</totfact>
</mgrwt>
</event>
<event>
 6    1  0.1568961E-005  0.9873648E+03  0.7818608E-02  0.9322512E-01
          2   -1    0    0  501    0  0.00000000000E+00  0.00000000000E+00  0.21657517659E+04  0.21657517659E+04  0.00000000000E+00 0. -1.
         -2   -1    0    0    0  501 -0.00000000000E+00 -0.00000000000E+00 -0.11253474962E+03  0.11253474962E+03  0.00000000000E+00 0.  1.
         23    2    1    2    0    0  0.27639667327E+02  0.12967828888E+03  0.21225722372E+04  0.21286517720E+04  0.90912344231E+02 0.  0.
         13    1    3    3    0    0 -0.28479497981E+02  0.80328569693E+02  0.10239938458E+04  0.10275345041E+04  0.00000000000E+00 0. -1.
        -13    1    3    3    0    0  0.56119165308E+02  0.49349719183E+02  0.10985783914E+04  0.11011172679E+04  0.00000000000E+00 0.  1.
         22    1    1    2    0    0 -0.27639667327E+02 -0.12967828888E+03 -0.69355220903E+02  0.14963474357E+03  0.00000000000E+00 0.  1.
<mgrwt>
<rscale>  0 0.98736484E+03</rscale>
<asrwt>0</asrwt>
<pdfrwt beam="1">  1        2 0.33319255E+00 0.98736484E+03</pdfrwt>
<pdfrwt beam="2">  1       -2 0.17313040E-01 0.98736484E+03</pdfrwt>
<totfact> 0.14916297E+02</totfact>
</mgrwt>
</event>
<event>
 6    1  0.1568961E-005  0.4541622E+04  0.7818608E-02  0.7903390E-01
          1   -1    0    0  501    0  0.00000000000E+00  0.00000000000E+00  0.34505229101E+04  0.34505229101E+04  0.00000000000E+00 0. -1.
         -1   -1    0    0    0  501 -0.00000000000E+00 -0.00000000000E+00 -0.14944353602E+04  0.14944353602E+04  0.00000000000E+00 0.  1.
         23    2    1    2    0    0 -0.18456810670E+04 -0.12063349281E+04  0.39151465678E+03  0.22413179655E+04  0.91869126720E+02 0.  0.
         11    1    3    3    0    0 -0.10626854711E+04 -0.64763463679E+03  0.24423983457E+03  0.12682208523E+04  0.00000000000E+00 0. -1.
        -11    1    3    3    0    0 -0.78299559588E+03 -0.55870029126E+03  0.14727482220E+03  0.97309711328E+03  0.00000000000E+00 0.  1.
         22    1    1    2    0    0  0.18456810670E+04  0.12063349281E+04  0.15645728932E+04  0.27036403048E+04  0.00000000000E+00 0.  1.
<mgrwt>
<rscale>  0 0.45416224E+04</rscale>
<asrwt>0</asrwt>
<pdfrwt beam="1">  1        1 0.53084968E+00 0.45416224E+04</pdfrwt>
<pdfrwt beam="2">  1       -1 0.22991313E+00 0.45416224E+04</pdfrwt>
<totfact> 0.19321464E-02</totfact>
</mgrwt>
</event>
<event>
 6    1  0.1568961E-005  0.5270423E+04  0.7818608E-02  0.7788094E-01
         -2   -1    0    0    0  501 -0.00000000000E+00  0.00000000000E+00  0.18942855401E+04  0.18942855401E+04  0.00000000000E+00 0.  1.
          2   -1    0    0  501    0  0.00000000000E+00 -0.00000000000E+00 -0.36659408735E+04  0.36659408735E+04  0.00000000000E+00 0. -1.
         23    2    1    2    0    0  0.52584152602E+03  0.18004680744E+04 -0.28376499427E+04  0.34027883254E+04  0.92285384889E+02 0.  0.
         11    1    3    3    0    0  0.28569512920E+03  0.11349161009E+04 -0.17835588334E+04  0.21332459716E+04  0.00000000000E+00 0.  1.
        -11    1    3    3    0    0  0.24014639682E+03  0.66555197354E+03 -0.10540911093E+04  0.12695423538E+04  0.00000000000E+00 0. -1.
         22    1    1    2    0    0 -0.52584152602E+03 -0.18004680744E+04  0.10659946093E+04  0.21574380882E+04  0.00000000000E+00 0.  1.
<mgrwt>
<rscale>  0 0.52704227E+04</rscale>
<asrwt>0</asrwt>
<pdfrwt beam="1">  1        2 0.56399090E+00 0.52704227E+04</pdfrwt>
<pdfrwt beam="2">  1       -2 0.29142855E+00 0.52704227E+04</pdfrwt>
<totfact> 0.15758137E-02</totfact>
</mgrwt>
</event>
<event>
 6    1  0.1568961E-005  0.2662159E+04  0.7818608E-02  0.8347388E-01
         -2   -1    0    0    0  501 -0.00000000000E+00  0.00000000000E+00  0.12481679134E+04  0.12481679134E+04  0.00000000000E+00 0.  1.
          2   -1    0    0  501    0  0.00000000000E+00 -0.00000000000E+00 -0.14194987481E+04  0.14194987481E+04  0.00000000000E+00 0. -1.
         23    2    1    2    0    0  0.58579380777E+01  0.10582704087E+04 -0.89223606342E+03  0.13871687419E+04  0.90450828189E+02 0.  0.
         13    1    3    3    0    0  0.22389939087E+02  0.18935373897E+03 -0.19766428255E+03  0.27464034014E+03  0.00000000000E+00 0.  1.
        -13    1    3    3    0    0 -0.16532001009E+02  0.86891666971E+03 -0.69457178087E+03  0.11125284018E+04  0.00000000000E+00 0. -1.
         22    1    1    2    0    0 -0.58579380777E+01 -0.10582704087E+04  0.72090522873E+03  0.12804979196E+04  0.00000000000E+00 0.  1.
<mgrwt>
<rscale>  0 0.26621591E+04</rscale>
<asrwt>0</asrwt>
<pdfrwt beam="1">  1        2 0.21838442E+00 0.26621591E+04</pdfrwt>
<pdfrwt beam="2">  1       -2 0.19202583E+00 0.26621591E+04</pdfrwt>
<totfact> 0.18648065E+00</totfact>
</mgrwt>
</event>
<event>
 6    1  0.1568961E-005  0.4875784E+03  0.7818608E-02  0.1017073E+00
         -2   -1    0    0    0  501 -0.00000000000E+00  0.00000000000E+00  0.22533514843E+02  0.22533514843E+02  0.00000000000E+00 0. -1.
          2   -1    0    0  501    0  0.00000000000E+00 -0.00000000000E+00 -0.26375459025E+04  0.26375459025E+04  0.00000000000E+00 0.  1.
         23    2    1    2    0    0 -0.15663541732E+02  0.21813394008E+03 -0.18478328260E+04  0.18623374526E+04  0.77374882692E+02 0.  0.
         13    1    3    3    0    0 -0.31714122744E+02  0.31964781863E+02 -0.33852157137E+03  0.34150312904E+03  0.00000000000E+00 0. -1.
        -13    1    3    3    0    0  0.16050581012E+02  0.18616915822E+03 -0.15093112546E+04  0.15208343236E+04  0.00000000000E+00 0.  1.
         22    1    1    2    0    0  0.15663541732E+02 -0.21813394008E+03 -0.76717956166E+03  0.79774196467E+03  0.00000000000E+00 0.  1.
<mgrwt>
<rscale>  0 0.48757842E+03</rscale>
<asrwt>0</asrwt>
<pdfrwt beam="1">  1        2 0.40577607E+00 0.48757842E+03</pdfrwt>
<pdfrwt beam="2">  1       -2 0.34666965E-02 0.48757842E+03</pdfrwt>
<totfact> 0.11186543E+03</totfact>
</mgrwt>
</event>
<event>
 6    1  0.1568961E-005  0.2987167E+04  0.7818608E-02  0.8247405E-01
          2   -1    0    0  501    0  0.00000000000E+00  0.00000000000E+00  0.32958816273E+04  0.32958816273E+04  0.00000000000E+00 0. -1.
         -2   -1    0    0    0  501 -0.00000000000E+00 -0.00000000000E+00 -0.67684224791E+03  0.67684224791E+03  0.00000000000E+00 0.  1.
         23    2    1    2    0    0 -0.16350832799E+03 -0.74632051321E+03 -0.39392606249E+03  0.86439795348E+03  0.90976906530E+02 0.  0.
         13    1    3    3    0    0 -0.17280364973E+01 -0.19110560800E+03 -0.97219965229E+02  0.21442029092E+03  0.00000000000E+00 0.  1.
        -13    1    3    3    0    0 -0.16178029149E+03 -0.55521490521E+03 -0.29670609726E+03  0.64997766256E+03  0.00000000000E+00 0. -1.
         22    1    1    2    0    0  0.16350832799E+03  0.74632051321E+03  0.30129654419E+04  0.31083259218E+04  0.00000000000E+00 0. -1.
<mgrwt>
<rscale>  0 0.29871672E+04</rscale>
<asrwt>0</asrwt>
<pdfrwt beam="1">  1        2 0.50705870E+00 0.29871672E+04</pdfrwt>
<pdfrwt beam="2">  1       -2 0.10412958E+00 0.29871672E+04</pdfrwt>
<totfact> 0.71980054E-01</totfact>
</mgrwt>
</event>
<event>
 6    1  0.1568961E-005  0.2618317E+04  0.7818608E-02  0.8362006E-01
         -2   -1    0    0    0  501 -0.00000000000E+00  0.00000000000E+00  0.65187083865E+03  0.65187083865E+03  0.00000000000E+00 0. -1.
          2   -1    0    0  501    0  0.00000000000E+00 -0.00000000000E+00 -0.26291955525E+04  0.26291955525E+04  0.00000000000E+00 0.  1.
         23    2    1    2    0    0  0.11416916544E+04 -0.28004781726E+03 -0.17070186980E+04  0.20748524980E+04  0.95986664718E+02 0.  0.
         13    1    3    3    0    0  0.42045474549E+03 -0.76920967987E+02 -0.68888399397E+03  0.81071584755E+03  0.00000000000E+00 0.  1.
        -13    1    3    3    0    0  0.72123690890E+03 -0.20312684928E+03 -0.10181347040E+04  0.12641366505E+04  0.00000000000E+00 0. -1.
         22    1    1    2    0    0 -0.11416916544E+04  0.28004781726E+03 -0.27030601586E+03  0.12062138931E+04  0.00000000000E+00 0. -1.
<mgrwt>
<rscale>  0 0.26183169E+04</rscale>
<asrwt>0</asrwt>
<pdfrwt beam="1">  1        2 0.40449162E+00 0.26183169E+04</pdfrwt>
<pdfrwt beam="2">  1       -2 0.10028782E+00 0.26183169E+04</pdfrwt>
<totfact> 0.21189980E+00</totfact>
</mgrwt>
</event>
<event>
 6    1  0.1568961E-005  0.1956939E+04  0.7818608E-02  0.8627022E-01
         -2   -1    0    0    0  501 -0.00000000000E+00  0.00000000000E+00  0.42300832670E+03  0.42300832670E+03  0.00000000000E+00 0.  1.
          2   -1    0    0  501    0  0.00000000000E+00 -0.00000000000E+00 -0.22633176872E+04  0.22633176872E+04  0.00000000000E+00 0. -1.
         23    2    1    2    0    0  0.31560849414E+03  0.49261591379E+03  0.15058673958E+03  0.61124855959E+03  0.93108943580E+02 0.  0.
         13    1    3    3    0    0  0.18737943975E+03  0.28129416395E+03  0.13375136987E+03  0.36349262724E+03  0.00000000000E+00 0.  1.
        -13    1    3    3    0    0  0.12822905439E+03  0.21132174983E+03  0.16835369715E+02  0.24775593235E+03  0.00000000000E+00 0. -1.
         22    1    1    2    0    0 -0.31560849414E+03 -0.49261591379E+03 -0.19908961000E+04  0.20750774543E+04  0.00000000000E+00 0. -1.
<mgrwt>
<rscale>  0 0.19569387E+04</rscale>
<asrwt>0</asrwt>
<pdfrwt beam="1">  1        2 0.34820273E+00 0.19569387E+04</pdfrwt>
<pdfrwt beam="2">  1       -2 0.65078203E-01 0.19569387E+04</pdfrwt>
<totfact> 0.96564264E+00</totfact>
</mgrwt>
</event>
<event>
 6    1  0.1568961E-005  0.1948462E+04  0.7818608E-02  0.8631103E-01
          1   -1    0    0  501    0  0.00000000000E+00  0.00000000000E+00  0.14010856108E+04  0.14010856108E+04  0.00000000000E+00 0. -1.
         -1   -1    0    0    0  501 -0.00000000000E+00 -0.00000000000E+00 -0.67742187773E+03  0.67742187773E+03  0.00000000000E+00 0.  1.
         23    2    1    2    0    0 -0.23545699307E+03  0.45336357595E+03 -0.51966604571E+03  0.73431722433E+03  0.90501156353E+02 0.  0.
         11    1    3    3    0    0 -0.14030424639E+02  0.52828990278E+02 -0.96981109904E+02  0.11132425930E+03  0.00000000000E+00 0.  1.
        -11    1    3    3    0    0 -0.22142656843E+03  0.40053458567E+03 -0.42268493580E+03  0.62299296503E+03  0.00000000000E+00 0. -1.
         22    1    1    2    0    0  0.23545699307E+03 -0.45336357595E+03  0.12433297787E+04  0.13441902642E+04  0.00000000000E+00 0. -1.
<mgrwt>
<rscale>  0 0.19484620E+04</rscale>
<asrwt>0</asrwt>
<pdfrwt beam="1">  1        1 0.21555163E+00 0.19484620E+04</pdfrwt>
<pdfrwt beam="2">  1       -1 0.10421875E+00 0.19484620E+04</pdfrwt>
<totfact> 0.61906514E+00</totfact>
</mgrwt>
</event>
<event>
 6    1  0.1568961E-005  0.1265832E+04  0.7818608E-02  0.9057108E-01
          1   -1    0    0  501    0  0.00000000000E+00  0.00000000000E+00  0.34643690679E+03  0.34643690679E+03  0.00000000000E+00 0. -1.
         -1   -1    0    0    0  501 -0.00000000000E+00 -0.00000000000E+00 -0.11562941660E+04  0.11562941660E+04  0.00000000000E+00 0.  1.
         23    2    1    2    0    0 -0.24604041057E+03  0.39778343460E+03  0.92766798519E+02  0.48612016684E+03  0.94549422120E+02 0.  0.
         13    1    3    3    0    0 -0.16523799402E+03  0.22096817772E+03  0.94671652451E+02  0.29170747678E+03  0.00000000000E+00 0. -1.
        -13    1    3    3    0    0 -0.80802416548E+02  0.17681525689E+03 -0.19048539320E+01  0.19441269006E+03  0.00000000000E+00 0.  1.
         22    1    1    2    0    0  0.24604041057E+03 -0.39778343460E+03 -0.90262405773E+03  0.10166109059E+04  0.00000000000E+00 0.  1.
<mgrwt>
<rscale>  0 0.12658325E+04</rscale>
<asrwt>0</asrwt>
<pdfrwt beam="1">  1        1 0.53297986E-01 0.12658325E+04</pdfrwt>
<pdfrwt beam="2">  1       -1 0.17789141E+00 0.12658325E+04</pdfrwt>
<totfact> 0.15409807E+01</totfact>
</mgrwt>
</event>
<event>
 6    1  0.1568961E-005  0.2940871E+04  0.7818608E-02  0.8260820E-01
         -2   -1    0    0    0  501 -0.00000000000E+00  0.00000000000E+00  0.12213749941E+04  0.12213749941E+04  0.00000000000E+00 0.  1.
          2   -1    0    0  501    0  0.00000000000E+00 -0.00000000000E+00 -0.17702838603E+04  0.17702838603E+04  0.00000000000E+00 0. -1.
         23    2    1    2    0    0  0.12567995163E+04 -0.73278696008E+02  0.49552393267E+03  0.13558854401E+04  0.89255629490E+02 0.  0.
         11    1    3    3    0    0  0.54158806911E+03 -0.75736298502E+02  0.21853341520E+03  0.58890617001E+03  0.00000000000E+00 0. -1.
        -11    1    3    3    0    0  0.71521144716E+03  0.24576024940E+01  0.27699051748E+03  0.76697927008E+03  0.00000000000E+00 0.  1.
         22    1    1    2    0    0 -0.12567995163E+04  0.73278696008E+02 -0.10444327989E+04  0.16357734142E+04  0.00000000000E+00 0. -1.
<mgrwt>
<rscale>  0 0.29408709E+04</rscale>
<asrwt>0</asrwt>
<pdfrwt beam="1">  1        2 0.27235136E+00 0.29408709E+04</pdfrwt>
<pdfrwt beam="2">  1       -2 0.18790385E+00 0.29408709E+04</pdfrwt>
<totfact> 0.12346657E+00</totfact>
</mgrwt>
</event>
<event>
 6    1  0.1568961E-005  0.1489539E+04  0.7818608E-02  0.8891439E-01
          2   -1    0    0  501    0  0.00000000000E+00  0.00000000000E+00  0.25472450250E+04  0.25472450250E+04  0.00000000000E+00 0. -1.
         -2   -1    0    0    0  501 -0.00000000000E+00 -0.00000000000E+00 -0.21775749001E+03  0.21775749001E+03  0.00000000000E+00 0.  1.
         23    2    1    2    0    0 -0.57645483925E+03 -0.34976144578E+03  0.17453237477E+04  0.18728811213E+04  0.83038905263E+02 0.  0.
         11    1    3    3    0    0 -0.43445920691E+03 -0.30351636603E+03  0.13704395681E+04  0.14693473370E+04  0.00000000000E+00 0. -1.
        -11    1    3    3    0    0 -0.14199563234E+03 -0.46245079748E+02  0.37488417952E+03  0.40353378428E+03  0.00000000000E+00 0.  1.
         22    1    1    2    0    0  0.57645483925E+03  0.34976144578E+03  0.58416378730E+03  0.89212139366E+03  0.00000000000E+00 0.  1.
<mgrwt>
<rscale>  0 0.14895391E+04</rscale>
<asrwt>0</asrwt>
<pdfrwt beam="1">  1        2 0.39188383E+00 0.14895391E+04</pdfrwt>
<pdfrwt beam="2">  1       -2 0.33501154E-01 0.14895391E+04</pdfrwt>
<totfact> 0.26399102E+01</totfact>
</mgrwt>
</event>
<event>
 6    1  0.1568961E-005  0.3574360E+04  0.7818608E-02  0.8096390E-01
         -2   -1    0    0    0  501 -0.00000000000E+00  0.00000000000E+00  0.11249287572E+04  0.11249287572E+04  0.00000000000E+00 0.  1.
          2   -1    0    0  501    0  0.00000000000E+00 -0.00000000000E+00 -0.28393021222E+04  0.28393021222E+04  0.00000000000E+00 0. -1.
         23    2    1    2    0    0  0.17000111102E+03 -0.14470999920E+04  0.28776746116E+03  0.14880308365E+04  0.91798115686E+02 0.  0.
         13    1    3    3    0    0  0.68307111042E+02 -0.64573887904E+03  0.17417132925E+03  0.67229473690E+03  0.00000000000E+00 0. -1.
        -13    1    3    3    0    0  0.10169399998E+03 -0.80136111298E+03  0.11359613191E+03  0.81573609961E+03  0.00000000000E+00 0.  1.
         22    1    1    2    0    0 -0.17000111102E+03  0.14470999920E+04 -0.20021408261E+04  0.24762000429E+04  0.00000000000E+00 0. -1.
<mgrwt>
<rscale>  0 0.35743601E+04</rscale>
<asrwt>0</asrwt>
<pdfrwt beam="1">  1        2 0.43681571E+00 0.35743601E+04</pdfrwt>
<pdfrwt beam="2">  1       -2 0.17306596E+00 0.35743601E+04</pdfrwt>
<totfact> 0.36225140E-01</totfact>
</mgrwt>
</event>
<event>
 6    1  0.1568961E-005  0.2093073E+04  0.7818608E-02  0.8564301E-01
         -2   -1    0    0    0  501 -0.00000000000E+00  0.00000000000E+00  0.12261111940E+04  0.12261111940E+04  0.00000000000E+00 0. -1.
          2   -1    0    0  501    0  0.00000000000E+00 -0.00000000000E+00 -0.89326203667E+03  0.89326203667E+03  0.00000000000E+00 0.  1.
         23    2    1    2    0    0  0.21157637985E+03 -0.10053618711E+04 -0.23107809248E+02  0.10320727118E+04  0.95514685501E+02 0.  0.
         13    1    3    3    0    0  0.56472742195E+02 -0.33787418497E+03 -0.50449130284E+02  0.34625604721E+03  0.00000000000E+00 0. -1.
        -13    1    3    3    0    0  0.15510363766E+03 -0.66748768613E+03  0.27341321036E+02  0.68581666456E+03  0.00000000000E+00 0.  1.
         22    1    1    2    0    0 -0.21157637985E+03  0.10053618711E+04  0.35595696661E+03  0.10873005189E+04  0.00000000000E+00 0. -1.
<mgrwt>
<rscale>  0 0.20930729E+04</rscale>
<asrwt>0</asrwt>
<pdfrwt beam="1">  1        2 0.13742493E+00 0.20930729E+04</pdfrwt>
<pdfrwt beam="2">  1       -2 0.18863249E+00 0.20930729E+04</pdfrwt>
<totfact> 0.43241439E+00</totfact>
</mgrwt>
</event>
<event>
 6    1  0.1568961E-005  0.1876758E+04  0.7818608E-02  0.8666513E-01
         -2   -1    0    0    0  501 -0.00000000000E+00  0.00000000000E+00  0.29056920581E+03  0.29056920581E+03  0.00000000000E+00 0.  1.
          2   -1    0    0  501    0  0.00000000000E+00 -0.00000000000E+00 -0.30304480453E+04  0.30304480453E+04  0.00000000000E+00 0. -1.
         23    2    1    2    0    0  0.43052945947E+03 -0.35039871723E+03 -0.27071438384E+04  0.27649538943E+04  0.90594699597E+02 0.  0.
         13    1    3    3    0    0  0.38105437563E+03 -0.34018825160E+03 -0.24091964815E+04  0.24627541839E+04  0.00000000000E+00 0.  1.
        -13    1    3    3    0    0  0.49475083840E+02 -0.10210465622E+02 -0.29794735682E+03  0.30219971040E+03  0.00000000000E+00 0. -1.
         22    1    1    2    0    0 -0.43052945947E+03  0.35039871723E+03 -0.32735001160E+02  0.55606335683E+03  0.00000000000E+00 0.  1.
<mgrwt>
<rscale>  0 0.18767577E+04</rscale>
<asrwt>0</asrwt>
<pdfrwt beam="1">  1        2 0.46622279E+00 0.18767577E+04</pdfrwt>
<pdfrwt beam="2">  1       -2 0.44702953E-01 0.18767577E+04</pdfrwt>
<totfact> 0.74440092E+00</totfact>
</mgrwt>
</event>
<event>
 6    1  0.1568961E-005  0.1267221E+04  0.7818608E-02  0.9055971E-01
          1   -1    0    0  501    0  0.00000000000E+00  0.00000000000E+00  0.15598040866E+04  0.15598040866E+04  0.00000000000E+00 0. -1.
         -1   -1    0    0    0  501 -0.00000000000E+00 -0.00000000000E+00 -0.25738004061E+03  0.25738004061E+03  0.00000000000E+00 0.  1.
         23    2    1    2    0    0  0.36881086878E+03 -0.10354968518E+03  0.13723183235E+04  0.14277881792E+04  0.92614844924E+02 0.  0.
         13    1    3    3    0    0  0.36569516552E+03 -0.94237640947E+02  0.12688711471E+04  0.13238760044E+04  0.00000000000E+00 0.  1.
        -13    1    3    3    0    0  0.31157032579E+01 -0.93120442373E+01  0.10344717639E+03  0.10391217483E+03  0.00000000000E+00 0. -1.
         22    1    1    2    0    0 -0.36881086878E+03  0.10354968518E+03 -0.69894277556E+02  0.38939594793E+03  0.00000000000E+00 0.  1.
<mgrwt>
<rscale>  0 0.12672213E+04</rscale>
<asrwt>0</asrwt>
<pdfrwt beam="1">  1        1 0.23996985E+00 0.12672213E+04</pdfrwt>
<pdfrwt beam="2">  1       -1 0.39596930E-01 0.12672213E+04</pdfrwt>
<totfact> 0.36342458E+01</totfact>
</mgrwt>
</event>
<event>
 6    1  0.1568961E-005  0.3293566E+04  0.7818608E-02  0.8164534E-01
          2   -1    0    0  501    0  0.00000000000E+00  0.00000000000E+00  0.23292318082E+04  0.23292318082E+04  0.00000000000E+00 0. -1.
         -2   -1    0    0    0  501 -0.00000000000E+00 -0.00000000000E+00 -0.11642871281E+04  0.11642871281E+04  0.00000000000E+00 0.  1.
         23    2    1    2    0    0  0.15236527463E+04  0.91165165068E+02 -0.69018101180E+02  0.15307420961E+04  0.92623365950E+02 0.  0.
         13    1    3    3    0    0  0.30518754284E+03  0.37203407747E+02 -0.45972161484E+02  0.31086487335E+03  0.00000000000E+00 0. -1.
        -13    1    3    3    0    0  0.12184652035E+04  0.53961757321E+02 -0.23045939696E+02  0.12198772228E+04  0.00000000000E+00 0.  1.
         22    1    1    2    0    0 -0.15236527463E+04 -0.91165165068E+02  0.12339627814E+04  0.19627768402E+04  0.00000000000E+00 0.  1.
<mgrwt>
<rscale>  0 0.32935662E+04</rscale>
<asrwt>0</asrwt>
<pdfrwt beam="1">  1        2 0.35834335E+00 0.32935662E+04</pdfrwt>
<pdfrwt beam="2">  1       -2 0.17912110E+00 0.32935662E+04</pdfrwt>
<totfact> 0.67046186E-01</totfact>
</mgrwt>
</event>
<event>
 6    1  0.1568961E-005  0.2080153E+04  0.7818608E-02  0.8570037E-01
          1   -1    0    0  501    0  0.00000000000E+00  0.00000000000E+00  0.11150108206E+04  0.11150108206E+04  0.00000000000E+00 0. -1.
         -1   -1    0    0    0  501 -0.00000000000E+00 -0.00000000000E+00 -0.97017769071E+03  0.97017769071E+03  0.00000000000E+00 0.  1.
         23    2    1    2    0    0  0.85974200512E+03 -0.14336512665E+03  0.63777204423E+03  0.10838400964E+04  0.90809136054E+02 0.  0.
         13    1    3    3    0    0  0.56942183263E+03 -0.95003944817E+02  0.36815396698E+03  0.68469286283E+03  0.00000000000E+00 0.  1.
        -13    1    3    3    0    0  0.29032017248E+03 -0.48361181837E+02  0.26961807725E+03  0.39914723354E+03  0.00000000000E+00 0. -1.
         22    1    1    2    0    0 -0.85974200512E+03  0.14336512665E+03 -0.49293891432E+03  0.10013484150E+04  0.00000000000E+00 0. -1.
<mgrwt>
<rscale>  0 0.20801525E+04</rscale>
<asrwt>0</asrwt>
<pdfrwt beam="1">  1        1 0.17154013E+00 0.20801525E+04</pdfrwt>
<pdfrwt beam="2">  1       -1 0.14925811E+00 0.20801525E+04</pdfrwt>
<totfact> 0.40244952E+00</totfact>
</mgrwt>
</event>
<event>
 6    1  0.1568961E-005  0.2509548E+04  0.7818608E-02  0.8399592E-01
         -1   -1    0    0    0  501 -0.00000000000E+00  0.00000000000E+00  0.13380017014E+04  0.13380017014E+04  0.00000000000E+00 0.  1.
          1   -1    0    0  501    0  0.00000000000E+00 -0.00000000000E+00 -0.11767231747E+04  0.11767231747E+04  0.00000000000E+00 0. -1.
         23    2    1    2    0    0 -0.66153067523E+03 -0.47626372803E+03  0.10344547421E+04  0.13202012572E+04  0.91568406806E+02 0.  0.
         11    1    3    3    0    0 -0.20511153893E+03 -0.15975466871E+03  0.39893983607E+03  0.47617779283E+03  0.00000000000E+00 0.  1.
        -11    1    3    3    0    0 -0.45641913630E+03 -0.31650905932E+03  0.63551490608E+03  0.84402346440E+03  0.00000000000E+00 0. -1.
         22    1    1    2    0    0  0.66153067523E+03  0.47626372803E+03 -0.87317621544E+03  0.11945236189E+04  0.00000000000E+00 0. -1.
<mgrwt>
<rscale>  0 0.25095479E+04</rscale>
<asrwt>0</asrwt>
<pdfrwt beam="1">  1        1 0.18103434E+00 0.25095479E+04</pdfrwt>
<pdfrwt beam="2">  1       -1 0.20584641E+00 0.25095479E+04</pdfrwt>
<totfact> 0.13537835E+00</totfact>
</mgrwt>
</event>
<event>
 6    1  0.1568961E-005  0.1790989E+04  0.7818608E-02  0.8711106E-01
          2   -1    0    0  501    0  0.00000000000E+00  0.00000000000E+00  0.16017707772E+04  0.16017707772E+04  0.00000000000E+00 0.  1.
         -2   -1    0    0    0  501 -0.00000000000E+00 -0.00000000000E+00 -0.50064011014E+03  0.50064011014E+03  0.00000000000E+00 0. -1.
         23    2    1    2    0    0  0.17963388287E+03  0.84362825443E+03  0.27910809891E+03  0.91090005396E+03  0.88660103124E+02 0.  0.
         11    1    3    3    0    0  0.11627971478E+03  0.33703156372E+03  0.11750862488E+03  0.37539249318E+03  0.00000000000E+00 0.  1.
        -11    1    3    3    0    0  0.63354168092E+02  0.50659669071E+03  0.16159947403E+03  0.53550756078E+03  0.00000000000E+00 0. -1.
         22    1    1    2    0    0 -0.17963388287E+03 -0.84362825443E+03  0.82202256816E+03  0.11915108334E+04  0.00000000000E+00 0. -1.
<mgrwt>
<rscale>  0 0.17909893E+04</rscale>
<asrwt>0</asrwt>
<pdfrwt beam="1">  1        2 0.24642627E+00 0.17909893E+04</pdfrwt>
<pdfrwt beam="2">  1       -2 0.77021556E-01 0.17909893E+04</pdfrwt>
<totfact> 0.15819293E+01</totfact>
</mgrwt>
</event>
<event>
 6    1  0.1568961E-005  0.1906326E+04  0.7818608E-02  0.8651714E-01
          1   -1    0    0  501    0  0.00000000000E+00  0.00000000000E+00  0.19348713329E+04  0.19348713329E+04  0.00000000000E+00 0. -1.
         -1   -1    0    0    0  501 -0.00000000000E+00 -0.00000000000E+00 -0.46955032486E+03  0.46955032486E+03  0.00000000000E+00 0.  1.
         23    2    1    2    0    0 -0.72328133895E+03 -0.39929869588E+03  0.13282955332E+04  0.15669544497E+04  0.91661770902E+02 0.  0.
         11    1    3    3    0    0 -0.34215058124E+03 -0.24116787735E+03  0.66440573238E+03  0.78527953146E+03  0.00000000000E+00 0. -1.
        -11    1    3    3    0    0 -0.38113075771E+03 -0.15813081853E+03  0.66388980078E+03  0.78167491825E+03  0.00000000000E+00 0.  1.
         22    1    1    2    0    0  0.72328133895E+03  0.39929869588E+03  0.13702547488E+03  0.83746720806E+03  0.00000000000E+00 0.  1.
<mgrwt>
<rscale>  0 0.19063257E+04</rscale>
<asrwt>0</asrwt>
<pdfrwt beam="1">  1        1 0.29767251E+00 0.19063257E+04</pdfrwt>
<pdfrwt beam="2">  1       -1 0.72238513E-01 0.19063257E+04</pdfrwt>
<totfact> 0.59645264E+00</totfact>
</mgrwt>
</event>
<event>
 6    1  0.1568961E-005  0.2589732E+04  0.7818608E-02  0.8371697E-01
          1   -1    0    0  501    0  0.00000000000E+00  0.00000000000E+00  0.22260283086E+04  0.22260283086E+04  0.00000000000E+00 0. -1.
         -1   -1    0    0    0  501 -0.00000000000E+00 -0.00000000000E+00 -0.75321503198E+03  0.75321503198E+03  0.00000000000E+00 0.  1.
         23    2    1    2    0    0 -0.27283287837E+03  0.40146795254E+03  0.21163386655E+04  0.21731793092E+04  0.90579613648E+02 0.  0.
         11    1    3    3    0    0 -0.19071428508E+02  0.83458037961E+02  0.43196924317E+03  0.44037074213E+03  0.00000000000E+00 0. -1.
        -11    1    3    3    0    0 -0.25376144986E+03  0.31800991458E+03  0.16843694224E+04  0.17328085671E+04  0.00000000000E+00 0.  1.
         22    1    1    2    0    0  0.27283287837E+03 -0.40146795254E+03 -0.64352538892E+03  0.80606403134E+03  0.00000000000E+00 0.  1.
<mgrwt>
<rscale>  0 0.25897320E+04</rscale>
<asrwt>0</asrwt>
<pdfrwt beam="1">  1        1 0.34246589E+00 0.25897320E+04</pdfrwt>
<pdfrwt beam="2">  1       -1 0.11587924E+00 0.25897320E+04</pdfrwt>
<totfact> 0.12420190E+00</totfact>
</mgrwt>
</event>
<event>
 6    1  0.1568961E-005  0.2811621E+04  0.7818608E-02  0.8299669E-01
         -1   -1    0    0    0  501 -0.00000000000E+00  0.00000000000E+00  0.76113923908E+03  0.76113923908E+03  0.00000000000E+00 0.  1.
          1   -1    0    0  501    0  0.00000000000E+00 -0.00000000000E+00 -0.25965072344E+04  0.25965072344E+04  0.00000000000E+00 0. -1.
         23    2    1    2    0    0  0.91203756474E+03 -0.10107796802E+03  0.35012706823E+03  0.98732625295E+03  0.10096975156E+03 0.  0.
         11    1    3    3    0    0  0.67356764303E+03 -0.69213011391E+02  0.21013210020E+03  0.70897059898E+03  0.00000000000E+00 0. -1.
        -11    1    3    3    0    0  0.23846992171E+03 -0.31864956626E+02  0.13999496802E+03  0.27835565397E+03  0.00000000000E+00 0.  1.
         22    1    1    2    0    0 -0.91203756474E+03  0.10107796802E+03 -0.21854950636E+04  0.23703202206E+04  0.00000000000E+00 0. -1.
<mgrwt>
<rscale>  0 0.28116213E+04</rscale>
<asrwt>0</asrwt>
<pdfrwt beam="1">  1        1 0.39946266E+00 0.28116213E+04</pdfrwt>
<pdfrwt beam="2">  1       -1 0.11709834E+00 0.28116213E+04</pdfrwt>
<totfact> 0.65914675E-01</totfact>
</mgrwt>
</event>
<event>
 6    1  0.1568961E-005  0.2938417E+04  0.7818608E-02  0.8261538E-01
          2   -1    0    0  501    0  0.00000000000E+00  0.00000000000E+00  0.20820726070E+04  0.20820726070E+04  0.00000000000E+00 0.  1.
         -2   -1    0    0    0  501 -0.00000000000E+00 -0.00000000000E+00 -0.10367424981E+04  0.10367424981E+04  0.00000000000E+00 0. -1.
         23    2    1    2    0    0 -0.12858098885E+02 -0.79310732147E+03  0.18338916235E+04  0.20003278158E+04  0.94701265389E+02 0.  0.
         13    1    3    3    0    0 -0.49470287387E+02 -0.42439772982E+03  0.10331453810E+04  0.11180116818E+04  0.00000000000E+00 0.  1.
        -13    1    3    3    0    0  0.36612188502E+02 -0.36870959165E+03  0.80074624256E+03  0.88231613399E+03  0.00000000000E+00 0. -1.
         22    1    1    2    0    0  0.12858098885E+02  0.79310732147E+03 -0.78856151463E+03  0.11184872893E+04  0.00000000000E+00 0. -1.
<mgrwt>
<rscale>  0 0.29384167E+04</rscale>
<asrwt>0</asrwt>
<pdfrwt beam="1">  1        2 0.32031886E+00 0.29384167E+04</pdfrwt>
<pdfrwt beam="2">  1       -2 0.15949885E+00 0.29384167E+04</pdfrwt>
<totfact> 0.13143531E+00</totfact>
</mgrwt>
</event>
<event>
 6    1  0.1568961E-005  0.5064380E+04  0.7818608E-02  0.7818652E-01
          2   -1    0    0  501    0  0.00000000000E+00  0.00000000000E+00  0.36095783731E+04  0.36095783731E+04  0.00000000000E+00 0. -1.
         -2   -1    0    0    0  501 -0.00000000000E+00 -0.00000000000E+00 -0.17763811861E+04  0.17763811861E+04  0.00000000000E+00 0.  1.
         23    2    1    2    0    0 -0.81568249143E+03  0.23277503328E+04  0.15223567990E+04  0.28999222937E+04  0.90661721654E+02 0.  0.
         11    1    3    3    0    0 -0.33924935018E+03  0.10753464256E+04  0.66283361295E+03  0.13079787671E+04  0.00000000000E+00 0. -1.
        -11    1    3    3    0    0 -0.47643314125E+03  0.12524039072E+04  0.85952318603E+03  0.15919435267E+04  0.00000000000E+00 0.  1.
         22    1    1    2    0    0  0.81568249143E+03 -0.23277503328E+04  0.31084038808E+03  0.24860372655E+04  0.00000000000E+00 0.  1.
<mgrwt>
<rscale>  0 0.50643804E+04</rscale>
<asrwt>0</asrwt>
<pdfrwt beam="1">  1        2 0.55531975E+00 0.50643804E+04</pdfrwt>
<pdfrwt beam="2">  1       -2 0.27328941E+00 0.50643804E+04</pdfrwt>
<totfact> 0.22720347E-02</totfact>
</mgrwt>
</event>
<event>
 6    1  0.1568961E-005  0.2447297E+04  0.7818608E-02  0.8422006E-01
          2   -1    0    0  501    0  0.00000000000E+00  0.00000000000E+00  0.84411942453E+03  0.84411942453E+03  0.00000000000E+00 0. -1.
         -2   -1    0    0    0  501 -0.00000000000E+00 -0.00000000000E+00 -0.17738194630E+04  0.17738194630E+04  0.00000000000E+00 0.  1.
         23    2    1    2    0    0 -0.12186984935E+04  0.84899491081E+02 -0.49455941389E+03  0.13211037766E+04  0.91061699695E+02 0.  0.
         13    1    3    3    0    0 -0.56310274373E+03  0.85954249049E+01 -0.19156793995E+03  0.59485868653E+03  0.00000000000E+00 0. -1.
        -13    1    3    3    0    0 -0.65559574976E+03  0.76304066176E+02 -0.30299147394E+03  0.72624509010E+03  0.00000000000E+00 0.  1.
         22    1    1    2    0    0  0.12186984935E+04 -0.84899491081E+02 -0.43514062455E+03  0.12968351109E+04  0.00000000000E+00 0. -1.
<mgrwt>
<rscale>  0 0.24472968E+04</rscale>
<asrwt>0</asrwt>
<pdfrwt beam="1">  1        2 0.12986453E+00 0.24472968E+04</pdfrwt>
<pdfrwt beam="2">  1       -2 0.27289530E+00 0.24472968E+04</pdfrwt>
<totfact> 0.13355340E+00</totfact>
</mgrwt>
</event>
<event>
 6    1  0.1568961E-005  0.2344499E+04  0.7818608E-02  0.8460580E-01
          1   -1    0    0  501    0  0.00000000000E+00  0.00000000000E+00  0.32481465078E+04  0.32481465078E+04  0.00000000000E+00 0. -1.
         -1   -1    0    0    0  501 -0.00000000000E+00 -0.00000000000E+00 -0.42306246911E+03  0.42306246911E+03  0.00000000000E+00 0.  1.
         23    2    1    2    0    0 -0.10617851264E+04 -0.47690836129E+03  0.12211450488E+04  0.16894295939E+04  0.90265622541E+02 0.  0.
         13    1    3    3    0    0 -0.36082384047E+03 -0.11575850485E+03  0.39557244663E+03  0.54778776531E+03  0.00000000000E+00 0. -1.
        -13    1    3    3    0    0 -0.70096128597E+03 -0.36114985644E+03  0.82557260217E+03  0.11416418285E+04  0.00000000000E+00 0.  1.
         22    1    1    2    0    0  0.10617851264E+04  0.47690836129E+03  0.16039389899E+04  0.19817793830E+04  0.00000000000E+00 0.  1.
<mgrwt>
<rscale>  0 0.23444990E+04</rscale>
<asrwt>0</asrwt>
<pdfrwt beam="1">  1        1 0.49971483E+00 0.23444990E+04</pdfrwt>
<pdfrwt beam="2">  1       -1 0.65086536E-01 0.23444990E+04</pdfrwt>
<totfact> 0.84344317E-01</totfact>
</mgrwt>
</event>
<event>
 6    1  0.1568961E-005  0.4412736E+04  0.7818608E-02  0.7926095E-01
         -2   -1    0    0    0  501 -0.00000000000E+00  0.00000000000E+00  0.94812183093E+03  0.94812183093E+03  0.00000000000E+00 0.  1.
          2   -1    0    0  501    0  0.00000000000E+00 -0.00000000000E+00 -0.51344247893E+04  0.51344247893E+04  0.00000000000E+00 0. -1.
         23    2    1    2    0    0  0.96079292586E+03  0.16470142594E+04 -0.36216551536E+04  0.40939274611E+04  0.89872062840E+02 0.  0.
         11    1    3    3    0    0  0.36429481990E+03  0.66158248377E+03 -0.15202081008E+04  0.16974789449E+04  0.00000000000E+00 0. -1.
        -11    1    3    3    0    0  0.59649810596E+03  0.98543177560E+03 -0.21014470528E+04  0.23964485162E+04  0.00000000000E+00 0.  1.
         22    1    1    2    0    0 -0.96079292586E+03 -0.16470142594E+04 -0.56464780479E+03  0.19886191592E+04  0.00000000000E+00 0.  1.
<mgrwt>
<rscale>  0 0.44127362E+04</rscale>
<asrwt>0</asrwt>
<pdfrwt beam="1">  1        2 0.78991152E+00 0.44127362E+04</pdfrwt>
<pdfrwt beam="2">  1       -2 0.14586490E+00 0.44127362E+04</pdfrwt>
<totfact> 0.55239667E-03</totfact>
</mgrwt>
</event>
<event>
 6    1  0.1568961E-005  0.9105398E+03  0.7818608E-02  0.9412501E-01
         -2   -1    0    0    0  501 -0.00000000000E+00  0.00000000000E+00  0.91022268323E+03  0.91022268323E+03  0.00000000000E+00 0.  1.
          2   -1    0    0  501    0  0.00000000000E+00 -0.00000000000E+00 -0.22771423416E+03  0.22771423416E+03  0.00000000000E+00 0. -1.
         23    2    1    2    0    0  0.41684256512E+03 -0.36958517407E+02  0.55347087664E+03  0.70001643237E+03  0.92570719961E+02 0.  0.
         11    1    3    3    0    0  0.36128907010E+03 -0.27009330973E+01  0.44237999528E+03  0.57117173200E+03  0.00000000000E+00 0. -1.
        -11    1    3    3    0    0  0.55553495022E+02 -0.34257584310E+02  0.11109088137E+03  0.12884470037E+03  0.00000000000E+00 0.  1.
         22    1    1    2    0    0 -0.41684256512E+03  0.36958517407E+02  0.12903757243E+03  0.43792048502E+03  0.00000000000E+00 0. -1.
<mgrwt>
<rscale>  0 0.91053975E+03</rscale>
<asrwt>0</asrwt>
<pdfrwt beam="1">  1        2 0.35032960E-01 0.91053975E+03</pdfrwt>
<pdfrwt beam="2">  1       -2 0.14003426E+00 0.91053975E+03</pdfrwt>
<totfact> 0.53755910E+01</totfact>
</mgrwt>
</event>
<event>
 6    1  0.1568961E-005  0.2314862E+04  0.7818608E-02  0.8472084E-01
         -2   -1    0    0    0  501 -0.00000000000E+00  0.00000000000E+00  0.95251668950E+03  0.95251668950E+03  0.00000000000E+00 0.  1.
          2   -1    0    0  501    0  0.00000000000E+00 -0.00000000000E+00 -0.14064278997E+04  0.14064278997E+04  0.00000000000E+00 0. -1.
         23    2    1    2    0    0  0.11306844907E+04 -0.21949279063E+03 -0.31625278298E+03  0.11989556473E+04  0.10418406252E+03 0.  0.
         13    1    3    3    0    0  0.13307630441E+03 -0.40055078292E+02 -0.67455192086E+01  0.13913739296E+03  0.00000000000E+00 0. -1.
        -13    1    3    3    0    0  0.99760818631E+03 -0.17943771233E+03 -0.30950726377E+03  0.10598182544E+04  0.00000000000E+00 0.  1.
         22    1    1    2    0    0 -0.11306844907E+04  0.21949279063E+03 -0.13765842724E+03  0.11599889419E+04  0.00000000000E+00 0.  1.
<mgrwt>
<rscale>  0 0.23148616E+04</rscale>
<asrwt>0</asrwt>
<pdfrwt beam="1">  1        2 0.21637352E+00 0.23148616E+04</pdfrwt>
<pdfrwt beam="2">  1       -2 0.14654103E+00 0.23148616E+04</pdfrwt>
<totfact> 0.41413032E+00</totfact>
</mgrwt>
</event>
<event>
 6    1  0.1568961E-005  0.4570410E+04  0.7818608E-02  0.7898425E-01
          2   -1    0    0  501    0  0.00000000000E+00  0.00000000000E+00  0.10241914154E+04  0.10241914154E+04  0.00000000000E+00 0.  1.
         -2   -1    0    0    0  501 -0.00000000000E+00 -0.00000000000E+00 -0.50988154226E+04  0.50988154226E+04  0.00000000000E+00 0. -1.
         23    2    1    2    0    0 -0.15031421364E+04  0.13941247919E+04 -0.68855753674E+03  0.21646654733E+04  0.92978021585E+02 0.  0.
         13    1    3    3    0    0 -0.40829444072E+03  0.41883630137E+03 -0.16494172417E+03  0.60772853318E+03  0.00000000000E+00 0.  1.
        -13    1    3    3    0    0 -0.10948476956E+04  0.97528849056E+03 -0.52361581257E+03  0.15569369402E+04  0.00000000000E+00 0. -1.
         22    1    1    2    0    0  0.15031421364E+04 -0.13941247919E+04 -0.33860664705E+04  0.39583413648E+04  0.00000000000E+00 0. -1.
<mgrwt>
<rscale>  0 0.45704105E+04</rscale>
<asrwt>0</asrwt>
<pdfrwt beam="1">  1        2 0.15756791E+00 0.45704105E+04</pdfrwt>
<pdfrwt beam="2">  1       -2 0.78443315E+00 0.45704105E+04</pdfrwt>
<totfact> 0.17689797E-03</totfact>
</mgrwt>
</event>
<event>
 6    1  0.1568961E-005  0.2074271E+04  0.7818608E-02  0.8572663E-01
         -2   -1    0    0    0  501 -0.00000000000E+00  0.00000000000E+00  0.10535107135E+04  0.10535107135E+04  0.00000000000E+00 0.  1.
          2   -1    0    0  501    0  0.00000000000E+00 -0.00000000000E+00 -0.10210151146E+04  0.10210151146E+04  0.00000000000E+00 0. -1.
         23    2    1    2    0    0 -0.93274539785E+03  0.46432925755E+02  0.46280854700E+03  0.10462558114E+04  0.91046570212E+02 0.  0.
         11    1    3    3    0    0 -0.62437605297E+03  0.70491540783E+02  0.29131492023E+03  0.69258854711E+03  0.00000000000E+00 0. -1.
        -11    1    3    3    0    0 -0.30836934489E+03 -0.24058615028E+02  0.17149362677E+03  0.35366726431E+03  0.00000000000E+00 0.  1.
         22    1    1    2    0    0  0.93274539785E+03 -0.46432925755E+02 -0.43031294813E+03  0.10282700166E+04  0.00000000000E+00 0. -1.
<mgrwt>
<rscale>  0 0.20742713E+04</rscale>
<asrwt>0</asrwt>
<pdfrwt beam="1">  1        2 0.15707925E+00 0.20742713E+04</pdfrwt>
<pdfrwt beam="2">  1       -2 0.16207857E+00 0.20742713E+04</pdfrwt>
<totfact> 0.54828878E+00</totfact>
</mgrwt>
</event>
<event>
 6    1  0.1568961E-005  0.4102712E+04  0.7818608E-02  0.7984141E-01
          2   -1    0    0  501    0  0.00000000000E+00  0.00000000000E+00  0.22669071451E+04  0.22669071451E+04  0.00000000000E+00 0. -1.
         -2   -1    0    0    0  501 -0.00000000000E+00 -0.00000000000E+00 -0.18563011710E+04  0.18563011710E+04  0.00000000000E+00 0.  1.
         23    2    1    2    0    0 -0.65899023526E+03  0.15594044064E+04 -0.95570301469E+03  0.19477059636E+04  0.11907995323E+03 0.  0.
         13    1    3    3    0    0 -0.45648421431E+03  0.11360413625E+04 -0.63412872386E+03  0.13787991346E+04  0.00000000000E+00 0. -1.
        -13    1    3    3    0    0 -0.20250602096E+03  0.42336304390E+03 -0.32157429083E+03  0.56890682892E+03  0.00000000000E+00 0.  1.
         22    1    1    2    0    0  0.65899023526E+03 -0.15594044064E+04  0.13663089888E+04  0.21755023525E+04  0.00000000000E+00 0. -1.
<mgrwt>
<rscale>  0 0.41027125E+04</rscale>
<asrwt>0</asrwt>
<pdfrwt beam="1">  1        2 0.34875494E+00 0.41027125E+04</pdfrwt>
<pdfrwt beam="2">  1       -2 0.28558480E+00 0.41027125E+04</pdfrwt>
<totfact> 0.14420334E-01</totfact>
</mgrwt>
</event>
<event>
 6    1  0.1568961E-005  0.5391598E+03  0.7818608E-02  0.1004035E+00
          2   -1    0    0  501    0  0.00000000000E+00  0.00000000000E+00  0.36329492598E+03  0.36329492598E+03  0.00000000000E+00 0. -1.
         -2   -1    0    0    0  501 -0.00000000000E+00 -0.00000000000E+00 -0.20003947884E+03  0.20003947884E+03  0.00000000000E+00 0.  1.
         23    2    1    2    0    0  0.70529615956E+02  0.22203323182E+03  0.20864241169E+03  0.32598832983E+03  0.91997567716E+02 0.  0.
         13    1    3    3    0    0  0.91323165249E+02  0.18137200007E+03  0.15451221014E+03  0.25516611453E+03  0.00000000000E+00 0.  1.
        -13    1    3    3    0    0 -0.20793549292E+02  0.40661231750E+02  0.54130201550E+02  0.70822215297E+02  0.00000000000E+00 0. -1.
         22    1    1    2    0    0 -0.70529615956E+02 -0.22203323182E+03 -0.45386964555E+02  0.23734607499E+03  0.00000000000E+00 0.  1.
<mgrwt>
<rscale>  0 0.53915982E+03</rscale>
<asrwt>0</asrwt>
<pdfrwt beam="1">  1        2 0.55891527E-01 0.53915982E+03</pdfrwt>
<pdfrwt beam="2">  1       -2 0.30775305E-01 0.53915982E+03</pdfrwt>
<totfact> 0.86929494E+02</totfact>
</mgrwt>
</event>
<event>
 6    1  0.1568961E-005  0.1392969E+04  0.7818608E-02  0.8958923E-01
         -2   -1    0    0    0  501 -0.00000000000E+00  0.00000000000E+00  0.40499690877E+03  0.40499690877E+03  0.00000000000E+00 0.  1.
          2   -1    0    0  501    0  0.00000000000E+00 -0.00000000000E+00 -0.11977646186E+04  0.11977646186E+04  0.00000000000E+00 0. -1.
         23    2    1    2    0    0 -0.11361237819E+02  0.53095805997E+03  0.11507180185E+03  0.55099248518E+03  0.91135393624E+02 0.  0.
         11    1    3    3    0    0  0.60312834916E+01  0.43849048547E+03  0.12599120185E+03  0.45627192021E+03  0.00000000000E+00 0. -1.
        -11    1    3    3    0    0 -0.17392521310E+02  0.92467574496E+02 -0.10919400005E+02  0.94720564964E+02  0.00000000000E+00 0.  1.
         22    1    1    2    0    0  0.11361237819E+02 -0.53095805997E+03 -0.90783951166E+03  0.10517690422E+04  0.00000000000E+00 0. -1.
<mgrwt>
<rscale>  0 0.13929694E+04</rscale>
<asrwt>0</asrwt>
<pdfrwt beam="1">  1        2 0.18427147E+00 0.13929694E+04</pdfrwt>
<pdfrwt beam="2">  1       -2 0.62307219E-01 0.13929694E+04</pdfrwt>
<totfact> 0.44225925E+01</totfact>
</mgrwt>
</event>
<event>
 6    1  0.1568961E-005  0.2193527E+04  0.7818608E-02  0.8521127E-01
         -1   -1    0    0    0  501 -0.00000000000E+00  0.00000000000E+00  0.56153904336E+03  0.56153904336E+03  0.00000000000E+00 0.  1.
          1   -1    0    0  501    0  0.00000000000E+00 -0.00000000000E+00 -0.21421316602E+04  0.21421316602E+04  0.00000000000E+00 0. -1.
         23    2    1    2    0    0  0.71040155163E+03 -0.83147355505E+03 -0.85241171643E+03  0.13897962571E+04  0.94388901296E+02 0.  0.
         13    1    3    3    0    0  0.50293184174E+03 -0.62153494227E+03 -0.57585889023E+03  0.98532207088E+03  0.00000000000E+00 0.  1.
        -13    1    3    3    0    0  0.20746970988E+03 -0.20993861278E+03 -0.27655282619E+03  0.40447418623E+03  0.00000000000E+00 0. -1.
         22    1    1    2    0    0 -0.71040155163E+03  0.83147355505E+03 -0.72818090043E+03  0.13138744465E+04  0.00000000000E+00 0. -1.
<mgrwt>
<rscale>  0 0.21935274E+04</rscale>
<asrwt>0</asrwt>
<pdfrwt beam="1">  1        1 0.32955871E+00 0.21935274E+04</pdfrwt>
<pdfrwt beam="2">  1       -1 0.86390624E-01 0.21935274E+04</pdfrwt>
<totfact> 0.28756275E+00</totfact>
</mgrwt>
</event>
<event>
 6    1  0.1568961E-005  0.3037715E+04  0.7818608E-02  0.8233042E-01
          2   -1    0    0  501    0  0.00000000000E+00  0.00000000000E+00  0.21273290819E+04  0.21273290819E+04  0.00000000000E+00 0. -1.
         -2   -1    0    0    0  501 -0.00000000000E+00 -0.00000000000E+00 -0.10844248216E+04  0.10844248216E+04  0.00000000000E+00 0.  1.
         23    2    1    2    0    0  0.74060263535E+03 -0.10949465655E+04  0.13099724191E+04  0.18631525367E+04  0.88934760556E+02 0.  0.
         13    1    3    3    0    0  0.96781078868E+02 -0.95251361377E+02  0.13155638305E+03  0.18906739801E+03  0.00000000000E+00 0. -1.
        -13    1    3    3    0    0  0.64382155649E+03 -0.99969520414E+03  0.11784160360E+04  0.16740851387E+04  0.00000000000E+00 0.  1.
         22    1    1    2    0    0 -0.74060263535E+03  0.10949465655E+04 -0.26706815880E+03  0.13486013667E+04  0.00000000000E+00 0.  1.
<mgrwt>
<rscale>  0 0.30377152E+04</rscale>
<asrwt>0</asrwt>
<pdfrwt beam="1">  1        2 0.32728140E+00 0.30377152E+04</pdfrwt>
<pdfrwt beam="2">  1       -2 0.16683459E+00 0.30377152E+04</pdfrwt>
<totfact> 0.10870471E+00</totfact>
</mgrwt>
</event>
<event>
 6    1  0.1568961E-005  0.1969600E+04  0.7818608E-02  0.8620967E-01
         -1   -1    0    0    0  501 -0.00000000000E+00  0.00000000000E+00  0.62984900835E+03  0.62984900835E+03  0.00000000000E+00 0.  1.
          1   -1    0    0  501    0  0.00000000000E+00 -0.00000000000E+00 -0.15397828811E+04  0.15397828811E+04  0.00000000000E+00 0. -1.
         23    2    1    2    0    0  0.36852918170E+03 -0.42668426071E+03  0.43050630115E+03  0.71544721208E+03  0.93036669337E+02 0.  0.
         13    1    3    3    0    0  0.69127512402E+02 -0.13001533019E+03  0.14283383682E+03  0.20514410544E+03  0.00000000000E+00 0. -1.
        -13    1    3    3    0    0  0.29940166930E+03 -0.29666893052E+03  0.28767246433E+03  0.51030310664E+03  0.00000000000E+00 0.  1.
         22    1    1    2    0    0 -0.36852918170E+03  0.42668426071E+03 -0.13404401739E+04  0.14541846773E+04  0.00000000000E+00 0. -1.
<mgrwt>
<rscale>  0 0.19695997E+04</rscale>
<asrwt>0</asrwt>
<pdfrwt beam="1">  1        1 0.23688967E+00 0.19695997E+04</pdfrwt>
<pdfrwt beam="2">  1       -1 0.96899847E-01 0.19695997E+04</pdfrwt>
<totfact> 0.58468163E+00</totfact>
</mgrwt>
</event>
<event>
 6    1  0.1568961E-005  0.2593531E+04  0.7818608E-02  0.8370402E-01
         -2   -1    0    0    0  501 -0.00000000000E+00  0.00000000000E+00  0.10690859009E+04  0.10690859009E+04  0.00000000000E+00 0.  1.
          2   -1    0    0  501    0  0.00000000000E+00 -0.00000000000E+00 -0.15729328347E+04  0.15729328347E+04  0.00000000000E+00 0. -1.
         23    2    1    2    0    0  0.59524076361E+02  0.83780260458E+03  0.75208969577E+03  0.11311139943E+04  0.91233971934E+02 0.  0.
         11    1    3    3    0    0  0.21518206319E+02  0.19872495907E+03  0.12998962475E+03  0.23843645926E+03  0.00000000000E+00 0. -1.
        -11    1    3    3    0    0  0.38005870043E+02  0.63907764551E+03  0.62210007102E+03  0.89267753501E+03  0.00000000000E+00 0.  1.
         22    1    1    2    0    0 -0.59524076361E+02 -0.83780260458E+03 -0.12559366295E+04  0.15109047413E+04  0.00000000000E+00 0. -1.
<mgrwt>
<rscale>  0 0.25935307E+04</rscale>
<asrwt>0</asrwt>
<pdfrwt beam="1">  1        2 0.24198967E+00 0.25935307E+04</pdfrwt>
<pdfrwt beam="2">  1       -2 0.16447475E+00 0.25935307E+04</pdfrwt>
<totfact> 0.23875498E+00</totfact>
</mgrwt>
</event>
<event>
 6    1  0.1568961E-005  0.2894795E+04  0.7818608E-02  0.8274428E-01
          1   -1    0    0  501    0  0.00000000000E+00  0.00000000000E+00  0.17703274878E+04  0.17703274878E+04  0.00000000000E+00 0. -1.
         -1   -1    0    0    0  501 -0.00000000000E+00 -0.00000000000E+00 -0.11833742325E+04  0.11833742325E+04  0.00000000000E+00 0.  1.
         23    2    1    2    0    0 -0.31645114445E+03 -0.83929726128E+03  0.14509806079E+04  0.17082682673E+04  0.90964437137E+02 0.  0.
         11    1    3    3    0    0 -0.28632105418E+03 -0.65749966785E+03  0.11412430651E+04  0.13478580389E+04  0.00000000000E+00 0.  1.
        -11    1    3    3    0    0 -0.30130090278E+02 -0.18179759343E+03  0.30973754283E+03  0.36041022843E+03  0.00000000000E+00 0. -1.
         22    1    1    2    0    0  0.31645114445E+03  0.83929726128E+03 -0.86402735262E+03  0.12454334529E+04  0.00000000000E+00 0.  1.
<mgrwt>
<rscale>  0 0.28947953E+04</rscale>
<asrwt>0</asrwt>
<pdfrwt beam="1">  1        1 0.27235807E+00 0.28947953E+04</pdfrwt>
<pdfrwt beam="2">  1       -1 0.18205758E+00 0.28947953E+04</pdfrwt>
<totfact> 0.73727029E-01</totfact>
</mgrwt>
</event>
<event>
 6    1  0.1568961E-005  0.2442345E+04  0.7818608E-02  0.8423818E-01
         -2   -1    0    0    0  501 -0.00000000000E+00  0.00000000000E+00  0.17374022176E+04  0.17374022176E+04  0.00000000000E+00 0.  1.
          2   -1    0    0  501    0  0.00000000000E+00 -0.00000000000E+00 -0.85832863412E+03  0.85832863412E+03  0.00000000000E+00 0. -1.
         23    2    1    2    0    0 -0.55818732966E+03 -0.79496726216E+03  0.12236894117E+04  0.15650484992E+04  0.91733230564E+02 0.  0.
         13    1    3    3    0    0 -0.30211746050E+03 -0.41242191121E+03  0.71523558672E+03  0.87916365786E+03  0.00000000000E+00 0. -1.
        -13    1    3    3    0    0 -0.25606986915E+03 -0.38254535095E+03  0.50845382498E+03  0.68588484132E+03  0.00000000000E+00 0.  1.
         22    1    1    2    0    0  0.55818732966E+03  0.79496726216E+03 -0.34461582818E+03  0.10306823526E+04  0.00000000000E+00 0. -1.
<mgrwt>
<rscale>  0 0.24423448E+04</rscale>
<asrwt>0</asrwt>
<pdfrwt beam="1">  1        2 0.13205056E+00 0.24423448E+04</pdfrwt>
<pdfrwt beam="2">  1       -2 0.26729265E+00 0.24423448E+04</pdfrwt>
<totfact> 0.14129126E+00</totfact>
</mgrwt>
</event>
<event>
 6    1  0.1568961E-005  0.2081606E+04  0.7818608E-02  0.8569390E-01
          2   -1    0    0  501    0  0.00000000000E+00  0.00000000000E+00  0.29240724556E+04  0.29240724556E+04  0.00000000000E+00 0. -1.
         -2   -1    0    0    0  501 -0.00000000000E+00 -0.00000000000E+00 -0.37046636342E+03  0.37046636342E+03  0.00000000000E+00 0.  1.
         23    2    1    2    0    0  0.21005646007E+03  0.78277005854E+03  0.25106089960E+03  0.85352119416E+03  0.92812567104E+02 0.  0.
         11    1    3    3    0    0  0.15651750837E+03  0.62794839468E+03  0.16229698202E+03  0.66720103956E+03  0.00000000000E+00 0. -1.
        -11    1    3    3    0    0  0.53538951708E+02  0.15482166385E+03  0.88763917576E+02  0.18632015461E+03  0.00000000000E+00 0.  1.
         22    1    1    2    0    0 -0.21005646007E+03 -0.78277005854E+03  0.23025451926E+04  0.24410176249E+04  0.00000000000E+00 0. -1.
<mgrwt>
<rscale>  0 0.20816056E+04</rscale>
<asrwt>0</asrwt>
<pdfrwt beam="1">  1        2 0.44985729E+00 0.20816056E+04</pdfrwt>
<pdfrwt beam="2">  1       -2 0.56994827E-01 0.20816056E+04</pdfrwt>
<totfact> 0.51794590E+00</totfact>
</mgrwt>
</event>
<event>
 6    1  0.1568961E-005  0.1405688E+04  0.7818608E-02  0.8949711E-01
          2   -1    0    0  501    0  0.00000000000E+00  0.00000000000E+00  0.15219958832E+04  0.15219958832E+04  0.00000000000E+00 0. -1.
         -2   -1    0    0    0  501 -0.00000000000E+00 -0.00000000000E+00 -0.32456724072E+03  0.32456724072E+03  0.00000000000E+00 0.  1.
         23    2    1    2    0    0 -0.65087271719E+03  0.12419656140E+03  0.30488980973E+03  0.73494914064E+03  0.90179617424E+02 0.  0.
         13    1    3    3    0    0 -0.56360164033E+03  0.98431892694E+02  0.29415969479E+03  0.64332384732E+03  0.00000000000E+00 0.  1.
        -13    1    3    3    0    0 -0.87271076861E+02  0.25764668710E+02  0.10730114939E+02  0.91625293325E+02  0.00000000000E+00 0. -1.
         22    1    1    2    0    0  0.65087271719E+03 -0.12419656140E+03  0.89253883276E+03  0.11116139833E+04  0.00000000000E+00 0. -1.
<mgrwt>
<rscale>  0 0.14056884E+04</rscale>
<asrwt>0</asrwt>
<pdfrwt beam="1">  1        2 0.23415321E+00 0.14056884E+04</pdfrwt>
<pdfrwt beam="2">  1       -2 0.49933423E-01 0.14056884E+04</pdfrwt>
<totfact> 0.45531444E+01</totfact>
</mgrwt>
</event>
<event>
 6    1  0.1568961E-005  0.2531991E+04  0.7818608E-02  0.8391676E-01
          2   -1    0    0  501    0  0.00000000000E+00  0.00000000000E+00  0.20424177364E+04  0.20424177364E+04  0.00000000000E+00 0. -1.
         -2   -1    0    0    0  501 -0.00000000000E+00 -0.00000000000E+00 -0.78472937670E+03  0.78472937670E+03  0.00000000000E+00 0.  1.
         23    2    1    2    0    0  0.33019543137E+03 -0.34532859981E+03  0.19368582168E+04  0.19967540979E+04  0.85593870761E+02 0.  0.
         11    1    3    3    0    0  0.28369746666E+03 -0.32890351409E+03  0.17851494755E+04  0.18372317285E+04  0.00000000000E+00 0.  1.
        -11    1    3    3    0    0  0.46497964709E+02 -0.16425085722E+02  0.15170874132E+03  0.15952236946E+03  0.00000000000E+00 0. -1.
         22    1    1    2    0    0 -0.33019543137E+03  0.34532859981E+03 -0.67916985716E+03  0.83039301516E+03  0.00000000000E+00 0.  1.
<mgrwt>
<rscale>  0 0.25319915E+04</rscale>
<asrwt>0</asrwt>
<pdfrwt beam="1">  1        2 0.31421811E+00 0.25319915E+04</pdfrwt>
<pdfrwt beam="2">  1       -2 0.12072760E+00 0.25319915E+04</pdfrwt>
<totfact> 0.29440240E+00</totfact>
</mgrwt>
</event>
<event>
 6    1  0.1568961E-005  0.1310179E+04  0.7818608E-02  0.9021532E-01
          2   -1    0    0  501    0  0.00000000000E+00  0.00000000000E+00  0.12344089582E+04  0.12344089582E+04  0.00000000000E+00 0. -1.
         -2   -1    0    0    0  501 -0.00000000000E+00 -0.00000000000E+00 -0.34764982900E+03  0.34764982900E+03  0.00000000000E+00 0.  1.
         23    2    1    2    0    0 -0.23970075853E+03  0.58115858285E+03  0.23731814852E+03  0.67819190573E+03  0.91774753195E+02 0.  0.
         11    1    3    3    0    0 -0.13391604992E+03  0.25590467814E+03  0.68807422406E+02  0.29690937018E+03  0.00000000000E+00 0.  1.
        -11    1    3    3    0    0 -0.10578470861E+03  0.32525390471E+03  0.16851072612E+03  0.38128253556E+03  0.00000000000E+00 0. -1.
         22    1    1    2    0    0  0.23970075853E+03 -0.58115858285E+03  0.64944098071E+03  0.90386688151E+03  0.00000000000E+00 0. -1.
<mgrwt>
<rscale>  0 0.13101787E+04</rscale>
<asrwt>0</asrwt>
<pdfrwt beam="1">  1        2 0.18990907E+00 0.13101787E+04</pdfrwt>
<pdfrwt beam="2">  1       -2 0.53484590E-01 0.13101787E+04</pdfrwt>
<totfact> 0.58295506E+01</totfact>
</mgrwt>
</event>
<event>
 6    1  0.1568961E-005  0.2698084E+04  0.7818608E-02  0.8335627E-01
          2   -1    0    0  501    0  0.00000000000E+00  0.00000000000E+00  0.13147079746E+04  0.13147079746E+04  0.00000000000E+00 0. -1.
         -2   -1    0    0    0  501 -0.00000000000E+00 -0.00000000000E+00 -0.13842727314E+04  0.13842727314E+04  0.00000000000E+00 0.  1.
         23    2    1    2    0    0 -0.42421051106E+03 -0.12242995267E+04 -0.40417270828E+03  0.13607630967E+04  0.97245764024E+02 0.  0.
         13    1    3    3    0    0 -0.29635546507E+03 -0.84831032864E+03 -0.32677310890E+03  0.95615774852E+03  0.00000000000E+00 0.  1.
        -13    1    3    3    0    0 -0.12785504600E+03 -0.37598919802E+03 -0.77399599375E+02  0.40460534820E+03  0.00000000000E+00 0. -1.
         22    1    1    2    0    0  0.42421051106E+03  0.12242995267E+04  0.33460795148E+03  0.13382176093E+04  0.00000000000E+00 0. -1.
<mgrwt>
<rscale>  0 0.26980841E+04</rscale>
<asrwt>0</asrwt>
<pdfrwt beam="1">  1        2 0.20226277E+00 0.26980841E+04</pdfrwt>
<pdfrwt beam="2">  1       -2 0.21296503E+00 0.26980841E+04</pdfrwt>
<totfact> 0.15586122E+00</totfact>
</mgrwt>
</event>
<event>
 6    1  0.1568961E-005  0.2236693E+04  0.7818608E-02  0.8503309E-01
          1   -1    0    0  501    0  0.00000000000E+00  0.00000000000E+00  0.84306165062E+03  0.84306165062E+03  0.00000000000E+00 0. -1.
         -1   -1    0    0    0  501 -0.00000000000E+00 -0.00000000000E+00 -0.14835201887E+04  0.14835201887E+04  0.00000000000E+00 0.  1.
         23    2    1    2    0    0 -0.96177381218E+03  0.34408298344E+02  0.26789360836E+03  0.10032162743E+04  0.92103804192E+02 0.  0.
         13    1    3    3    0    0 -0.63855805132E+03 -0.19547549273E+02  0.16644797107E+03  0.66018438232E+03  0.00000000000E+00 0. -1.
        -13    1    3    3    0    0 -0.32321576086E+03  0.53955847617E+02  0.10144563729E+03  0.34303189194E+03  0.00000000000E+00 0.  1.
         22    1    1    2    0    0  0.96177381218E+03 -0.34408298344E+02 -0.90835214640E+03  0.13233655650E+04  0.00000000000E+00 0.  1.
<mgrwt>
<rscale>  0 0.22366931E+04</rscale>
<asrwt>0</asrwt>
<pdfrwt beam="1">  1        1 0.12970179E+00 0.22366931E+04</pdfrwt>
<pdfrwt beam="2">  1       -1 0.22823387E+00 0.22366931E+04</pdfrwt>
<totfact> 0.17890381E+00</totfact>
</mgrwt>
</event>
<event>
 6    1  0.1568961E-005  0.8009652E+03  0.7818608E-02  0.9558621E-01
          1   -1    0    0  501    0  0.00000000000E+00  0.00000000000E+00  0.16290984646E+03  0.16290984646E+03  0.00000000000E+00 0. -1.
         -1   -1    0    0    0  501 -0.00000000000E+00 -0.00000000000E+00 -0.98450966274E+03  0.98450966274E+03  0.00000000000E+00 0.  1.
         23    2    1    2    0    0 -0.25387727857E+03  0.41919039936E+02  0.13800057470E+02  0.27328918279E+03  0.91025586307E+02 0.  0.
         13    1    3    3    0    0 -0.20239066671E+03  0.11275654752E+02 -0.21347063024E+02  0.20382546323E+03  0.00000000000E+00 0.  1.
        -13    1    3    3    0    0 -0.51486611856E+02  0.30643385184E+02  0.35147120494E+02  0.69463719559E+02  0.00000000000E+00 0. -1.
         22    1    1    2    0    0  0.25387727857E+03 -0.41919039936E+02 -0.83539987375E+03  0.87413032641E+03  0.00000000000E+00 0.  1.
<mgrwt>
<rscale>  0 0.80096521E+03</rscale>
<asrwt>0</asrwt>
<pdfrwt beam="1">  1        1 0.25063053E-01 0.80096521E+03</pdfrwt>
<pdfrwt beam="2">  1       -1 0.15146302E+00 0.80096521E+03</pdfrwt>
<totfact> 0.67116090E+01</totfact>
</mgrwt>
</event>
<event>
 6    1  0.1568961E-005  0.1214133E+04  0.7818608E-02  0.9100575E-01
          1   -1    0    0  501    0  0.00000000000E+00  0.00000000000E+00  0.46103493893E+03  0.46103493893E+03  0.00000000000E+00 0. -1.
         -1   -1    0    0    0  501 -0.00000000000E+00 -0.00000000000E+00 -0.79935260790E+03  0.79935260790E+03  0.00000000000E+00 0.  1.
         23    2    1    2    0    0 -0.12704790212E+03  0.65285620994E+02 -0.77883724685E+03  0.79728833474E+03  0.93154977765E+02 0.  0.
         13    1    3    3    0    0 -0.95588554331E+02  0.33536891447E+01 -0.34877884801E+03  0.36165605729E+03  0.00000000000E+00 0. -1.
        -13    1    3    3    0    0 -0.31459347789E+02  0.61931931849E+02 -0.43005839884E+03  0.43563227745E+03  0.00000000000E+00 0.  1.
         22    1    1    2    0    0  0.12704790212E+03 -0.65285620994E+02  0.44051957788E+03  0.46309921209E+03  0.00000000000E+00 0. -1.
<mgrwt>
<rscale>  0 0.12141326E+04</rscale>
<asrwt>0</asrwt>
<pdfrwt beam="1">  1        1 0.70928452E-01 0.12141326E+04</pdfrwt>
<pdfrwt beam="2">  1       -1 0.12297732E+00 0.12141326E+04</pdfrwt>
<totfact> 0.28558277E+01</totfact>
</mgrwt>
</event>
<event>
 6    1  0.1568961E-005  0.4739589E+04  0.7818608E-02  0.7869984E-01
         -2   -1    0    0    0  501 -0.00000000000E+00  0.00000000000E+00  0.18505813686E+04  0.18505813686E+04  0.00000000000E+00 0.  1.
          2   -1    0    0  501    0  0.00000000000E+00 -0.00000000000E+00 -0.30346824421E+04  0.30346824421E+04  0.00000000000E+00 0. -1.
         23    2    1    2    0    0  0.18012180181E+04  0.12682520964E+04  0.30566981726E+03  0.22258903814E+04  0.91127515966E+02 0.  0.
         11    1    3    3    0    0  0.13547875696E+04  0.97856600790E+03  0.26546238425E+03  0.16921912032E+04  0.00000000000E+00 0. -1.
        -11    1    3    3    0    0  0.44643044853E+03  0.28968608847E+03  0.40207433013E+02  0.53369917828E+03  0.00000000000E+00 0.  1.
         22    1    1    2    0    0 -0.18012180181E+04 -0.12682520964E+04 -0.14897708908E+04  0.26593734292E+04  0.00000000000E+00 0. -1.
<mgrwt>
<rscale>  0 0.47395893E+04</rscale>
<asrwt>0</asrwt>
<pdfrwt beam="1">  1        2 0.46687422E+00 0.47395893E+04</pdfrwt>
<pdfrwt beam="2">  1       -2 0.28470483E+00 0.47395893E+04</pdfrwt>
<totfact> 0.48481536E-02</totfact>
</mgrwt>
</event>
<event>
 6    1  0.1568961E-005  0.4042340E+04  0.7818608E-02  0.7996059E-01
         -1   -1    0    0    0  501 -0.00000000000E+00  0.00000000000E+00  0.13998598494E+04  0.13998598494E+04  0.00000000000E+00 0.  1.
          1   -1    0    0  501    0  0.00000000000E+00 -0.00000000000E+00 -0.29182407907E+04  0.29182407907E+04  0.00000000000E+00 0. -1.
         23    2    1    2    0    0 -0.28724838199E+03  0.17245331223E+04  0.32167651856E+03  0.17799246063E+04  0.90164841745E+02 0.  0.
         13    1    3    3    0    0 -0.77807149855E+02  0.28819666207E+03  0.72096535286E+02  0.30709799575E+03  0.00000000000E+00 0. -1.
        -13    1    3    3    0    0 -0.20944123214E+03  0.14363364602E+04  0.24957998327E+03  0.14728266105E+04  0.00000000000E+00 0.  1.
         22    1    1    2    0    0  0.28724838199E+03 -0.17245331223E+04 -0.18400574598E+04  0.25381760338E+04  0.00000000000E+00 0. -1.
<mgrwt>
<rscale>  0 0.40423400E+04</rscale>
<asrwt>0</asrwt>
<pdfrwt beam="1">  1        1 0.44896012E+00 0.40423400E+04</pdfrwt>
<pdfrwt beam="2">  1       -1 0.21536305E+00 0.40423400E+04</pdfrwt>
<totfact> 0.63184798E-02</totfact>
</mgrwt>
</event>
<event>
 6    1  0.1568961E-005  0.2266527E+04  0.7818608E-02  0.8491237E-01
         -1   -1    0    0    0  501 -0.00000000000E+00  0.00000000000E+00  0.97186084614E+03  0.97186084614E+03  0.00000000000E+00 0.  1.
          1   -1    0    0  501    0  0.00000000000E+00 -0.00000000000E+00 -0.13214711309E+04  0.13214711309E+04  0.00000000000E+00 0. -1.
         23    2    1    2    0    0 -0.45825710129E+03 -0.77562622284E+03 -0.86776828970E+03  0.12540614029E+04  0.89736219428E+02 0.  0.
         13    1    3    3    0    0 -0.13758276914E+03 -0.28938386511E+03 -0.35282281991E+03  0.47660883542E+03  0.00000000000E+00 0.  1.
        -13    1    3    3    0    0 -0.32067433216E+03 -0.48624235773E+03 -0.51494546978E+03  0.77745256743E+03  0.00000000000E+00 0. -1.
         22    1    1    2    0    0  0.45825710129E+03  0.77562622284E+03  0.51815800489E+03  0.10392705742E+04  0.00000000000E+00 0.  1.
<mgrwt>
<rscale>  0 0.22665269E+04</rscale>
<asrwt>0</asrwt>
<pdfrwt beam="1">  1        1 0.20330325E+00 0.22665269E+04</pdfrwt>
<pdfrwt beam="2">  1       -1 0.14951705E+00 0.22665269E+04</pdfrwt>
<totfact> 0.27860007E+00</totfact>
</mgrwt>
</event>
<event>
 6    1  0.1568961E-005  0.4169645E+04  0.7818608E-02  0.7971172E-01
          2   -1    0    0  501    0  0.00000000000E+00  0.00000000000E+00  0.35122550286E+04  0.35122550286E+04  0.00000000000E+00 0.  1.
         -2   -1    0    0    0  501 -0.00000000000E+00 -0.00000000000E+00 -0.12375197450E+04  0.12375197450E+04  0.00000000000E+00 0. -1.
         23    2    1    2    0    0  0.10967335380E+04  0.17696155726E+04  0.10371148858E+04  0.23277780813E+04  0.92627109266E+02 0.  0.
         11    1    3    3    0    0  0.56727946190E+03  0.98895509890E+03  0.53968156387E+03  0.12613858910E+04  0.00000000000E+00 0. -1.
        -11    1    3    3    0    0  0.52945407613E+03  0.78066047370E+03  0.49743332190E+03  0.10663921904E+04  0.00000000000E+00 0.  1.
         22    1    1    2    0    0 -0.10967335380E+04 -0.17696155726E+04  0.12376203979E+04  0.24219966923E+04  0.00000000000E+00 0. -1.
<mgrwt>
<rscale>  0 0.41696450E+04</rscale>
<asrwt>0</asrwt>
<pdfrwt beam="1">  1        2 0.54034692E+00 0.41696450E+04</pdfrwt>
<pdfrwt beam="2">  1       -2 0.19038765E+00 0.41696450E+04</pdfrwt>
<totfact> 0.95381394E-02</totfact>
</mgrwt>
</event>
<event>
 6    1  0.1568961E-005  0.1578315E+04  0.7818608E-02  0.8833982E-01
         -2   -1    0    0    0  501 -0.00000000000E+00  0.00000000000E+00  0.35279589912E+03  0.35279589912E+03  0.00000000000E+00 0.  1.
          2   -1    0    0  501    0  0.00000000000E+00 -0.00000000000E+00 -0.17652394939E+04  0.17652394939E+04  0.00000000000E+00 0. -1.
         23    2    1    2    0    0  0.29028842986E+03  0.35419378432E+03 -0.15666839265E+04  0.16348059555E+04  0.91495229647E+02 0.  0.
         11    1    3    3    0    0  0.20783965207E+03  0.21003532997E+03 -0.11174861796E+04  0.11558925220E+04  0.00000000000E+00 0.  1.
        -11    1    3    3    0    0  0.82448777796E+02  0.14415845435E+03 -0.44919774689E+03  0.47891343344E+03  0.00000000000E+00 0. -1.
         22    1    1    2    0    0 -0.29028842986E+03 -0.35419378432E+03  0.15424033175E+03  0.48322943754E+03  0.00000000000E+00 0.  1.
<mgrwt>
<rscale>  0 0.15783146E+04</rscale>
<asrwt>0</asrwt>
<pdfrwt beam="1">  1        2 0.27157530E+00 0.15783146E+04</pdfrwt>
<pdfrwt beam="2">  1       -2 0.54276293E-01 0.15783146E+04</pdfrwt>
<totfact> 0.27688528E+01</totfact>
</mgrwt>
</event>
<event>
 6    1  0.1568961E-005  0.1934436E+04  0.7818608E-02  0.8637903E-01
         -2   -1    0    0    0  501 -0.00000000000E+00  0.00000000000E+00  0.87783835005E+03  0.87783835005E+03  0.00000000000E+00 0.  1.
          2   -1    0    0  501    0  0.00000000000E+00 -0.00000000000E+00 -0.10656985762E+04  0.10656985762E+04  0.00000000000E+00 0. -1.
         23    2    1    2    0    0  0.86164774937E+02  0.69146373966E+03  0.57778497451E+03  0.90827896565E+03  0.74757815544E+02 0.  0.
         13    1    3    3    0    0  0.32815544819E+02  0.31833685416E+03  0.21809372758E+03  0.38727262582E+03  0.00000000000E+00 0.  1.
        -13    1    3    3    0    0  0.53349230118E+02  0.37312688550E+03  0.35969124693E+03  0.52100633984E+03  0.00000000000E+00 0. -1.
         22    1    1    2    0    0 -0.86164774937E+02 -0.69146373966E+03 -0.76564520069E+03  0.10352579606E+04  0.00000000000E+00 0. -1.
<mgrwt>
<rscale>  0 0.19344364E+04</rscale>
<asrwt>0</asrwt>
<pdfrwt beam="1">  1        2 0.16395363E+00 0.19344364E+04</pdfrwt>
<pdfrwt beam="2">  1       -2 0.13505205E+00 0.19344364E+04</pdfrwt>
<totfact> 0.84236573E+00</totfact>
</mgrwt>
</event>
<event>
 6    1  0.1568961E-005  0.2430079E+04  0.7818608E-02  0.8428327E-01
          1   -1    0    0  501    0  0.00000000000E+00  0.00000000000E+00  0.12858917059E+04  0.12858917059E+04  0.00000000000E+00 0. -1.
         -1   -1    0    0    0  501 -0.00000000000E+00 -0.00000000000E+00 -0.11480915082E+04  0.11480915082E+04  0.00000000000E+00 0.  1.
         23    2    1    2    0    0 -0.72857365337E+03  0.57929097239E+03  0.84854932016E+03  0.12628461965E+04  0.91361743152E+02 0.  0.
         13    1    3    3    0    0 -0.30059631233E+03  0.29028407398E+03  0.35090239901E+03  0.54566975381E+03  0.00000000000E+00 0. -1.
        -13    1    3    3    0    0 -0.42797734103E+03  0.28900689841E+03  0.49764692115E+03  0.71717644265E+03  0.00000000000E+00 0.  1.
         22    1    1    2    0    0  0.72857365337E+03 -0.57929097239E+03 -0.71074912242E+03  0.11711370176E+04  0.00000000000E+00 0.  1.
<mgrwt>
<rscale>  0 0.24300793E+04</rscale>
<asrwt>0</asrwt>
<pdfrwt beam="1">  1        1 0.19782949E+00 0.24300793E+04</pdfrwt>
<pdfrwt beam="2">  1       -1 0.17662946E+00 0.24300793E+04</pdfrwt>
<totfact> 0.18215660E+00</totfact>
</mgrwt>
</event>
<event>
 6    1  0.1568961E-005  0.9619385E+03  0.7818608E-02  0.9351304E-01
         -1   -1    0    0    0  501 -0.00000000000E+00  0.00000000000E+00  0.31654544477E+03  0.31654544477E+03  0.00000000000E+00 0.  1.
          1   -1    0    0  501    0  0.00000000000E+00 -0.00000000000E+00 -0.73080008085E+03  0.73080008085E+03  0.00000000000E+00 0. -1.
         23    2    1    2    0    0 -0.24074405662E+02 -0.93443611350E+02 -0.71679242260E+03  0.72979175414E+03  0.97433781611E+02 0.  0.
         13    1    3    3    0    0  0.15460384500E+02 -0.72757987319E+02 -0.24890303972E+03  0.25977965931E+03  0.00000000000E+00 0. -1.
        -13    1    3    3    0    0 -0.39534790162E+02 -0.20685624031E+02 -0.46788938288E+03  0.47001209483E+03  0.00000000000E+00 0.  1.
         22    1    1    2    0    0  0.24074405662E+02  0.93443611350E+02  0.30253778652E+03  0.31755377148E+03  0.00000000000E+00 0.  1.
<mgrwt>
<rscale>  0 0.96193854E+03</rscale>
<asrwt>0</asrwt>
<pdfrwt beam="1">  1        1 0.11243078E+00 0.96193854E+03</pdfrwt>
<pdfrwt beam="2">  1       -1 0.48699300E-01 0.96193854E+03</pdfrwt>
<totfact> 0.10808466E+02</totfact>
</mgrwt>
</event>
<event>
 6    1  0.1568961E-005  0.4863869E+04  0.7818608E-02  0.7849857E-01
         -2   -1    0    0    0  501 -0.00000000000E+00  0.00000000000E+00  0.16679919514E+04  0.16679919514E+04  0.00000000000E+00 0. -1.
          2   -1    0    0  501    0  0.00000000000E+00 -0.00000000000E+00 -0.35457632024E+04  0.35457632024E+04  0.00000000000E+00 0.  1.
         23    2    1    2    0    0 -0.15773399152E+04 -0.18491881906E+04 -0.88434002703E+03  0.25880354870E+04  0.91499869974E+02 0.  0.
         11    1    3    3    0    0 -0.10417040468E+04 -0.12689256237E+04 -0.56548286556E+03  0.17364015753E+04  0.00000000000E+00 0.  1.
        -11    1    3    3    0    0 -0.53563586841E+03 -0.58026256690E+03 -0.31885716147E+03  0.85163391167E+03  0.00000000000E+00 0. -1.
         22    1    1    2    0    0  0.15773399152E+04  0.18491881906E+04 -0.99343122397E+03  0.26257196669E+04  0.00000000000E+00 0. -1.
<mgrwt>
<rscale>  0 0.48638686E+04</rscale>
<asrwt>0</asrwt>
<pdfrwt beam="1">  1        2 0.54550203E+00 0.48638686E+04</pdfrwt>
<pdfrwt beam="2">  1       -2 0.25661415E+00 0.48638686E+04</pdfrwt>
<totfact> 0.32437350E-02</totfact>
</mgrwt>
</event>
<event>
 6    1  0.1568961E-005  0.3415561E+04  0.7818608E-02  0.8134098E-01
         -1   -1    0    0    0  501 -0.00000000000E+00  0.00000000000E+00  0.89424350258E+03  0.89424350258E+03  0.00000000000E+00 0.  1.
          1   -1    0    0  501    0  0.00000000000E+00 -0.00000000000E+00 -0.32614323630E+04  0.32614323630E+04  0.00000000000E+00 0. -1.
         23    2    1    2    0    0 -0.15360530925E+03  0.16657007351E+04 -0.77335370189E+03  0.18451642248E+04  0.91659905214E+02 0.  0.
         13    1    3    3    0    0 -0.90030871149E+02  0.52891767596E+03 -0.23467111029E+03  0.58560225042E+03  0.00000000000E+00 0.  1.
        -13    1    3    3    0    0 -0.63574438100E+02  0.11367830591E+04 -0.53868259161E+03  0.12595619743E+04  0.00000000000E+00 0. -1.
         22    1    1    2    0    0  0.15360530925E+03 -0.16657007351E+04 -0.15938351586E+04  0.23105116409E+04  0.00000000000E+00 0.  1.
<mgrwt>
<rscale>  0 0.34155613E+04</rscale>
<asrwt>0</asrwt>
<pdfrwt beam="1">  1        1 0.50175883E+00 0.34155613E+04</pdfrwt>
<pdfrwt beam="2">  1       -1 0.13757592E+00 0.34155613E+04</pdfrwt>
<totfact> 0.13755914E-01</totfact>
</mgrwt>
</event>
<event>
 6    1  0.1568961E-005  0.7701794E+03  0.7818608E-02  0.9604213E-01
          1   -1    0    0  501    0  0.00000000000E+00  0.00000000000E+00  0.12987085042E+04  0.12987085042E+04  0.00000000000E+00 0. -1.
         -1   -1    0    0    0  501 -0.00000000000E+00 -0.00000000000E+00 -0.11418579707E+03  0.11418579707E+03  0.00000000000E+00 0.  1.
         23    2    1    2    0    0 -0.18224809288E+02 -0.45336296112E+02  0.12913396563E+04  0.12954320347E+04  0.90545708779E+02 0.  0.
         13    1    3    3    0    0 -0.35230122282E+02 -0.55557260948E+01  0.10234699316E+04  0.10240911720E+04  0.00000000000E+00 0.  1.
        -13    1    3    3    0    0  0.17005312994E+02 -0.39780570017E+02  0.26786972466E+03  0.27134086277E+03  0.00000000000E+00 0. -1.
         22    1    1    2    0    0  0.18224809288E+02  0.45336296112E+02 -0.10681694917E+03  0.11746226649E+03  0.00000000000E+00 0.  1.
<mgrwt>
<rscale>  0 0.77017937E+03</rscale>
<asrwt>0</asrwt>
<pdfrwt beam="1">  1        1 0.19980130E+00 0.77017937E+03</pdfrwt>
<pdfrwt beam="2">  1       -1 0.17567047E-01 0.77017937E+03</pdfrwt>
<totfact> 0.23324893E+02</totfact>
</mgrwt>
</event>
<event>
 6    1  0.1568961E-005  0.3714276E+04  0.7818608E-02  0.8064805E-01
         -1   -1    0    0    0  501 -0.00000000000E+00  0.00000000000E+00  0.21837174094E+04  0.21837174094E+04  0.00000000000E+00 0.  1.
          1   -1    0    0  501    0  0.00000000000E+00 -0.00000000000E+00 -0.15793990932E+04  0.15793990932E+04  0.00000000000E+00 0. -1.
         23    2    1    2    0    0  0.32275478125E+03  0.43762933159E+03  0.20999161428E+04  0.21717325327E+04  0.10528202960E+03 0.  0.
         13    1    3    3    0    0  0.15305283204E+03  0.27522062821E+03  0.13304402179E+04  0.13672025223E+04  0.00000000000E+00 0. -1.
        -13    1    3    3    0    0  0.16970194921E+03  0.16240870337E+03  0.76947592500E+03  0.80453001041E+03  0.00000000000E+00 0.  1.
         22    1    1    2    0    0 -0.32275478125E+03 -0.43762933159E+03 -0.14955978267E+04  0.15913839699E+04  0.00000000000E+00 0. -1.
<mgrwt>
<rscale>  0 0.37142759E+04</rscale>
<asrwt>0</asrwt>
<pdfrwt beam="1">  1        1 0.24298448E+00 0.37142759E+04</pdfrwt>
<pdfrwt beam="2">  1       -1 0.33595652E+00 0.37142759E+04</pdfrwt>
<totfact> 0.88851960E-02</totfact>
</mgrwt>
</event>
<event>
 6    1  0.1568961E-005  0.1879240E+04  0.7818608E-02  0.8665259E-01
          1   -1    0    0  501    0  0.00000000000E+00  0.00000000000E+00  0.75539386674E+03  0.75539386674E+03  0.00000000000E+00 0. -1.
         -1   -1    0    0    0  501 -0.00000000000E+00 -0.00000000000E+00 -0.11687759264E+04  0.11687759264E+04  0.00000000000E+00 0.  1.
         23    2    1    2    0    0 -0.53703440676E+03 -0.76825464829E+03 -0.21533528151E+03  0.96612820478E+03  0.91723857033E+02 0.  0.
         13    1    3    3    0    0 -0.22963807207E+03 -0.31810827860E+03 -0.44268234228E+02  0.39482426169E+03  0.00000000000E+00 0.  1.
        -13    1    3    3    0    0 -0.30739633469E+03 -0.45014636969E+03 -0.17106704728E+03  0.57130394309E+03  0.00000000000E+00 0. -1.
         22    1    1    2    0    0  0.53703440676E+03  0.76825464829E+03 -0.19804677811E+03  0.95804158833E+03  0.00000000000E+00 0.  1.
<mgrwt>
<rscale>  0 0.18792404E+04</rscale>
<asrwt>0</asrwt>
<pdfrwt beam="1">  1        1 0.11621444E+00 0.18792404E+04</pdfrwt>
<pdfrwt beam="2">  1       -1 0.17981168E+00 0.18792404E+04</pdfrwt>
<totfact> 0.47384945E+00</totfact>
</mgrwt>
</event>
<event>
 6    1  0.1568961E-005  0.3207887E+04  0.7818608E-02  0.8186737E-01
          2   -1    0    0  501    0  0.00000000000E+00  0.00000000000E+00  0.37240152638E+04  0.37240152638E+04  0.00000000000E+00 0. -1.
         -2   -1    0    0    0  501 -0.00000000000E+00 -0.00000000000E+00 -0.69082289510E+03  0.69082289510E+03  0.00000000000E+00 0.  1.
         23    2    1    2    0    0  0.12928688088E+04 -0.62806479615E+02  0.21720826455E+03  0.13156090797E+04  0.90517455150E+02 0.  0.
         11    1    3    3    0    0  0.60596227289E+03 -0.10443821640E+02  0.60124477967E+02  0.60902734128E+03  0.00000000000E+00 0. -1.
        -11    1    3    3    0    0  0.68690653592E+03 -0.52362657975E+02  0.15708378659E+03  0.70658173840E+03  0.00000000000E+00 0.  1.
         22    1    1    2    0    0 -0.12928688088E+04  0.62806479615E+02  0.28159841041E+04  0.30992290792E+04  0.00000000000E+00 0. -1.
<mgrwt>
<rscale>  0 0.32078872E+04</rscale>
<asrwt>0</asrwt>
<pdfrwt beam="1">  1        2 0.57292542E+00 0.32078872E+04</pdfrwt>
<pdfrwt beam="2">  1       -2 0.10628045E+00 0.32078872E+04</pdfrwt>
<totfact> 0.33609127E-01</totfact>
</mgrwt>
</event>
<event>
 6    1  0.1568961E-005  0.1696980E+04  0.7818608E-02  0.8763089E-01
         -2   -1    0    0    0  501 -0.00000000000E+00  0.00000000000E+00  0.10081896427E+04  0.10081896427E+04  0.00000000000E+00 0.  1.
          2   -1    0    0  501    0  0.00000000000E+00 -0.00000000000E+00 -0.71408697735E+03  0.71408697735E+03  0.00000000000E+00 0. -1.
         23    2    1    2    0    0 -0.79631071394E+03 -0.29474477796E+02  0.43568241920E+03  0.91294088957E+03  0.93072012231E+02 0.  0.
         11    1    3    3    0    0 -0.72921317766E+03 -0.52835602708E+02  0.40114883310E+03  0.83394474978E+03  0.00000000000E+00 0.  1.
        -11    1    3    3    0    0 -0.67097536283E+02  0.23361124912E+02  0.34533586099E+02  0.78996139787E+02  0.00000000000E+00 0. -1.
         22    1    1    2    0    0  0.79631071394E+03  0.29474477796E+02 -0.14157975382E+03  0.80933573051E+03  0.00000000000E+00 0.  1.
<mgrwt>
<rscale>  0 0.16969798E+04</rscale>
<asrwt>0</asrwt>
<pdfrwt beam="1">  1        2 0.10985954E+00 0.16969798E+04</pdfrwt>
<pdfrwt beam="2">  1       -2 0.15510610E+00 0.16969798E+04</pdfrwt>
<totfact> 0.10412327E+01</totfact>
</mgrwt>
</event>
<event>
 6    1  0.1568961E-005  0.3358964E+04  0.7818608E-02  0.8148052E-01
          1   -1    0    0  501    0  0.00000000000E+00  0.00000000000E+00  0.11568290555E+04  0.11568290555E+04  0.00000000000E+00 0. -1.
         -1   -1    0    0    0  501 -0.00000000000E+00 -0.00000000000E+00 -0.24382679363E+04  0.24382679363E+04  0.00000000000E+00 0.  1.
         23    2    1    2    0    0 -0.12090591326E+04  0.87676389112E+03 -0.14604383718E+04  0.20909095949E+04  0.92107488202E+02 0.  0.
         11    1    3    3    0    0 -0.30125638003E+03  0.20091986624E+03 -0.40674148141E+03  0.54457582746E+03  0.00000000000E+00 0. -1.
        -11    1    3    3    0    0 -0.90780275257E+03  0.67584402488E+03 -0.10536968904E+04  0.15463337675E+04  0.00000000000E+00 0.  1.
         22    1    1    2    0    0  0.12090591326E+04 -0.87676389112E+03  0.17899949103E+03  0.15041873968E+04  0.00000000000E+00 0. -1.
<mgrwt>
<rscale>  0 0.33589636E+04</rscale>
<asrwt>0</asrwt>
<pdfrwt beam="1">  1        1 0.17797370E+00 0.33589636E+04</pdfrwt>
<pdfrwt beam="2">  1       -1 0.37511814E+00 0.33589636E+04</pdfrwt>
<totfact> 0.10012112E-01</totfact>
</mgrwt>
</event>
<event>
 6    1  0.1568961E-005  0.1517184E+04  0.7818608E-02  0.8873105E-01
         -2   -1    0    0    0  501 -0.00000000000E+00  0.00000000000E+00  0.16355516148E+03  0.16355516148E+03  0.00000000000E+00 0.  1.
          2   -1    0    0  501    0  0.00000000000E+00 -0.00000000000E+00 -0.35184578793E+04  0.35184578793E+04  0.00000000000E+00 0. -1.
         23    2    1    2    0    0 -0.48471278475E+03 -0.33892723533E+02 -0.30885166704E+04  0.31278860457E+04  0.92955317242E+02 0.  0.
         13    1    3    3    0    0 -0.83088511898E+02  0.29344304377E+02 -0.56032075786E+03  0.56720731721E+03  0.00000000000E+00 0. -1.
        -13    1    3    3    0    0 -0.40162427286E+03 -0.63237027910E+02 -0.25281959126E+04  0.25606787285E+04  0.00000000000E+00 0.  1.
         22    1    1    2    0    0  0.48471278475E+03  0.33892723533E+02 -0.26638604736E+03  0.55412699505E+03  0.00000000000E+00 0.  1.
<mgrwt>
<rscale>  0 0.15171842E+04</rscale>
<asrwt>0</asrwt>
<pdfrwt beam="1">  1        2 0.54130120E+00 0.15171842E+04</pdfrwt>
<pdfrwt beam="2">  1       -2 0.25162333E-01 0.15171842E+04</pdfrwt>
<totfact> 0.10948325E+01</totfact>
</mgrwt>
</event>
<event>
 6    1  0.1568961E-005  0.1634280E+04  0.7818608E-02  0.8799761E-01
         -1   -1    0    0    0  501 -0.00000000000E+00  0.00000000000E+00  0.88157839187E+03  0.88157839187E+03  0.00000000000E+00 0.  1.
          1   -1    0    0  501    0  0.00000000000E+00 -0.00000000000E+00 -0.75741130469E+03  0.75741130469E+03  0.00000000000E+00 0. -1.
         23    2    1    2    0    0 -0.36733893003E+03 -0.72564357863E+03  0.16928197174E+02  0.81862595270E+03  0.91462527062E+02 0.  0.
         11    1    3    3    0    0 -0.22080566369E+03 -0.42140001154E+03  0.54471311596E+02  0.47885304074E+03  0.00000000000E+00 0.  1.
        -11    1    3    3    0    0 -0.14653326634E+03 -0.30424356709E+03 -0.37543114422E+02  0.33977291196E+03  0.00000000000E+00 0. -1.
         22    1    1    2    0    0  0.36733893003E+03  0.72564357863E+03  0.10723889000E+03  0.82036374386E+03  0.00000000000E+00 0.  1.
<mgrwt>
<rscale>  0 0.16342796E+04</rscale>
<asrwt>0</asrwt>
<pdfrwt beam="1">  1        1 0.11652482E+00 0.16342796E+04</pdfrwt>
<pdfrwt beam="2">  1       -1 0.13562744E+00 0.16342796E+04</pdfrwt>
<totfact> 0.10506071E+01</totfact>
</mgrwt>
</event>
<event>
 6    1  0.1568961E-005  0.2607558E+04  0.7818608E-02  0.8365638E-01
         -1   -1    0    0    0  501 -0.00000000000E+00  0.00000000000E+00  0.45915731140E+03  0.45915731140E+03  0.00000000000E+00 0.  1.
          1   -1    0    0  501    0  0.00000000000E+00 -0.00000000000E+00 -0.37020867427E+04  0.37020867427E+04  0.00000000000E+00 0. -1.
         23    2    1    2    0    0 -0.73640892630E+03  0.79262676293E+03 -0.46708993659E+03  0.11820092207E+04  0.91746917945E+02 0.  0.
         13    1    3    3    0    0 -0.20582490025E+03  0.16755898600E+03 -0.98852640727E+02  0.28321678611E+03  0.00000000000E+00 0.  1.
        -13    1    3    3    0    0 -0.53058402605E+03  0.62506777693E+03 -0.36823729587E+03  0.89879243462E+03  0.00000000000E+00 0. -1.
         22    1    1    2    0    0  0.73640892630E+03 -0.79262676293E+03 -0.27758394947E+04  0.29792348334E+04  0.00000000000E+00 0.  1.
<mgrwt>
<rscale>  0 0.26075584E+04</rscale>
<asrwt>0</asrwt>
<pdfrwt beam="1">  1        1 0.56955182E+00 0.26075584E+04</pdfrwt>
<pdfrwt beam="2">  1       -1 0.70639585E-01 0.26075584E+04</pdfrwt>
<totfact> 0.30654315E-01</totfact>
</mgrwt>
</event>
<event>
 6    1  0.1568961E-005  0.3243871E+04  0.7818608E-02  0.8177326E-01
          1   -1    0    0  501    0  0.00000000000E+00  0.00000000000E+00  0.12795570433E+04  0.12795570433E+04  0.00000000000E+00 0. -1.
         -1   -1    0    0    0  501 -0.00000000000E+00 -0.00000000000E+00 -0.20559257982E+04  0.20559257982E+04  0.00000000000E+00 0.  1.
         23    2    1    2    0    0 -0.58535597849E+03  0.12221350705E+04  0.52422614152E+03  0.14572382258E+04  0.11168906490E+03 0.  0.
         11    1    3    3    0    0 -0.48414872075E+02  0.17472771301E+03  0.48232079661E+02  0.18761691565E+03  0.00000000000E+00 0.  1.
        -11    1    3    3    0    0 -0.53694110641E+03  0.10474073575E+04  0.47599406186E+03  0.12696213102E+04  0.00000000000E+00 0. -1.
         22    1    1    2    0    0  0.58535597849E+03 -0.12221350705E+04 -0.13005948964E+04  0.18782446158E+04  0.00000000000E+00 0.  1.
<mgrwt>
<rscale>  0 0.32438707E+04</rscale>
<asrwt>0</asrwt>
<pdfrwt beam="1">  1        1 0.19685493E+00 0.32438707E+04</pdfrwt>
<pdfrwt beam="2">  1       -1 0.31629628E+00 0.32438707E+04</pdfrwt>
<totfact> 0.20174854E-01</totfact>
</mgrwt>
</event>
<event>
 6    1  0.2054197E-005  0.3559170E+04  0.7818608E-02  0.8099909E-01
          1   -1    0    0  501    0  0.00000000000E+00  0.00000000000E+00  0.25456998836E+04  0.25456998836E+04  0.00000000000E+00 0. -1.
         -1   -1    0    0    0  501 -0.00000000000E+00 -0.00000000000E+00 -0.12440285995E+04  0.12440285995E+04  0.00000000000E+00 0.  1.
         23    2    1    2    0    0  0.13153624902E+04  0.11966780680E+04  0.67573706994E+03  0.19045201340E+04  0.91430158602E+02 0.  0.
         11    1    3    3    0    0  0.71445720697E+03  0.66123974388E+03  0.32197145379E+03  0.10253549222E+04  0.00000000000E+00 0. -1.
        -11    1    3    3    0    0  0.60090528319E+03  0.53543832417E+03  0.35376561615E+03  0.87916521174E+03  0.00000000000E+00 0.  1.
         22    1    1    2    0    0 -0.13153624902E+04 -0.11966780680E+04  0.62593421421E+03  0.18852083491E+04  0.00000000000E+00 0.  1.
<mgrwt>
<rscale>  0 0.35591704E+04</rscale>
<asrwt>0</asrwt>
<pdfrwt beam="1">  1        1 0.39164614E+00 0.35591704E+04</pdfrwt>
<pdfrwt beam="2">  1       -1 0.19138901E+00 0.35591704E+04</pdfrwt>
<totfact> 0.17657942E-01</totfact>
</mgrwt>
</event>
<event>
 6    1  0.1568961E-005  0.2565745E+04  0.7818608E-02  0.8379931E-01
          2   -1    0    0  501    0  0.00000000000E+00  0.00000000000E+00  0.21368640429E+04  0.21368640429E+04  0.00000000000E+00 0.  1.
         -2   -1    0    0    0  501 -0.00000000000E+00 -0.00000000000E+00 -0.77017609452E+03  0.77017609452E+03  0.00000000000E+00 0. -1.
         23    2    1    2    0    0 -0.30187834147E+03  0.24930444755E+03 -0.69809565396E+03  0.80546583107E+03  0.90301840137E+02 0.  0.
         11    1    3    3    0    0 -0.90894902105E+02  0.81883382038E+02 -0.30812955434E+03  0.33152766663E+03  0.00000000000E+00 0.  1.
        -11    1    3    3    0    0 -0.21098343937E+03  0.16742106551E+03 -0.38996609961E+03  0.47393816444E+03  0.00000000000E+00 0. -1.
         22    1    1    2    0    0  0.30187834147E+03 -0.24930444755E+03  0.20647836023E+04  0.21015743063E+04  0.00000000000E+00 0.  1.
<mgrwt>
<rscale>  0 0.25657448E+04</rscale>
<asrwt>0</asrwt>
<pdfrwt beam="1">  1        2 0.32874831E+00 0.25657448E+04</pdfrwt>
<pdfrwt beam="2">  1       -2 0.11848863E+00 0.25657448E+04</pdfrwt>
<totfact> 0.27235270E+00</totfact>
</mgrwt>
</event>
<event>
 6    1  0.1568961E-005  0.1124003E+04  0.7818608E-02  0.9182107E-01
         -2   -1    0    0    0  501 -0.00000000000E+00  0.00000000000E+00  0.49842430810E+03  0.49842430810E+03  0.00000000000E+00 0.  1.
          2   -1    0    0  501    0  0.00000000000E+00 -0.00000000000E+00 -0.63368862357E+03  0.63368862357E+03  0.00000000000E+00 0. -1.
         23    2    1    2    0    0  0.48524292205E+03 -0.24490819279E+03 -0.19406766034E+03  0.58539678076E+03  0.97910254028E+02 0.  0.
         13    1    3    3    0    0  0.12233115125E+03 -0.33362789093E+02 -0.80697724754E+02  0.15030006335E+03  0.00000000000E+00 0.  1.
        -13    1    3    3    0    0  0.36291177080E+03 -0.21154540369E+03 -0.11336993558E+03  0.43509671742E+03  0.00000000000E+00 0. -1.
         22    1    1    2    0    0 -0.48524292205E+03  0.24490819279E+03  0.58803344860E+02  0.54671615091E+03  0.00000000000E+00 0.  1.
<mgrwt>
<rscale>  0 0.11240032E+04</rscale>
<asrwt>0</asrwt>
<pdfrwt beam="1">  1        2 0.97490558E-01 0.11240032E+04</pdfrwt>
<pdfrwt beam="2">  1       -2 0.76680663E-01 0.11240032E+04</pdfrwt>
<totfact> 0.69960532E+01</totfact>
</mgrwt>
</event>
<event>
 6    1  0.1568961E-005  0.6284277E+03  0.7818608E-02  0.9848122E-01
         -3   -1    0    0    0  501 -0.00000000000E+00  0.00000000000E+00  0.86466540415E+02  0.86466540415E+02  0.00000000000E+00 0.  1.
          3   -1    0    0  501    0  0.00000000000E+00 -0.00000000000E+00 -0.11418329175E+04  0.11418329175E+04  0.00000000000E+00 0. -1.
         23    2    1    2    0    0 -0.26636511357E+03  0.14856777723E+03 -0.46232742543E+03  0.56142768888E+03  0.91823980396E+02 0.  0.
         13    1    3    3    0    0 -0.10622113939E+03  0.50298165516E+02 -0.10448917453E+03  0.15726036850E+03  0.00000000000E+00 0. -1.
        -13    1    3    3    0    0 -0.16014397418E+03  0.98269611711E+02 -0.35783825090E+03  0.40416732038E+03  0.00000000000E+00 0.  1.
         22    1    1    2    0    0  0.26636511357E+03 -0.14856777723E+03 -0.59303895163E+03  0.66687176902E+03  0.00000000000E+00 0. -1.
<mgrwt>
<rscale>  0 0.62842770E+03</rscale>
<asrwt>0</asrwt>
<pdfrwt beam="1">  1        3 0.17566659E+00 0.62842770E+03</pdfrwt>
<pdfrwt beam="2">  1       -3 0.13302545E-01 0.62842770E+03</pdfrwt>
<totfact> 0.26606945E+01</totfact>
</mgrwt>
</event>
<event>
 6    1  0.1568961E-005  0.1663906E+04  0.7818608E-02  0.8782222E-01
          1   -1    0    0  501    0  0.00000000000E+00  0.00000000000E+00  0.36538516186E+03  0.36538516186E+03  0.00000000000E+00 0. -1.
         -1   -1    0    0    0  501 -0.00000000000E+00 -0.00000000000E+00 -0.18942918410E+04  0.18942918410E+04  0.00000000000E+00 0.  1.
         23    2    1    2    0    0  0.25357450171E+03  0.44965755029E+03 -0.16484402723E+04  0.17297900146E+04  0.91248140017E+02 0.  0.
         11    1    3    3    0    0  0.16109006364E+03  0.35179771757E+03 -0.11426065747E+04  0.12063421684E+04  0.00000000000E+00 0. -1.
        -11    1    3    3    0    0  0.92484438064E+02  0.97859832719E+02 -0.50583369758E+03  0.52344784626E+03  0.00000000000E+00 0.  1.
         22    1    1    2    0    0 -0.25357450171E+03 -0.44965755029E+03  0.11953359310E+03  0.52988698826E+03  0.00000000000E+00 0. -1.
<mgrwt>
<rscale>  0 0.16639064E+04</rscale>
<asrwt>0</asrwt>
<pdfrwt beam="1">  1        1 0.56213101E-01 0.16639064E+04</pdfrwt>
<pdfrwt beam="2">  1       -1 0.29142952E+00 0.16639064E+04</pdfrwt>
<totfact> 0.24272833E+00</totfact>
</mgrwt>
</event>
<event>
 6    1  0.1568961E-005  0.3117767E+04  0.7818608E-02  0.8210879E-01
          1   -1    0    0  501    0  0.00000000000E+00  0.00000000000E+00  0.18396342135E+04  0.18396342135E+04  0.00000000000E+00 0. -1.
         -1   -1    0    0    0  501 -0.00000000000E+00 -0.00000000000E+00 -0.13209785129E+04  0.13209785129E+04  0.00000000000E+00 0.  1.
         23    2    1    2    0    0 -0.59014586907E+03  0.13620402784E+04  0.73864746556E+03  0.16600054348E+04  0.81191738395E+02 0.  0.
         13    1    3    3    0    0 -0.37365535068E+03  0.78012037172E+03  0.40413787656E+03  0.95474265576E+03  0.00000000000E+00 0. -1.
        -13    1    3    3    0    0 -0.21649051839E+03  0.58191990672E+03  0.33450958901E+03  0.70526277906E+03  0.00000000000E+00 0.  1.
         22    1    1    2    0    0  0.59014586907E+03 -0.13620402784E+04 -0.21999176489E+03  0.15006072916E+04  0.00000000000E+00 0. -1.
<mgrwt>
<rscale>  0 0.31177667E+04</rscale>
<asrwt>0</asrwt>
<pdfrwt beam="1">  1        1 0.28302065E+00 0.31177667E+04</pdfrwt>
<pdfrwt beam="2">  1       -1 0.20322746E+00 0.31177667E+04</pdfrwt>
<totfact> 0.46135006E-01</totfact>
</mgrwt>
</event>
<event>
 6    1  0.1568961E-005  0.2191857E+04  0.7818608E-02  0.8521825E-01
         -2   -1    0    0    0  501 -0.00000000000E+00  0.00000000000E+00  0.10082231095E+04  0.10082231095E+04  0.00000000000E+00 0.  1.
          2   -1    0    0  501    0  0.00000000000E+00 -0.00000000000E+00 -0.11912635769E+04  0.11912635769E+04  0.00000000000E+00 0. -1.
         23    2    1    2    0    0 -0.43724006033E+03 -0.89765733995E+03 -0.54026820517E+03  0.11390248875E+04  0.92305961601E+02 0.  0.
         13    1    3    3    0    0 -0.23245837509E+03 -0.37268128663E+03 -0.23569115704E+03  0.49847623721E+03  0.00000000000E+00 0. -1.
        -13    1    3    3    0    0 -0.20478168524E+03 -0.52497605332E+03 -0.30457704812E+03  0.64054865031E+03  0.00000000000E+00 0.  1.
         22    1    1    2    0    0  0.43724006033E+03  0.89765733995E+03  0.35722773773E+03  0.10604617989E+04  0.00000000000E+00 0.  1.
<mgrwt>
<rscale>  0 0.21918572E+04</rscale>
<asrwt>0</asrwt>
<pdfrwt beam="1">  1        2 0.18327132E+00 0.21918572E+04</pdfrwt>
<pdfrwt beam="2">  1       -2 0.15511125E+00 0.21918572E+04</pdfrwt>
<totfact> 0.48046573E+00</totfact>
</mgrwt>
</event>
<event>
 6    1  0.1568961E-005  0.1099977E+04  0.7818608E-02  0.9205215E-01
         -1   -1    0    0    0  501 -0.00000000000E+00  0.00000000000E+00  0.20973169806E+03  0.20973169806E+03  0.00000000000E+00 0.  1.
          1   -1    0    0  501    0  0.00000000000E+00 -0.00000000000E+00 -0.14422574817E+04  0.14422574817E+04  0.00000000000E+00 0. -1.
         23    2    1    2    0    0 -0.36191070380E+03 -0.33058875657E+03 -0.98221201879E+03  0.11016027116E+04  0.92302767179E+02 0.  0.
         11    1    3    3    0    0 -0.22949013683E+03 -0.18588119713E+03 -0.67939263107E+03  0.74080489301E+03  0.00000000000E+00 0.  1.
        -11    1    3    3    0    0 -0.13242056697E+03 -0.14470755943E+03 -0.30281938772E+03  0.36079781858E+03  0.00000000000E+00 0. -1.
         22    1    1    2    0    0  0.36191070380E+03  0.33058875657E+03 -0.25031376489E+03  0.55038646821E+03  0.00000000000E+00 0.  1.
<mgrwt>
<rscale>  0 0.10999766E+04</rscale>
<asrwt>0</asrwt>
<pdfrwt beam="1">  1        1 0.22188575E+00 0.10999766E+04</pdfrwt>
<pdfrwt beam="2">  1       -1 0.32266417E-01 0.10999766E+04</pdfrwt>
<totfact> 0.64132783E+01</totfact>
</mgrwt>
</event>
<event>
 6    1  0.1568961E-005  0.3529015E+04  0.7818608E-02  0.8106948E-01
          1   -1    0    0  501    0  0.00000000000E+00  0.00000000000E+00  0.34619597277E+04  0.34619597277E+04  0.00000000000E+00 0. -1.
         -1   -1    0    0    0  501 -0.00000000000E+00 -0.00000000000E+00 -0.89934207757E+03  0.89934207757E+03  0.00000000000E+00 0.  1.
         23    2    1    2    0    0  0.35475332570E+03  0.88364111834E+03 -0.55256446814E+03  0.11038440269E+04  0.80452446120E+02 0.  0.
         13    1    3    3    0    0  0.17468366329E+03  0.34900474970E+03 -0.25279697077E+03  0.46500000641E+03  0.00000000000E+00 0.  1.
        -13    1    3    3    0    0  0.18006966241E+03  0.53463636863E+03 -0.29976749737E+03  0.63884402045E+03  0.00000000000E+00 0. -1.
         22    1    1    2    0    0 -0.35475332570E+03 -0.88364111834E+03  0.31151821182E+04  0.32574577784E+04  0.00000000000E+00 0. -1.
<mgrwt>
<rscale>  0 0.35290146E+04</rscale>
<asrwt>0</asrwt>
<pdfrwt beam="1">  1        1 0.53260918E+00 0.35290146E+04</pdfrwt>
<pdfrwt beam="2">  1       -1 0.13836032E+00 0.35290146E+04</pdfrwt>
<totfact> 0.94043667E-02</totfact>
</mgrwt>
</event>
<event>
 6    1  0.1568961E-005  0.2659643E+04  0.7818608E-02  0.8348219E-01
         -2   -1    0    0    0  501 -0.00000000000E+00  0.00000000000E+00  0.20873973361E+04  0.20873973361E+04  0.00000000000E+00 0.  1.
          2   -1    0    0  501    0  0.00000000000E+00 -0.00000000000E+00 -0.84719176857E+03  0.84719176857E+03  0.00000000000E+00 0. -1.
         23    2    1    2    0    0 -0.66165448823E+03  0.10247851883E+04  0.12007853808E+04  0.17141280053E+04  0.91531109420E+02 0.  0.
         11    1    3    3    0    0 -0.46263704465E+03  0.72281672739E+03  0.78500939173E+03  0.11630721395E+04  0.00000000000E+00 0. -1.
        -11    1    3    3    0    0 -0.19901744358E+03  0.30196846086E+03  0.41577598907E+03  0.55105586585E+03  0.00000000000E+00 0.  1.
         22    1    1    2    0    0  0.66165448823E+03 -0.10247851883E+04  0.39420186712E+02  0.12204610993E+04  0.00000000000E+00 0.  1.
<mgrwt>
<rscale>  0 0.26596435E+04</rscale>
<asrwt>0</asrwt>
<pdfrwt beam="1">  1        2 0.13033720E+00 0.26596435E+04</pdfrwt>
<pdfrwt beam="2">  1       -2 0.32113805E+00 0.26596435E+04</pdfrwt>
<totfact> 0.66123893E-01</totfact>
</mgrwt>
</event>
<event>
 6    1  0.1568961E-005  0.2189051E+04  0.7818608E-02  0.8522999E-01
         -2   -1    0    0    0  501 -0.00000000000E+00  0.00000000000E+00  0.67314941813E+03  0.67314941813E+03  0.00000000000E+00 0. -1.
          2   -1    0    0  501    0  0.00000000000E+00 -0.00000000000E+00 -0.17796725804E+04  0.17796725804E+04  0.00000000000E+00 0.  1.
         23    2    1    2    0    0  0.62760037262E+03  0.88871915550E+03 -0.44002547127E+03  0.11769210866E+04  0.88413028149E+02 0.  0.
         11    1    3    3    0    0  0.33362347367E+03  0.51516768286E+03 -0.20874855880E+03  0.64828876625E+03  0.00000000000E+00 0. -1.
        -11    1    3    3    0    0  0.29397689894E+03  0.37355147264E+03 -0.23127691247E+03  0.52863232030E+03  0.00000000000E+00 0.  1.
         22    1    1    2    0    0 -0.62760037262E+03 -0.88871915550E+03 -0.66649769100E+03  0.12759009120E+04  0.00000000000E+00 0. -1.
<mgrwt>
<rscale>  0 0.21890505E+04</rscale>
<asrwt>0</asrwt>
<pdfrwt beam="1">  1        2 0.27379578E+00 0.21890505E+04</pdfrwt>
<pdfrwt beam="2">  1       -2 0.10356145E+00 0.21890505E+04</pdfrwt>
<totfact> 0.61562588E+00</totfact>
</mgrwt>
</event>
<event>
 6    1  0.1568961E-005  0.2958028E+04  0.7818608E-02  0.8255819E-01
          2   -1    0    0  501    0  0.00000000000E+00  0.00000000000E+00  0.13548522411E+04  0.13548522411E+04  0.00000000000E+00 0. -1.
         -2   -1    0    0    0  501 -0.00000000000E+00 -0.00000000000E+00 -0.16145545435E+04  0.16145545435E+04  0.00000000000E+00 0.  1.
         23    2    1    2    0    0 -0.64893931179E+03  0.51421503524E+03  0.10987177352E+04  0.13785440214E+04  0.87542129888E+02 0.  0.
         11    1    3    3    0    0 -0.58403314590E+03  0.45746889633E+03  0.93551367998E+03  0.11939674837E+04  0.00000000000E+00 0.  1.
        -11    1    3    3    0    0 -0.64906165890E+02  0.56746138909E+02  0.16320405519E+03  0.18457653773E+03  0.00000000000E+00 0. -1.
         22    1    1    2    0    0  0.64893931179E+03 -0.51421503524E+03 -0.13584200376E+04  0.15908627632E+04  0.00000000000E+00 0.  1.
<mgrwt>
<rscale>  0 0.29580283E+04</rscale>
<asrwt>0</asrwt>
<pdfrwt beam="1">  1        2 0.20843881E+00 0.29580283E+04</pdfrwt>
<pdfrwt beam="2">  1       -2 0.24839301E+00 0.29580283E+04</pdfrwt>
<totfact> 0.86754519E-01</totfact>
</mgrwt>
</event>
<event>
 6    1  0.1568961E-005  0.1132507E+04  0.7818608E-02  0.9174075E-01
         -2   -1    0    0    0  501 -0.00000000000E+00  0.00000000000E+00  0.11758987395E+04  0.11758987395E+04  0.00000000000E+00 0.  1.
          2   -1    0    0  501    0  0.00000000000E+00 -0.00000000000E+00 -0.27267889066E+03  0.27267889066E+03  0.00000000000E+00 0. -1.
         23    2    1    2    0    0 -0.49475524957E+03 -0.11539006986E+03  0.76366095369E+03  0.92172441493E+03  0.91105541422E+02 0.  0.
         11    1    3    3    0    0 -0.10145828659E+03 -0.15941787652E+02  0.96614282116E+02  0.14100441135E+03  0.00000000000E+00 0.  1.
        -11    1    3    3    0    0 -0.39329696298E+03 -0.99448282209E+02  0.66704667157E+03  0.78072000358E+03  0.00000000000E+00 0. -1.
         22    1    1    2    0    0  0.49475524957E+03  0.11539006986E+03  0.13955889516E+03  0.52685321525E+03  0.00000000000E+00 0. -1.
<mgrwt>
<rscale>  0 0.11325065E+04</rscale>
<asrwt>0</asrwt>
<pdfrwt beam="1">  1        2 0.41950599E-01 0.11325065E+04</pdfrwt>
<pdfrwt beam="2">  1       -2 0.18090750E+00 0.11325065E+04</pdfrwt>
<totfact> 0.21611839E+01</totfact>
</mgrwt>
</event>
<event>
 6    1  0.1568961E-005  0.1444221E+04  0.7818608E-02  0.8922417E-01
         -1   -1    0    0    0  501 -0.00000000000E+00  0.00000000000E+00  0.13264689967E+04  0.13264689967E+04  0.00000000000E+00 0.  1.
          1   -1    0    0  501    0  0.00000000000E+00 -0.00000000000E+00 -0.39310640480E+03  0.39310640480E+03  0.00000000000E+00 0. -1.
         23    2    1    2    0    0 -0.39883332839E+03  0.28661718330E+03  0.10941944792E+04  0.12027733799E+04  0.90469948268E+02 0.  0.
         13    1    3    3    0    0 -0.33107621864E+03  0.19749689832E+03  0.88992928732E+03  0.96984051463E+03  0.00000000000E+00 0. -1.
        -13    1    3    3    0    0 -0.67757109747E+02  0.89120284985E+02  0.20426519184E+03  0.23293286525E+03  0.00000000000E+00 0.  1.
         22    1    1    2    0    0  0.39883332839E+03 -0.28661718330E+03 -0.16083188725E+03  0.51680202162E+03  0.00000000000E+00 0. -1.
<mgrwt>
<rscale>  0 0.14442208E+04</rscale>
<asrwt>0</asrwt>
<pdfrwt beam="1">  1        1 0.60477909E-01 0.14442208E+04</pdfrwt>
<pdfrwt beam="2">  1       -1 0.20407215E+00 0.14442208E+04</pdfrwt>
<totfact> 0.84181087E+00</totfact>
</mgrwt>
</event>
<event>
 6    1  0.1568961E-005  0.1439676E+04  0.7818608E-02  0.8925590E-01
         -1   -1    0    0    0  501 -0.00000000000E+00  0.00000000000E+00  0.11666227160E+04  0.11666227160E+04  0.00000000000E+00 0.  1.
          1   -1    0    0  501    0  0.00000000000E+00 -0.00000000000E+00 -0.44415945729E+03  0.44415945729E+03  0.00000000000E+00 0. -1.
         23    2    1    2    0    0 -0.64010640773E+03 -0.88726945691E+02  0.15154316221E+02  0.65271400021E+03  0.90538547960E+02 0.  0.
         11    1    3    3    0    0 -0.43149458127E+03 -0.36798414475E+02 -0.25966869434E+02  0.43383865120E+03  0.00000000000E+00 0. -1.
        -11    1    3    3    0    0 -0.20861182646E+03 -0.51928531216E+02  0.41121185654E+02  0.21887534901E+03  0.00000000000E+00 0.  1.
         22    1    1    2    0    0  0.64010640773E+03  0.88726945691E+02  0.70730894245E+03  0.95806817303E+03  0.00000000000E+00 0.  1.
<mgrwt>
<rscale>  0 0.14396757E+04</rscale>
<asrwt>0</asrwt>
<pdfrwt beam="1">  1        1 0.68332225E-01 0.14396757E+04</pdfrwt>
<pdfrwt beam="2">  1       -1 0.17948042E+00 0.14396757E+04</pdfrwt>
<totfact> 0.10632812E+01</totfact>
</mgrwt>
</event>
<event>
 6    1  0.1568961E-005  0.2415935E+04  0.7818608E-02  0.8433562E-01
          1   -1    0    0  501    0  0.00000000000E+00  0.00000000000E+00  0.81504035905E+03  0.81504035905E+03  0.00000000000E+00 0. -1.
         -1   -1    0    0    0  501 -0.00000000000E+00 -0.00000000000E+00 -0.17903229619E+04  0.17903229619E+04  0.00000000000E+00 0.  1.
         23    2    1    2    0    0 -0.93460840545E+03  0.75831300744E+03 -0.57522105639E+03  0.13370649610E+04  0.91279557177E+02 0.  0.
         11    1    3    3    0    0 -0.84206820842E+03  0.65795997183E+03 -0.53294148334E+03  0.11941594604E+04  0.00000000000E+00 0. -1.
        -11    1    3    3    0    0 -0.92540197026E+02  0.10035303561E+03 -0.42279573047E+02  0.14290550066E+03  0.00000000000E+00 0.  1.
         22    1    1    2    0    0  0.93460840545E+03 -0.75831300744E+03 -0.40006154645E+03  0.12682983599E+04  0.00000000000E+00 0. -1.
<mgrwt>
<rscale>  0 0.24159350E+04</rscale>
<asrwt>0</asrwt>
<pdfrwt beam="1">  1        1 0.12539082E+00 0.24159350E+04</pdfrwt>
<pdfrwt beam="2">  1       -1 0.27543430E+00 0.24159350E+04</pdfrwt>
<totfact> 0.91471829E-01</totfact>
</mgrwt>
</event>
<event>
 6    1  0.1568961E-005  0.1212708E+04  0.7818608E-02  0.9101806E-01
         -2   -1    0    0    0  501 -0.00000000000E+00  0.00000000000E+00  0.17836773517E+03  0.17836773517E+03  0.00000000000E+00 0. -1.
          2   -1    0    0  501    0  0.00000000000E+00 -0.00000000000E+00 -0.20612748912E+04  0.20612748912E+04  0.00000000000E+00 0.  1.
         23    2    1    2    0    0  0.12659050435E+03 -0.26719375011E+03 -0.19172684135E+04  0.19419878735E+04  0.89336864300E+02 0.  0.
         11    1    3    3    0    0  0.41161581022E+02 -0.71686101200E+02 -0.82096072330E+03  0.82511192093E+03  0.00000000000E+00 0.  1.
        -11    1    3    3    0    0  0.85428923326E+02 -0.19550764891E+03 -0.10963076902E+04  0.11168759526E+04  0.00000000000E+00 0. -1.
         22    1    1    2    0    0 -0.12659050435E+03  0.26719375011E+03  0.34361257518E+02  0.29765475287E+03  0.00000000000E+00 0. -1.
<mgrwt>
<rscale>  0 0.12127076E+04</rscale>
<asrwt>0</asrwt>
<pdfrwt beam="1">  1        2 0.31711918E+00 0.12127076E+04</pdfrwt>
<pdfrwt beam="2">  1       -2 0.27441193E-01 0.12127076E+04</pdfrwt>
<totfact> 0.73797105E+01</totfact>
</mgrwt>
</event>
<event>
 6    1  0.1568961E-005  0.1937922E+04  0.7818608E-02  0.8636207E-01
          2   -1    0    0  501    0  0.00000000000E+00  0.00000000000E+00  0.83241399909E+03  0.83241399909E+03  0.00000000000E+00 0. -1.
         -2   -1    0    0    0  501 -0.00000000000E+00 -0.00000000000E+00 -0.11279062684E+04  0.11279062684E+04  0.00000000000E+00 0.  1.
         23    2    1    2    0    0  0.41071385142E+03 -0.83663811253E+03  0.11186843843E+03  0.94317133773E+03  0.91697468335E+02 0.  0.
         11    1    3    3    0    0  0.34362180140E+03 -0.63318134765E+03  0.11114867204E+03  0.72893661501E+03  0.00000000000E+00 0. -1.
        -11    1    3    3    0    0  0.67092050019E+02 -0.20345676488E+03  0.71976639351E+00  0.21423472271E+03  0.00000000000E+00 0.  1.
         22    1    1    2    0    0 -0.41071385142E+03  0.83663811253E+03 -0.40736070775E+03  0.10171489298E+04  0.00000000000E+00 0.  1.
<mgrwt>
<rscale>  0 0.19379215E+04</rscale>
<asrwt>0</asrwt>
<pdfrwt beam="1">  1        2 0.12806369E+00 0.19379215E+04</pdfrwt>
<pdfrwt beam="2">  1       -2 0.17352404E+00 0.19379215E+04</pdfrwt>
<totfact> 0.61331591E+00</totfact>
</mgrwt>
</event>
<event>
 6    1  0.1568961E-005  0.8934040E+03  0.7818608E-02  0.9433864E-01
         -1   -1    0    0    0  501 -0.00000000000E+00  0.00000000000E+00  0.16772849576E+03  0.16772849576E+03  0.00000000000E+00 0.  1.
          1   -1    0    0  501    0  0.00000000000E+00 -0.00000000000E+00 -0.11896767812E+04  0.11896767812E+04  0.00000000000E+00 0. -1.
         23    2    1    2    0    0  0.44134350676E+03  0.12589672957E+02 -0.54638244766E+03  0.70847888909E+03  0.92010686061E+02 0.  0.
         13    1    3    3    0    0  0.18763567391E+03  0.45570664192E+02 -0.20173881126E+03  0.27925325339E+03  0.00000000000E+00 0. -1.
        -13    1    3    3    0    0  0.25370783285E+03 -0.32980991235E+02 -0.34464363641E+03  0.42922563570E+03  0.00000000000E+00 0.  1.
         22    1    1    2    0    0 -0.44134350676E+03 -0.12589672957E+02 -0.47556583779E+03  0.64892638789E+03  0.00000000000E+00 0. -1.
<mgrwt>
<rscale>  0 0.89340405E+03</rscale>
<asrwt>0</asrwt>
<pdfrwt beam="1">  1        1 0.18302720E+00 0.89340405E+03</pdfrwt>
<pdfrwt beam="2">  1       -1 0.25804384E-01 0.89340405E+03</pdfrwt>
<totfact> 0.14521904E+02</totfact>
</mgrwt>
</event>
<event>
 6    1  0.1568961E-005  0.1254476E+04  0.7818608E-02  0.9066466E-01
         -1   -1    0    0    0  501 -0.00000000000E+00  0.00000000000E+00  0.28532209987E+03  0.28532209987E+03  0.00000000000E+00 0.  1.
          1   -1    0    0  501    0  0.00000000000E+00 -0.00000000000E+00 -0.13788899483E+04  0.13788899483E+04  0.00000000000E+00 0. -1.
         23    2    1    2    0    0  0.59297292094E+03  0.28982174716E+01 -0.29264167238E+03  0.66766399407E+03  0.92253866749E+02 0.  0.
         11    1    3    3    0    0  0.27313700250E+03 -0.33934551421E+02 -0.16781600962E+03  0.32236251178E+03  0.00000000000E+00 0. -1.
        -11    1    3    3    0    0  0.31983591844E+03  0.36832768892E+02 -0.12482566275E+03  0.34530148229E+03  0.00000000000E+00 0.  1.
         22    1    1    2    0    0 -0.59297292094E+03 -0.28982174716E+01 -0.80092617602E+03  0.99654805407E+03  0.00000000000E+00 0. -1.
<mgrwt>
<rscale>  0 0.12544764E+04</rscale>
<asrwt>0</asrwt>
<pdfrwt beam="1">  1        1 0.21213691E+00 0.12544764E+04</pdfrwt>
<pdfrwt beam="2">  1       -1 0.43895708E-01 0.12544764E+04</pdfrwt>
<totfact> 0.40195294E+01</totfact>
</mgrwt>
</event>
<event>
 6    1  0.1568961E-005  0.3737986E+04  0.7818608E-02  0.8059595E-01
          2   -1    0    0  501    0  0.00000000000E+00  0.00000000000E+00  0.13015984992E+04  0.13015984992E+04  0.00000000000E+00 0. -1.
         -2   -1    0    0    0  501 -0.00000000000E+00 -0.00000000000E+00 -0.26837264453E+04  0.26837264453E+04  0.00000000000E+00 0.  1.
         23    2    1    2    0    0 -0.27068795639E+03  0.16658977151E+04 -0.15449036075E+04  0.22897474373E+04  0.87914749457E+02 0.  0.
         13    1    3    3    0    0 -0.26549849702E+02  0.39553896287E+03 -0.36250514779E+03  0.53718334658E+03  0.00000000000E+00 0. -1.
        -13    1    3    3    0    0 -0.24413810669E+03  0.12703587522E+04 -0.11823984597E+04  0.17525640907E+04  0.00000000000E+00 0.  1.
         22    1    1    2    0    0  0.27068795639E+03 -0.16658977151E+04  0.16277566142E+03  0.16955775072E+04  0.00000000000E+00 0. -1.
<mgrwt>
<rscale>  0 0.37379857E+04</rscale>
<asrwt>0</asrwt>
<pdfrwt beam="1">  1        2 0.20024592E+00 0.37379857E+04</pdfrwt>
<pdfrwt beam="2">  1       -2 0.41288099E+00 0.37379857E+04</pdfrwt>
<totfact> 0.81153899E-02</totfact>
</mgrwt>
</event>
<event>
 6    1  0.1568961E-005  0.1848299E+04  0.7818608E-02  0.8681028E-01
         -1   -1    0    0    0  501 -0.00000000000E+00  0.00000000000E+00  0.76100765318E+03  0.76100765318E+03  0.00000000000E+00 0.  1.
          1   -1    0    0  501    0  0.00000000000E+00 -0.00000000000E+00 -0.11222649332E+04  0.11222649332E+04  0.00000000000E+00 0. -1.
         23    2    1    2    0    0 -0.82439124391E+03 -0.33532617945E+03  0.63573862345E+02  0.89709508251E+03  0.93130990741E+02 0.  0.
         11    1    3    3    0    0 -0.38250342812E+03 -0.20583415424E+03  0.30949153195E+02  0.43547034533E+03  0.00000000000E+00 0.  1.
        -11    1    3    3    0    0 -0.44188781579E+03 -0.12949202521E+03  0.32624709150E+02  0.46162473719E+03  0.00000000000E+00 0. -1.
         22    1    1    2    0    0  0.82439124391E+03  0.33532617945E+03 -0.42483114240E+03  0.98617750391E+03  0.00000000000E+00 0. -1.
<mgrwt>
<rscale>  0 0.18482989E+04</rscale>
<asrwt>0</asrwt>
<pdfrwt beam="1">  1        1 0.17265614E+00 0.18482989E+04</pdfrwt>
<pdfrwt beam="2">  1       -1 0.11707810E+00 0.18482989E+04</pdfrwt>
<totfact> 0.75377163E+00</totfact>
</mgrwt>
</event>
<event>
 6    1  0.1568961E-005  0.2787797E+04  0.7818608E-02  0.8307067E-01
          2   -1    0    0  501    0  0.00000000000E+00  0.00000000000E+00  0.27251782496E+04  0.27251782496E+04  0.00000000000E+00 0. -1.
         -2   -1    0    0    0  501 -0.00000000000E+00 -0.00000000000E+00 -0.71296370607E+03  0.71296370607E+03  0.00000000000E+00 0.  1.
         23    2    1    2    0    0  0.53283525623E+03 -0.11576553877E+04  0.31615235925E+03  0.13166551327E+04  0.97719073859E+02 0.  0.
         11    1    3    3    0    0  0.14779658803E+03 -0.26242017597E+03  0.40462808869E+02  0.30388389080E+03  0.00000000000E+00 0. -1.
        -11    1    3    3    0    0  0.38503866821E+03 -0.89523521170E+03  0.27568955038E+03  0.10127712419E+04  0.00000000000E+00 0.  1.
         22    1    1    2    0    0 -0.53283525623E+03  0.11576553877E+04  0.16960621842E+04  0.21214868229E+04  0.00000000000E+00 0. -1.
<mgrwt>
<rscale>  0 0.27877971E+04</rscale>
<asrwt>0</asrwt>
<pdfrwt beam="1">  1        2 0.41925819E+00 0.27877971E+04</pdfrwt>
<pdfrwt beam="2">  1       -2 0.10968673E+00 0.27877971E+04</pdfrwt>
<totfact> 0.14776354E+00</totfact>
</mgrwt>
</event>
<event>
 6    1  0.1568961E-005  0.1962244E+04  0.7818608E-02  0.8624479E-01
         -1   -1    0    0    0  501 -0.00000000000E+00  0.00000000000E+00  0.41086616441E+03  0.41086616441E+03  0.00000000000E+00 0.  1.
          1   -1    0    0  501    0  0.00000000000E+00 -0.00000000000E+00 -0.23428553037E+04  0.23428553037E+04  0.00000000000E+00 0. -1.
         23    2    1    2    0    0 -0.97016114988E+03 -0.10340651782E+03 -0.85304175720E+03  0.12990623953E+04  0.89315747902E+02 0.  0.
         13    1    3    3    0    0 -0.70302558149E+03 -0.11068472840E+03 -0.59622726883E+03  0.92843041388E+03  0.00000000000E+00 0. -1.
        -13    1    3    3    0    0 -0.26713556839E+03  0.72782105808E+01 -0.25681448837E+03  0.37063198146E+03  0.00000000000E+00 0.  1.
         22    1    1    2    0    0  0.97016114988E+03  0.10340651782E+03 -0.10789473821E+04  0.14546590728E+04  0.00000000000E+00 0. -1.
<mgrwt>
<rscale>  0 0.19622436E+04</rscale>
<asrwt>0</asrwt>
<pdfrwt beam="1">  1        1 0.36043929E+00 0.19622436E+04</pdfrwt>
<pdfrwt beam="2">  1       -1 0.63210178E-01 0.19622436E+04</pdfrwt>
<totfact> 0.41101816E+00</totfact>
</mgrwt>
</event>
<event>
 6    1  0.1568961E-005  0.3079151E+04  0.7818608E-02  0.8221483E-01
         -1   -1    0    0    0  501 -0.00000000000E+00  0.00000000000E+00  0.98909387238E+03  0.98909387238E+03  0.00000000000E+00 0.  1.
          1   -1    0    0  501    0  0.00000000000E+00 -0.00000000000E+00 -0.23964277166E+04  0.23964277166E+04  0.00000000000E+00 0. -1.
         23    2    1    2    0    0 -0.96058598058E+03 -0.79625253546E+03 -0.16934879677E+04  0.21054326434E+04  0.90562644724E+02 0.  0.
         11    1    3    3    0    0 -0.36953125086E+03 -0.33819754100E+03 -0.74221691553E+03  0.89544227720E+03  0.00000000000E+00 0. -1.
        -11    1    3    3    0    0 -0.59105472972E+03 -0.45805499446E+03 -0.95127105220E+03  0.12099903662E+04  0.00000000000E+00 0.  1.
         22    1    1    2    0    0  0.96058598058E+03  0.79625253546E+03  0.28615412350E+03  0.12800889456E+04  0.00000000000E+00 0.  1.
<mgrwt>
<rscale>  0 0.30791505E+04</rscale>
<asrwt>0</asrwt>
<pdfrwt beam="1">  1        1 0.36868119E+00 0.30791505E+04</pdfrwt>
<pdfrwt beam="2">  1       -1 0.15216829E+00 0.30791505E+04</pdfrwt>
<totfact> 0.45313322E-01</totfact>
</mgrwt>
</event>
<event>
 6    1  0.1568961E-005  0.1244788E+04  0.7818608E-02  0.9074532E-01
         -3   -1    0    0    0  501 -0.00000000000E+00  0.00000000000E+00  0.47250889535E+03  0.47250889535E+03  0.00000000000E+00 0.  1.
          3   -1    0    0  501    0  0.00000000000E+00 -0.00000000000E+00 -0.81982459808E+03  0.81982459808E+03  0.00000000000E+00 0. -1.
         23    2    1    2    0    0  0.59757491307E+03  0.16183099236E+03 -0.17421960872E+03  0.64949035193E+03  0.90554946668E+02 0.  0.
         13    1    3    3    0    0  0.46929616118E+03  0.12239960116E+03 -0.17407206612E+03  0.51528791317E+03  0.00000000000E+00 0.  1.
        -13    1    3    3    0    0  0.12827875190E+03  0.39431391198E+02 -0.14754260477E+00  0.13420243876E+03  0.00000000000E+00 0. -1.
         22    1    1    2    0    0 -0.59757491307E+03 -0.16183099236E+03 -0.17309609400E+03  0.64284314150E+03  0.00000000000E+00 0.  1.
<mgrwt>
<rscale>  0 0.12447882E+04</rscale>
<asrwt>0</asrwt>
<pdfrwt beam="1">  1        3 0.12612686E+00 0.12447882E+04</pdfrwt>
<pdfrwt beam="2">  1       -3 0.72693677E-01 0.12447882E+04</pdfrwt>
<totfact> 0.23231348E+00</totfact>
</mgrwt>
</event>
<event>
 6    1  0.1568961E-005  0.2827442E+04  0.7818608E-02  0.8294799E-01
         -2   -1    0    0    0  501 -0.00000000000E+00  0.00000000000E+00  0.78623240105E+03  0.78623240105E+03  0.00000000000E+00 0.  1.
          2   -1    0    0  501    0  0.00000000000E+00 -0.00000000000E+00 -0.25420049980E+04  0.25420049980E+04  0.00000000000E+00 0. -1.
         23    2    1    2    0    0 -0.89224910071E+02  0.13759432632E+04 -0.51909217440E+03  0.14760604595E+04  0.90093542552E+02 0.  0.
         13    1    3    3    0    0 -0.10114234648E+03  0.96385495448E+03 -0.34858264890E+03  0.10299300999E+04  0.00000000000E+00 0.  1.
        -13    1    3    3    0    0  0.11917436406E+02  0.41208830869E+03 -0.17050952550E+03  0.44613035957E+03  0.00000000000E+00 0. -1.
         22    1    1    2    0    0  0.89224910071E+02 -0.13759432632E+04 -0.12366804226E+04  0.18521769396E+04  0.00000000000E+00 0. -1.
<mgrwt>
<rscale>  0 0.28274417E+04</rscale>
<asrwt>0</asrwt>
<pdfrwt beam="1">  1        2 0.39107769E+00 0.28274417E+04</pdfrwt>
<pdfrwt beam="2">  1       -2 0.12095883E+00 0.28274417E+04</pdfrwt>
<totfact> 0.14869234E+00</totfact>
</mgrwt>
</event>
<event>
 6    1  0.1568961E-005  0.1520552E+04  0.7818608E-02  0.8870900E-01
         -2   -1    0    0    0  501 -0.00000000000E+00  0.00000000000E+00  0.58665372752E+03  0.58665372752E+03  0.00000000000E+00 0.  1.
          2   -1    0    0  501    0  0.00000000000E+00 -0.00000000000E+00 -0.98528188136E+03  0.98528188136E+03  0.00000000000E+00 0. -1.
         23    2    1    2    0    0  0.28723572277E+02 -0.13315106438E+03 -0.97041938935E+03  0.98414358226E+03  0.90942562783E+02 0.  0.
         11    1    3    3    0    0  0.28718761179E+02 -0.19008862672E+02 -0.45186272806E+03  0.45317328817E+03  0.00000000000E+00 0.  1.
        -11    1    3    3    0    0  0.48110972932E-02 -0.11414220171E+03 -0.51855666130E+03  0.53097029409E+03  0.00000000000E+00 0. -1.
         22    1    1    2    0    0 -0.28723572277E+02  0.13315106438E+03  0.57179123551E+03  0.58779202662E+03  0.00000000000E+00 0.  1.
<mgrwt>
<rscale>  0 0.15205516E+04</rscale>
<asrwt>0</asrwt>
<pdfrwt beam="1">  1        2 0.15158183E+00 0.15205516E+04</pdfrwt>
<pdfrwt beam="2">  1       -2 0.90254421E-01 0.15205516E+04</pdfrwt>
<totfact> 0.26083823E+01</totfact>
</mgrwt>
</event>
<event>
 6    1  0.1568961E-005  0.2223876E+04  0.7818608E-02  0.8508555E-01
         -1   -1    0    0    0  501 -0.00000000000E+00  0.00000000000E+00  0.15892303642E+04  0.15892303642E+04  0.00000000000E+00 0.  1.
          1   -1    0    0  501    0  0.00000000000E+00 -0.00000000000E+00 -0.77799078692E+03  0.77799078692E+03  0.00000000000E+00 0. -1.
         23    2    1    2    0    0  0.36998664101E+03  0.67996900794E+03 -0.44102763846E+03  0.89500474518E+03  0.85323793433E+02 0.  0.
         11    1    3    3    0    0  0.79415921644E+02  0.11455641040E+03 -0.11423216373E+03  0.18021944125E+03  0.00000000000E+00 0. -1.
        -11    1    3    3    0    0  0.29057071937E+03  0.56541259754E+03 -0.32679547473E+03  0.71478530393E+03  0.00000000000E+00 0.  1.
         22    1    1    2    0    0 -0.36998664101E+03 -0.67996900794E+03  0.12522672157E+04  0.14722164059E+04  0.00000000000E+00 0.  1.
<mgrwt>
<rscale>  0 0.22238764E+04</rscale>
<asrwt>0</asrwt>
<pdfrwt beam="1">  1        1 0.11969089E+00 0.22238764E+04</pdfrwt>
<pdfrwt beam="2">  1       -1 0.24449698E+00 0.22238764E+04</pdfrwt>
<totfact> 0.15931264E+00</totfact>
</mgrwt>
</event>
<event>
 6    1  0.1568961E-005  0.3936340E+04  0.7818608E-02  0.8017513E-01
          1   -1    0    0  501    0  0.00000000000E+00  0.00000000000E+00  0.17640167176E+04  0.17640167176E+04  0.00000000000E+00 0. -1.
         -1   -1    0    0    0  501 -0.00000000000E+00 -0.00000000000E+00 -0.21959505072E+04  0.21959505072E+04  0.00000000000E+00 0.  1.
         23    2    1    2    0    0 -0.10178828020E+04  0.70893850277E+02 -0.19079948639E+04  0.21655682637E+04  0.90167441543E+02 0.  0.
         13    1    3    3    0    0 -0.25679169362E+03  0.27074532122E+02 -0.56686578757E+03  0.62290595223E+03  0.00000000000E+00 0. -1.
        -13    1    3    3    0    0 -0.76109110838E+03  0.43819318155E+02 -0.13411290763E+04  0.15426623115E+04  0.00000000000E+00 0.  1.
         22    1    1    2    0    0  0.10178828020E+04 -0.70893850277E+02  0.14760610743E+04  0.17943989611E+04  0.00000000000E+00 0. -1.
<mgrwt>
<rscale>  0 0.39363401E+04</rscale>
<asrwt>0</asrwt>
<pdfrwt beam="1">  1        1 0.27138719E+00 0.39363401E+04</pdfrwt>
<pdfrwt beam="2">  1       -1 0.33783854E+00 0.39363401E+04</pdfrwt>
<totfact> 0.63384579E-02</totfact>
</mgrwt>
</event>
<event>
 6    1  0.1568961E-005  0.1885355E+04  0.7818608E-02  0.8662180E-01
          2   -1    0    0  501    0  0.00000000000E+00  0.00000000000E+00  0.16329969148E+04  0.16329969148E+04  0.00000000000E+00 0. -1.
         -2   -1    0    0    0  501 -0.00000000000E+00 -0.00000000000E+00 -0.54417811453E+03  0.54417811453E+03  0.00000000000E+00 0.  1.
         23    2    1    2    0    0 -0.40981063877E+03  0.25234475998E+03 -0.38882198567E+03  0.62313354666E+03  0.74096173304E+02 0.  0.
         13    1    3    3    0    0 -0.25403639924E+03  0.18751695342E+03 -0.28268227580E+03  0.42379991625E+03  0.00000000000E+00 0. -1.
        -13    1    3    3    0    0 -0.15577423952E+03  0.64827806563E+02 -0.10613970987E+03  0.19933363042E+03  0.00000000000E+00 0.  1.
         22    1    1    2    0    0  0.40981063877E+03 -0.25234475998E+03  0.14776407860E+04  0.15540414827E+04  0.00000000000E+00 0. -1.
<mgrwt>
<rscale>  0 0.18853553E+04</rscale>
<asrwt>0</asrwt>
<pdfrwt beam="1">  1        2 0.25123029E+00 0.18853553E+04</pdfrwt>
<pdfrwt beam="2">  1       -2 0.83719711E-01 0.18853553E+04</pdfrwt>
<totfact> 0.12499162E+01</totfact>
</mgrwt>
</event>
<event>
 6    1  0.1568961E-005  0.2218763E+04  0.7818608E-02  0.8510659E-01
         -1   -1    0    0    0  501 -0.00000000000E+00  0.00000000000E+00  0.96663826130E+03  0.96663826130E+03  0.00000000000E+00 0.  1.
          1   -1    0    0  501    0  0.00000000000E+00 -0.00000000000E+00 -0.12732034511E+04  0.12732034511E+04  0.00000000000E+00 0. -1.
         23    2    1    2    0    0 -0.34938279644E+03 -0.48288969344E+03  0.78879794604E+03  0.99281677527E+03  0.90731224458E+02 0.  0.
         11    1    3    3    0    0 -0.84415067333E+02 -0.62179696050E+02  0.11803252367E+03  0.15787303392E+03  0.00000000000E+00 0.  1.
        -11    1    3    3    0    0 -0.26496772911E+03 -0.42070999739E+03  0.67076542237E+03  0.83494374135E+03  0.00000000000E+00 0. -1.
         22    1    1    2    0    0  0.34938279644E+03  0.48288969344E+03 -0.10953631358E+04  0.12470249371E+04  0.00000000000E+00 0. -1.
<mgrwt>
<rscale>  0 0.22187629E+04</rscale>
<asrwt>0</asrwt>
<pdfrwt beam="1">  1        1 0.19587745E+00 0.22187629E+04</pdfrwt>
<pdfrwt beam="2">  1       -1 0.14871358E+00 0.22187629E+04</pdfrwt>
<totfact> 0.30735381E+00</totfact>
</mgrwt>
</event>
<event>
 6    1  0.1568961E-005  0.1296665E+04  0.7818608E-02  0.9032214E-01
          1   -1    0    0  501    0  0.00000000000E+00  0.00000000000E+00  0.50306353439E+03  0.50306353439E+03  0.00000000000E+00 0. -1.
         -1   -1    0    0    0  501 -0.00000000000E+00 -0.00000000000E+00 -0.83555096007E+03  0.83555096007E+03  0.00000000000E+00 0.  1.
         23    2    1    2    0    0 -0.49066394717E+03  0.40887344264E+03 -0.73674672454E+02  0.64947543565E+03  0.91987950279E+02 0.  0.
         13    1    3    3    0    0 -0.20291684772E+03  0.12496514313E+03  0.14986939159E+01  0.23831445649E+03  0.00000000000E+00 0.  1.
        -13    1    3    3    0    0 -0.28774709945E+03  0.28390829951E+03 -0.75173366370E+02  0.41116097916E+03  0.00000000000E+00 0. -1.
         22    1    1    2    0    0  0.49066394717E+03 -0.40887344264E+03 -0.25881275322E+03  0.68913905881E+03  0.00000000000E+00 0.  1.
<mgrwt>
<rscale>  0 0.12966653E+04</rscale>
<asrwt>0</asrwt>
<pdfrwt beam="1">  1        1 0.77394391E-01 0.12966653E+04</pdfrwt>
<pdfrwt beam="2">  1       -1 0.12854630E+00 0.12966653E+04</pdfrwt>
<totfact> 0.22541969E+01</totfact>
</mgrwt>
</event>
<event>
 6    1  0.1568961E-005  0.1803828E+04  0.7818608E-02  0.8704267E-01
         -2   -1    0    0    0  501 -0.00000000000E+00  0.00000000000E+00  0.66907060234E+03  0.66907060234E+03  0.00000000000E+00 0.  1.
          2   -1    0    0  501    0  0.00000000000E+00 -0.00000000000E+00 -0.12157890758E+04  0.12157890758E+04  0.00000000000E+00 0. -1.
         23    2    1    2    0    0  0.67952876566E+03 -0.38807492556E+03  0.18964362462E+03  0.81034088785E+03  0.91247788733E+02 0.  0.
         13    1    3    3    0    0  0.45829731512E+03 -0.25476897297E+03  0.82903404468E+02  0.53086404390E+03  0.00000000000E+00 0. -1.
        -13    1    3    3    0    0  0.22123145054E+03 -0.13330595260E+03  0.10674022015E+03  0.27947684395E+03  0.00000000000E+00 0.  1.
         22    1    1    2    0    0 -0.67952876566E+03  0.38807492556E+03 -0.73636209807E+03  0.10745187903E+04  0.00000000000E+00 0. -1.
<mgrwt>
<rscale>  0 0.18038279E+04</rscale>
<asrwt>0</asrwt>
<pdfrwt beam="1">  1        2 0.18704447E+00 0.18038279E+04</pdfrwt>
<pdfrwt beam="2">  1       -2 0.10293394E+00 0.18038279E+04</pdfrwt>
<totfact> 0.13488019E+01</totfact>
</mgrwt>
</event>
<event>
 6    1  0.1568961E-005  0.1703300E+04  0.7818608E-02  0.8759484E-01
          2   -1    0    0  501    0  0.00000000000E+00  0.00000000000E+00  0.21297513871E+04  0.21297513871E+04  0.00000000000E+00 0. -1.
         -2   -1    0    0    0  501 -0.00000000000E+00 -0.00000000000E+00 -0.34055999245E+03  0.34055999245E+03  0.00000000000E+00 0.  1.
         23    2    1    2    0    0  0.46368475666E+03 -0.15726596093E+03 -0.10918254021E+03  0.50981151150E+03  0.90833992261E+02 0.  0.
         11    1    3    3    0    0  0.29401476146E+03 -0.11947594123E+03 -0.29934092976E+02  0.31877143913E+03  0.00000000000E+00 0. -1.
        -11    1    3    3    0    0  0.16966999520E+03 -0.37790019701E+02 -0.79248447237E+02  0.19104007237E+03  0.00000000000E+00 0.  1.
         22    1    1    2    0    0 -0.46368475666E+03  0.15726596093E+03  0.18983739349E+04  0.19604998681E+04  0.00000000000E+00 0. -1.
<mgrwt>
<rscale>  0 0.17033005E+04</rscale>
<asrwt>0</asrwt>
<pdfrwt beam="1">  1        2 0.32765405E+00 0.17033005E+04</pdfrwt>
<pdfrwt beam="2">  1       -2 0.52393846E-01 0.17033005E+04</pdfrwt>
<totfact> 0.18500331E+01</totfact>
</mgrwt>
</event>
<event>
 6    1  0.1568961E-005  0.3202185E+04  0.7818608E-02  0.8188240E-01
          2   -1    0    0  501    0  0.00000000000E+00  0.00000000000E+00  0.19972934982E+04  0.19972934982E+04  0.00000000000E+00 0.  1.
         -2   -1    0    0    0  501 -0.00000000000E+00 -0.00000000000E+00 -0.12834852490E+04  0.12834852490E+04  0.00000000000E+00 0. -1.
         23    2    1    2    0    0  0.91763305336E+03  0.58169934072E+03  0.15601136361E+04  0.19035869118E+04  0.96249829384E+02 0.  0.
         13    1    3    3    0    0  0.47676782289E+03  0.26486118847E+03  0.71842853154E+03  0.90199698504E+03  0.00000000000E+00 0.  1.
        -13    1    3    3    0    0  0.44086523047E+03  0.31683815225E+03  0.84168510454E+03  0.10015899267E+04  0.00000000000E+00 0. -1.
         22    1    1    2    0    0 -0.91763305336E+03 -0.58169934072E+03 -0.84630538692E+03  0.13771918354E+04  0.00000000000E+00 0. -1.
<mgrwt>
<rscale>  0 0.32021847E+04</rscale>
<asrwt>0</asrwt>
<pdfrwt beam="1">  1        2 0.30727592E+00 0.32021847E+04</pdfrwt>
<pdfrwt beam="2">  1       -2 0.19745927E+00 0.32021847E+04</pdfrwt>
<totfact> 0.78029819E-01</totfact>
</mgrwt>
</event>
<event>
 6    1  0.1568961E-005  0.2529790E+04  0.7818608E-02  0.8392449E-01
          2   -1    0    0  501    0  0.00000000000E+00  0.00000000000E+00  0.13889872057E+04  0.13889872057E+04  0.00000000000E+00 0. -1.
         -2   -1    0    0    0  501 -0.00000000000E+00 -0.00000000000E+00 -0.11518889491E+04  0.11518889491E+04  0.00000000000E+00 0.  1.
         23    2    1    2    0    0 -0.63224160797E+03 -0.10142012861E+04  0.53069374416E+03  0.13102129151E+04  0.81782230440E+02 0.  0.
         11    1    3    3    0    0 -0.44037532120E+03 -0.65369483945E+03  0.31992094001E+03  0.85064491681E+03  0.00000000000E+00 0. -1.
        -11    1    3    3    0    0 -0.19186628677E+03 -0.36050644661E+03  0.21077280414E+03  0.45956799824E+03  0.00000000000E+00 0.  1.
         22    1    1    2    0    0  0.63224160797E+03  0.10142012861E+04 -0.29359548752E+03  0.12306632398E+04  0.00000000000E+00 0.  1.
<mgrwt>
<rscale>  0 0.25297897E+04</rscale>
<asrwt>0</asrwt>
<pdfrwt beam="1">  1        2 0.21369034E+00 0.25297897E+04</pdfrwt>
<pdfrwt beam="2">  1       -2 0.17721368E+00 0.25297897E+04</pdfrwt>
<totfact> 0.24769169E+00</totfact>
</mgrwt>
</event>
<event>
 6    1  0.1568961E-005  0.3299805E+04  0.7818608E-02  0.8162945E-01
          2   -1    0    0  501    0  0.00000000000E+00  0.00000000000E+00  0.16743242850E+04  0.16743242850E+04  0.00000000000E+00 0. -1.
         -2   -1    0    0    0  501 -0.00000000000E+00 -0.00000000000E+00 -0.16258369556E+04  0.16258369556E+04  0.00000000000E+00 0.  1.
         23    2    1    2    0    0 -0.55761551393E+03 -0.14740764836E+04  0.50806360467E+03  0.16585014423E+04  0.93069151270E+02 0.  0.
         13    1    3    3    0    0 -0.29675838521E+03 -0.88280290656E+03  0.26862239869E+03  0.96931135561E+03  0.00000000000E+00 0. -1.
        -13    1    3    3    0    0 -0.26085712872E+03 -0.59127357700E+03  0.23944120598E+03  0.68919008669E+03  0.00000000000E+00 0.  1.
         22    1    1    2    0    0  0.55761551393E+03  0.14740764836E+04 -0.45957627530E+03  0.16416597984E+04  0.00000000000E+00 0.  1.
<mgrwt>
<rscale>  0 0.32998050E+04</rscale>
<asrwt>0</asrwt>
<pdfrwt beam="1">  1        2 0.25758835E+00 0.32998050E+04</pdfrwt>
<pdfrwt beam="2">  1       -2 0.25012876E+00 0.32998050E+04</pdfrwt>
<totfact> 0.54301674E-01</totfact>
</mgrwt>
</event>
<event>
 6    1  0.1568961E-005  0.2581807E+04  0.7818608E-02  0.8374407E-01
         -2   -1    0    0    0  501 -0.00000000000E+00  0.00000000000E+00  0.99561238515E+03  0.99561238515E+03  0.00000000000E+00 0.  1.
          2   -1    0    0  501    0  0.00000000000E+00 -0.00000000000E+00 -0.16737751280E+04  0.16737751280E+04  0.00000000000E+00 0. -1.
         23    2    1    2    0    0  0.43318058260E+03 -0.75649344023E+03 -0.13215498352E+04  0.15859325335E+04  0.93596428844E+02 0.  0.
         13    1    3    3    0    0  0.35126874613E+03 -0.63848301051E+03 -0.10406821301E+04  0.12704603822E+04  0.00000000000E+00 0. -1.
        -13    1    3    3    0    0  0.81911836476E+02 -0.11801042972E+03 -0.28086770508E+03  0.31547215128E+03  0.00000000000E+00 0.  1.
         22    1    1    2    0    0 -0.43318058260E+03  0.75649344023E+03  0.64338709240E+03  0.10834549796E+04  0.00000000000E+00 0.  1.
<mgrwt>
<rscale>  0 0.25818065E+04</rscale>
<asrwt>0</asrwt>
<pdfrwt beam="1">  1        2 0.25750386E+00 0.25818065E+04</pdfrwt>
<pdfrwt beam="2">  1       -2 0.15317114E+00 0.25818065E+04</pdfrwt>
<totfact> 0.25466490E+00</totfact>
</mgrwt>
</event>
<event>
 6    1  0.1568961E-005  0.1333187E+04  0.7818608E-02  0.9003654E-01
          1   -1    0    0  501    0  0.00000000000E+00  0.00000000000E+00  0.26347411039E+03  0.26347411039E+03  0.00000000000E+00 0. -1.
         -1   -1    0    0    0  501 -0.00000000000E+00 -0.00000000000E+00 -0.16864916060E+04  0.16864916060E+04  0.00000000000E+00 0.  1.
         23    2    1    2    0    0 -0.17161960381E+03  0.49149817798E+03 -0.13164319440E+04  0.14185673468E+04  0.91194884030E+02 0.  0.
         13    1    3    3    0    0 -0.16152335165E+03  0.46841341705E+03 -0.11796207723E+04  0.12794553876E+04  0.00000000000E+00 0.  1.
        -13    1    3    3    0    0 -0.10096252166E+02  0.23084760934E+02 -0.13681117168E+03  0.13911195919E+03  0.00000000000E+00 0. -1.
         22    1    1    2    0    0  0.17161960381E+03 -0.49149817798E+03 -0.10658555159E+03  0.53139836957E+03  0.00000000000E+00 0. -1.
<mgrwt>
<rscale>  0 0.13331870E+04</rscale>
<asrwt>0</asrwt>
<pdfrwt beam="1">  1        1 0.40534480E-01 0.13331870E+04</pdfrwt>
<pdfrwt beam="2">  1       -1 0.25946023E+00 0.13331870E+04</pdfrwt>
<totfact> 0.61681478E+00</totfact>
</mgrwt>
</event>
<event>
 6    1  0.1568961E-005  0.1388422E+04  0.7818608E-02  0.8962242E-01
          1   -1    0    0  501    0  0.00000000000E+00  0.00000000000E+00  0.15598621536E+04  0.15598621536E+04  0.00000000000E+00 0. -1.
         -1   -1    0    0    0  501 -0.00000000000E+00 -0.00000000000E+00 -0.30895624619E+03  0.30895624619E+03  0.00000000000E+00 0.  1.
         23    2    1    2    0    0 -0.25114525438E+03 -0.51312547465E+03  0.10450652252E+03  0.58795804785E+03  0.91658939878E+02 0.  0.
         11    1    3    3    0    0 -0.19984799347E+03 -0.40706251593E+03  0.44254793078E+02  0.45562879527E+03  0.00000000000E+00 0. -1.
        -11    1    3    3    0    0 -0.51297260908E+02 -0.10606295872E+03  0.60251729446E+02  0.13232925259E+03  0.00000000000E+00 0.  1.
         22    1    1    2    0    0  0.25114525438E+03  0.51312547465E+03  0.11463993849E+04  0.12808603520E+04  0.00000000000E+00 0. -1.
<mgrwt>
<rscale>  0 0.13884224E+04</rscale>
<asrwt>0</asrwt>
<pdfrwt beam="1">  1        1 0.23997879E+00 0.13884224E+04</pdfrwt>
<pdfrwt beam="2">  1       -1 0.47531731E-01 0.13884224E+04</pdfrwt>
<totfact> 0.25643210E+01</totfact>
</mgrwt>
</event>
<event>
 6    1  0.1568961E-005  0.1194994E+04  0.7818608E-02  0.9117250E-01
         -2   -1    0    0    0  501 -0.00000000000E+00  0.00000000000E+00  0.12477655704E+04  0.12477655704E+04  0.00000000000E+00 0. -1.
          2   -1    0    0  501    0  0.00000000000E+00 -0.00000000000E+00 -0.28611359964E+03  0.28611359964E+03  0.00000000000E+00 0.  1.
         23    2    1    2    0    0 -0.80748552233E+02 -0.55682966508E+03  0.24091051016E+03  0.61952264350E+03  0.95868802558E+02 0.  0.
         13    1    3    3    0    0  0.99962409216E+01 -0.83868255256E+02  0.88040315384E+01  0.84919491541E+02  0.00000000000E+00 0. -1.
        -13    1    3    3    0    0 -0.90744793154E+02 -0.47296140982E+03  0.23210647862E+03  0.53460315196E+03  0.00000000000E+00 0.  1.
         22    1    1    2    0    0  0.80748552233E+02  0.55682966508E+03  0.72074146059E+03  0.91435652653E+03  0.00000000000E+00 0. -1.
<mgrwt>
<rscale>  0 0.11949941E+04</rscale>
<asrwt>0</asrwt>
<pdfrwt beam="1">  1        2 0.44017478E-01 0.11949941E+04</pdfrwt>
<pdfrwt beam="2">  1       -2 0.19196393E+00 0.11949941E+04</pdfrwt>
<totfact> 0.17167215E+01</totfact>
</mgrwt>
</event>
<event>
 6    1  0.1568961E-005  0.1594694E+04  0.7818608E-02  0.8823814E-01
         -2   -1    0    0    0  501 -0.00000000000E+00  0.00000000000E+00  0.28715455441E+03  0.28715455441E+03  0.00000000000E+00 0.  1.
          2   -1    0    0  501    0  0.00000000000E+00 -0.00000000000E+00 -0.22140070017E+04  0.22140070017E+04  0.00000000000E+00 0. -1.
         23    2    1    2    0    0  0.30674166838E+03 -0.45619899549E+03 -0.18665035643E+04  0.19481245209E+04  0.95632729584E+02 0.  0.
         13    1    3    3    0    0  0.24886996760E+03 -0.36692901015E+03 -0.13556226281E+04  0.14262839370E+04  0.00000000000E+00 0. -1.
        -13    1    3    3    0    0  0.57871700781E+02 -0.89269985342E+02 -0.51088093617E+03  0.52184058388E+03  0.00000000000E+00 0.  1.
         22    1    1    2    0    0 -0.30674166838E+03  0.45619899549E+03 -0.60348883005E+02  0.55303703518E+03  0.00000000000E+00 0.  1.
<mgrwt>
<rscale>  0 0.15946939E+04</rscale>
<asrwt>0</asrwt>
<pdfrwt beam="1">  1        2 0.34061645E+00 0.15946939E+04</pdfrwt>
<pdfrwt beam="2">  1       -2 0.44177626E-01 0.15946939E+04</pdfrwt>
<totfact> 0.23657256E+01</totfact>
</mgrwt>
</event>
<event>
 6    1  0.1568961E-005  0.2425598E+04  0.7818608E-02  0.8429982E-01
         -1   -1    0    0    0  501 -0.00000000000E+00  0.00000000000E+00  0.52511598934E+03  0.52511598934E+03  0.00000000000E+00 0.  1.
          1   -1    0    0  501    0  0.00000000000E+00 -0.00000000000E+00 -0.28010602296E+04  0.28010602296E+04  0.00000000000E+00 0. -1.
         23    2    1    2    0    0 -0.88877603641E+03 -0.12365410095E+03 -0.24110223692E+02  0.90213628161E+03  0.89751814146E+02 0.  0.
         13    1    3    3    0    0 -0.51786578961E+03 -0.29659928108E+02 -0.28188960149E+02  0.51947984067E+03  0.00000000000E+00 0. -1.
        -13    1    3    3    0    0 -0.37091024680E+03 -0.93994172841E+02  0.40787364570E+01  0.38265644095E+03  0.00000000000E+00 0.  1.
         22    1    1    2    0    0  0.88877603641E+03  0.12365410095E+03 -0.22518340165E+04  0.24240399373E+04  0.00000000000E+00 0. -1.
<mgrwt>
<rscale>  0 0.24255981E+04</rscale>
<asrwt>0</asrwt>
<pdfrwt beam="1">  1        1 0.43093234E+00 0.24255981E+04</pdfrwt>
<pdfrwt beam="2">  1       -1 0.80787076E-01 0.24255981E+04</pdfrwt>
<totfact> 0.11362801E+00</totfact>
</mgrwt>
</event>
<event>
 6    1  0.1568961E-005  0.1875284E+04  0.7818608E-02  0.8667258E-01
         -2   -1    0    0    0  501 -0.00000000000E+00  0.00000000000E+00  0.82853899711E+03  0.82853899711E+03  0.00000000000E+00 0.  1.
          2   -1    0    0  501    0  0.00000000000E+00 -0.00000000000E+00 -0.10611120807E+04  0.10611120807E+04  0.00000000000E+00 0. -1.
         23    2    1    2    0    0 -0.45538954816E+03  0.11186659071E+03  0.69895234988E+03  0.84675443485E+03  0.92546803545E+02 0.  0.
         13    1    3    3    0    0 -0.35093383793E+03  0.11893568445E+03  0.58034817422E+03  0.68855229211E+03  0.00000000000E+00 0.  1.
        -13    1    3    3    0    0 -0.10445571023E+03 -0.70690937382E+01  0.11860417566E+03  0.15820214275E+03  0.00000000000E+00 0. -1.
         22    1    1    2    0    0  0.45538954816E+03 -0.11186659071E+03 -0.93152543349E+03  0.10428966430E+04  0.00000000000E+00 0. -1.
<mgrwt>
<rscale>  0 0.18752842E+04</rscale>
<asrwt>0</asrwt>
<pdfrwt beam="1">  1        2 0.16324801E+00 0.18752842E+04</pdfrwt>
<pdfrwt beam="2">  1       -2 0.12746754E+00 0.18752842E+04</pdfrwt>
<totfact> 0.98675576E+00</totfact>
</mgrwt>
</event>
<event>
 6    1  0.1568961E-005  0.3662998E+04  0.7818608E-02  0.8076212E-01
         -2   -1    0    0    0  501 -0.00000000000E+00  0.00000000000E+00  0.82263660701E+03  0.82263660701E+03  0.00000000000E+00 0.  1.
          2   -1    0    0  501    0  0.00000000000E+00 -0.00000000000E+00 -0.40776059717E+04  0.40776059717E+04  0.00000000000E+00 0. -1.
         23    2    1    2    0    0  0.16813852434E+04 -0.40900272814E+03 -0.24265465567E+04  0.29817473567E+04  0.91375812042E+02 0.  0.
         13    1    3    3    0    0  0.10214392287E+04 -0.24292078808E+03 -0.13953169968E+04  0.17462125096E+04  0.00000000000E+00 0. -1.
        -13    1    3    3    0    0  0.65994601464E+03 -0.16608194006E+03 -0.10312295599E+04  0.12355348470E+04  0.00000000000E+00 0.  1.
         22    1    1    2    0    0 -0.16813852434E+04  0.40900272814E+03 -0.82842280800E+03  0.19184952220E+04  0.00000000000E+00 0.  1.
<mgrwt>
<rscale>  0 0.36629976E+04</rscale>
<asrwt>0</asrwt>
<pdfrwt beam="1">  1        2 0.62732401E+00 0.36629976E+04</pdfrwt>
<pdfrwt beam="2">  1       -2 0.12655947E+00 0.36629976E+04</pdfrwt>
<totfact> 0.11096248E-01</totfact>
</mgrwt>
</event>
<event>
 6    1  0.1568961E-005  0.2373505E+04  0.7818608E-02  0.8449490E-01
          1   -1    0    0  501    0  0.00000000000E+00  0.00000000000E+00  0.99153098879E+03  0.99153098879E+03  0.00000000000E+00 0. -1.
         -1   -1    0    0    0  501 -0.00000000000E+00 -0.00000000000E+00 -0.14204115293E+04  0.14204115293E+04  0.00000000000E+00 0.  1.
         23    2    1    2    0    0 -0.36591647882E+02  0.11756949137E+04 -0.35718859816E+03  0.12334955683E+04  0.10163731354E+03 0.  0.
         13    1    3    3    0    0 -0.39144761856E+01  0.74025397452E+03 -0.17711511603E+03  0.76115769342E+03  0.00000000000E+00 0. -1.
        -13    1    3    3    0    0 -0.32677171697E+02  0.43544093923E+03 -0.18007348212E+03  0.47233787490E+03  0.00000000000E+00 0.  1.
         22    1    1    2    0    0  0.36591647882E+02 -0.11756949137E+04 -0.71691942382E+02  0.11784469498E+04  0.00000000000E+00 0. -1.
<mgrwt>
<rscale>  0 0.23735055E+04</rscale>
<asrwt>0</asrwt>
<pdfrwt beam="1">  1        1 0.15254323E+00 0.23735055E+04</pdfrwt>
<pdfrwt beam="2">  1       -1 0.21852485E+00 0.23735055E+04</pdfrwt>
<totfact> 0.15536134E+00</totfact>
</mgrwt>
</event>
<event>
 6    1  0.1568961E-005  0.1720327E+04  0.7818608E-02  0.8749855E-01
         -1   -1    0    0    0  501 -0.00000000000E+00  0.00000000000E+00  0.70115090781E+03  0.70115090781E+03  0.00000000000E+00 0.  1.
          1   -1    0    0  501    0  0.00000000000E+00 -0.00000000000E+00 -0.10552379377E+04  0.10552379377E+04  0.00000000000E+00 0. -1.
         23    2    1    2    0    0  0.48955803498E+03 -0.69726673807E+03 -0.77592331502E+02  0.86067834993E+03  0.94332807168E+02 0.  0.
         11    1    3    3    0    0  0.13032988227E+03 -0.24082355312E+03  0.57034825366E+01  0.27388755295E+03  0.00000000000E+00 0.  1.
        -11    1    3    3    0    0  0.35922815271E+03 -0.45644318495E+03 -0.83295814039E+02  0.58679079698E+03  0.00000000000E+00 0. -1.
         22    1    1    2    0    0 -0.48955803498E+03  0.69726673807E+03 -0.27649469836E+03  0.89571049556E+03  0.00000000000E+00 0. -1.
<mgrwt>
<rscale>  0 0.17203268E+04</rscale>
<asrwt>0</asrwt>
<pdfrwt beam="1">  1        1 0.16234430E+00 0.17203268E+04</pdfrwt>
<pdfrwt beam="2">  1       -1 0.10786937E+00 0.17203268E+04</pdfrwt>
<totfact> 0.10412950E+01</totfact>
</mgrwt>
</event>
<event>
 6    1  0.1568961E-005  0.2634060E+04  0.7818608E-02  0.8356723E-01
          1   -1    0    0  501    0  0.00000000000E+00  0.00000000000E+00  0.14644962906E+04  0.14644962906E+04  0.00000000000E+00 0. -1.
         -1   -1    0    0    0  501 -0.00000000000E+00 -0.00000000000E+00 -0.11844124025E+04  0.11844124025E+04  0.00000000000E+00 0.  1.
         23    2    1    2    0    0 -0.25755428753E+03  0.11588766310E+04 -0.42966077874E+03  0.12657721311E+04  0.90782410867E+02 0.  0.
         13    1    3    3    0    0 -0.17581635401E+03  0.89390133614E+03 -0.29571108181E+03  0.95781837161E+03  0.00000000000E+00 0. -1.
        -13    1    3    3    0    0 -0.81737933521E+02  0.26497529487E+03 -0.13394969693E+03  0.30795375948E+03  0.00000000000E+00 0.  1.
         22    1    1    2    0    0  0.25755428753E+03 -0.11588766310E+04  0.70974466682E+03  0.13831365620E+04  0.00000000000E+00 0. -1.
<mgrwt>
<rscale>  0 0.26340597E+04</rscale>
<asrwt>0</asrwt>
<pdfrwt beam="1">  1        1 0.22530712E+00 0.26340597E+04</pdfrwt>
<pdfrwt beam="2">  1       -1 0.18221729E+00 0.26340597E+04</pdfrwt>
<totfact> 0.12200074E+00</totfact>
</mgrwt>
</event>
<event>
 6    1  0.1568961E-005  0.1794475E+04  0.7818608E-02  0.8709243E-01
          2   -1    0    0  501    0  0.00000000000E+00  0.00000000000E+00  0.13965985119E+04  0.13965985119E+04  0.00000000000E+00 0. -1.
         -2   -1    0    0    0  501 -0.00000000000E+00 -0.00000000000E+00 -0.57642575256E+03  0.57642575256E+03  0.00000000000E+00 0.  1.
         23    2    1    2    0    0  0.68675911275E+03  0.25613347047E+03  0.97560345748E+03  0.12237571989E+04  0.92396655835E+02 0.  0.
         11    1    3    3    0    0  0.50601162483E+03  0.22829381534E+03  0.75735685932E+03  0.93901823355E+03  0.00000000000E+00 0. -1.
        -11    1    3    3    0    0  0.18074748792E+03  0.27839655126E+02  0.21824659817E+03  0.28473896537E+03  0.00000000000E+00 0.  1.
         22    1    1    2    0    0 -0.68675911275E+03 -0.25613347047E+03 -0.15543069811E+03  0.74926706558E+03  0.00000000000E+00 0.  1.
<mgrwt>
<rscale>  0 0.17944752E+04</rscale>
<asrwt>0</asrwt>
<pdfrwt beam="1">  1        2 0.21486131E+00 0.17944752E+04</pdfrwt>
<pdfrwt beam="2">  1       -2 0.88680886E-01 0.17944752E+04</pdfrwt>
<totfact> 0.15012353E+01</totfact>
</mgrwt>
</event>
<event>
 6    1  0.1568961E-005  0.2957314E+04  0.7818608E-02  0.8256026E-01
         -2   -1    0    0    0  501 -0.00000000000E+00  0.00000000000E+00  0.10273381298E+04  0.10273381298E+04  0.00000000000E+00 0.  1.
          2   -1    0    0  501    0  0.00000000000E+00 -0.00000000000E+00 -0.21282444504E+04  0.21282444504E+04  0.00000000000E+00 0. -1.
         23    2    1    2    0    0  0.12020217911E+04  0.61373065948E+03 -0.11918117875E+04  0.18028869335E+04  0.92001356694E+02 0.  0.
         13    1    3    3    0    0  0.22036462212E+03  0.11366367368E+03 -0.17316192569E+03  0.30243189300E+03  0.00000000000E+00 0.  1.
        -13    1    3    3    0    0  0.98165716894E+03  0.50006698580E+03 -0.10186498619E+04  0.15004550405E+04  0.00000000000E+00 0. -1.
         22    1    1    2    0    0 -0.12020217911E+04 -0.61373065948E+03  0.90905466968E+02  0.13526956467E+04  0.00000000000E+00 0.  1.
<mgrwt>
<rscale>  0 0.29573141E+04</rscale>
<asrwt>0</asrwt>
<pdfrwt beam="1">  1        2 0.32742222E+00 0.29573141E+04</pdfrwt>
<pdfrwt beam="2">  1       -2 0.15805202E+00 0.29573141E+04</pdfrwt>
<totfact> 0.12675310E+00</totfact>
</mgrwt>
</event>
<event>
 6    1  0.1568961E-005  0.1402652E+04  0.7818608E-02  0.8951901E-01
          1   -1    0    0  501    0  0.00000000000E+00  0.00000000000E+00  0.10786508619E+04  0.10786508619E+04  0.00000000000E+00 0. -1.
         -1   -1    0    0    0  501 -0.00000000000E+00 -0.00000000000E+00 -0.45599389838E+03  0.45599389838E+03  0.00000000000E+00 0.  1.
         23    2    1    2    0    0 -0.86803120364E+02 -0.17910326425E+03  0.10450235744E+04  0.10677332966E+04  0.91473277335E+02 0.  0.
         13    1    3    3    0    0  0.46443275442E+01 -0.93723773012E+02  0.46357350037E+03  0.47297579816E+03  0.00000000000E+00 0. -1.
        -13    1    3    3    0    0 -0.91447447908E+02 -0.85379491233E+02  0.58145007407E+03  0.59475749839E+03  0.00000000000E+00 0.  1.
         22    1    1    2    0    0  0.86803120364E+02  0.17910326425E+03 -0.42236661090E+03  0.46691146374E+03  0.00000000000E+00 0.  1.
<mgrwt>
<rscale>  0 0.14026521E+04</rscale>
<asrwt>0</asrwt>
<pdfrwt beam="1">  1        1 0.16594629E+00 0.14026521E+04</pdfrwt>
<pdfrwt beam="2">  1       -1 0.70152908E-01 0.14026521E+04</pdfrwt>
<totfact> 0.26352758E+01</totfact>
</mgrwt>
</event>
<event>
 6    1  0.1568961E-005  0.9498733E+03  0.7818608E-02  0.9365299E-01
         -2   -1    0    0    0  501 -0.00000000000E+00  0.00000000000E+00  0.68851284855E+03  0.68851284855E+03  0.00000000000E+00 0. -1.
          2   -1    0    0  501    0  0.00000000000E+00 -0.00000000000E+00 -0.32761160954E+03  0.32761160954E+03  0.00000000000E+00 0.  1.
         23    2    1    2    0    0  0.69247318935E+02 -0.18979975550E+03  0.63657398483E+03  0.67434294724E+03  0.93235368601E+02 0.  0.
         13    1    3    3    0    0  0.50370952530E+02 -0.31447803503E+02  0.12308959679E+03  0.13666472128E+03  0.00000000000E+00 0.  1.
        -13    1    3    3    0    0  0.18876366405E+02 -0.15835195200E+03  0.51348438804E+03  0.53767822596E+03  0.00000000000E+00 0. -1.
         22    1    1    2    0    0 -0.69247318935E+02  0.18979975550E+03 -0.27567274583E+03  0.34178151085E+03  0.00000000000E+00 0.  1.
<mgrwt>
<rscale>  0 0.94987326E+03</rscale>
<asrwt>0</asrwt>
<pdfrwt beam="1">  1        2 0.50401786E-01 0.94987326E+03</pdfrwt>
<pdfrwt beam="2">  1       -2 0.10592505E+00 0.94987326E+03</pdfrwt>
<totfact> 0.71687543E+01</totfact>
</mgrwt>
</event>
<event>
 6    1  0.1568961E-005  0.1074887E+04  0.7818608E-02  0.9230020E-01
         -1   -1    0    0    0  501 -0.00000000000E+00  0.00000000000E+00  0.49039284179E+03  0.49039284179E+03  0.00000000000E+00 0.  1.
          1   -1    0    0  501    0  0.00000000000E+00 -0.00000000000E+00 -0.58900849203E+03  0.58900849203E+03  0.00000000000E+00 0. -1.
         23    2    1    2    0    0 -0.31963063527E+03  0.84074583898E+02 -0.47034333551E+03  0.58199430666E+03  0.90896870525E+02 0.  0.
         13    1    3    3    0    0 -0.25869777927E+03  0.81483581382E+02 -0.43157783463E+03  0.50972889105E+03  0.00000000000E+00 0. -1.
        -13    1    3    3    0    0 -0.60932856004E+02  0.25910025157E+01 -0.38765500879E+02  0.72265415610E+02  0.00000000000E+00 0.  1.
         22    1    1    2    0    0  0.31963063527E+03 -0.84074583898E+02  0.37172768527E+03  0.49740702715E+03  0.00000000000E+00 0.  1.
<mgrwt>
<rscale>  0 0.10748871E+04</rscale>
<asrwt>0</asrwt>
<pdfrwt beam="1">  1        1 0.90616691E-01 0.10748871E+04</pdfrwt>
<pdfrwt beam="2">  1       -1 0.75445053E-01 0.10748871E+04</pdfrwt>
<totfact> 0.62028073E+01</totfact>
</mgrwt>
</event>
<event>
 6    1  0.1568961E-005  0.2924749E+04  0.7818608E-02  0.8265552E-01
          2   -1    0    0  501    0  0.00000000000E+00  0.00000000000E+00  0.27564794084E+04  0.27564794084E+04  0.00000000000E+00 0. -1.
         -2   -1    0    0    0  501 -0.00000000000E+00 -0.00000000000E+00 -0.77582248419E+03  0.77582248419E+03  0.00000000000E+00 0.  1.
         23    2    1    2    0    0 -0.13393331205E+04  0.45362251359E+03  0.54757025422E+03  0.15190150287E+04  0.89369354925E+02 0.  0.
         13    1    3    3    0    0 -0.76091335019E+03  0.30408768596E+03  0.32128517987E+03  0.88016056152E+03  0.00000000000E+00 0. -1.
        -13    1    3    3    0    0 -0.57841977033E+03  0.14953482763E+03  0.22628507435E+03  0.63885446720E+03  0.00000000000E+00 0.  1.
         22    1    1    2    0    0  0.13393331205E+04 -0.45362251359E+03  0.14330866700E+04  0.20132868639E+04  0.00000000000E+00 0. -1.
<mgrwt>
<rscale>  0 0.29247487E+04</rscale>
<asrwt>0</asrwt>
<pdfrwt beam="1">  1        2 0.42407375E+00 0.29247487E+04</pdfrwt>
<pdfrwt beam="2">  1       -2 0.11935731E+00 0.29247487E+04</pdfrwt>
<totfact> 0.11381940E+00</totfact>
</mgrwt>
</event>
<event>
 6    1  0.1568961E-005  0.8770121E+03  0.7818608E-02  0.9454783E-01
         -3   -1    0    0    0  501 -0.00000000000E+00  0.00000000000E+00  0.16292350053E+03  0.16292350053E+03  0.00000000000E+00 0.  1.
          3   -1    0    0  501    0  0.00000000000E+00 -0.00000000000E+00 -0.11802321155E+04  0.11802321155E+04  0.00000000000E+00 0. -1.
         23    2    1    2    0    0 -0.13526468691E+03 -0.33727016651E+03 -0.15263911458E+03  0.40523182079E+03  0.94161714834E+02 0.  0.
         13    1    3    3    0    0 -0.59576977367E+01 -0.13518316348E+03 -0.49463109436E+02  0.14407144424E+03  0.00000000000E+00 0.  1.
        -13    1    3    3    0    0 -0.12930698918E+03 -0.20208700303E+03 -0.10317600514E+03  0.26116037655E+03  0.00000000000E+00 0. -1.
         22    1    1    2    0    0  0.13526468691E+03  0.33727016651E+03 -0.86466950038E+03  0.93792379521E+03  0.00000000000E+00 0. -1.
<mgrwt>
<rscale>  0 0.87701208E+03</rscale>
<asrwt>0</asrwt>
<pdfrwt beam="1">  1        3 0.18157418E+00 0.87701208E+03</pdfrwt>
<pdfrwt beam="2">  1       -3 0.25065152E-01 0.87701208E+03</pdfrwt>
<totfact> 0.77722770E+00</totfact>
</mgrwt>
</event>
<event>
 6    1  0.1568961E-005  0.3190140E+04  0.7818608E-02  0.8191426E-01
          2   -1    0    0  501    0  0.00000000000E+00  0.00000000000E+00  0.83863025151E+03  0.83863025151E+03  0.00000000000E+00 0. -1.
         -2   -1    0    0    0  501 -0.00000000000E+00 -0.00000000000E+00 -0.30338135731E+04  0.30338135731E+04  0.00000000000E+00 0.  1.
         23    2    1    2    0    0 -0.13697609746E+03  0.11201239734E+04  0.26766765656E+03  0.11633710852E+04  0.91357213950E+02 0.  0.
         11    1    3    3    0    0 -0.51119828144E+02  0.61514340645E+03  0.10647524842E+03  0.62637977766E+03  0.00000000000E+00 0. -1.
        -11    1    3    3    0    0 -0.85856269317E+02  0.50498056690E+03  0.16119240814E+03  0.53699130753E+03  0.00000000000E+00 0.  1.
         22    1    1    2    0    0  0.13697609746E+03 -0.11201239734E+04 -0.24628509782E+04  0.27090727394E+04  0.00000000000E+00 0.  1.
<mgrwt>
<rscale>  0 0.31901397E+04</rscale>
<asrwt>0</asrwt>
<pdfrwt beam="1">  1        2 0.12902004E+00 0.31901397E+04</pdfrwt>
<pdfrwt beam="2">  1       -2 0.46674055E+00 0.31901397E+04</pdfrwt>
<totfact> 0.73238290E-02</totfact>
</mgrwt>
</event>
<event>
 6    1  0.1568961E-005  0.1994361E+04  0.7818608E-02  0.8609262E-01
          2   -1    0    0  501    0  0.00000000000E+00  0.00000000000E+00  0.11790739714E+04  0.11790739714E+04  0.00000000000E+00 0. -1.
         -2   -1    0    0    0  501 -0.00000000000E+00 -0.00000000000E+00 -0.84334715612E+03  0.84334715612E+03  0.00000000000E+00 0.  1.
         23    2    1    2    0    0  0.30338338878E+03  0.39305182834E+02 -0.79214060049E+03  0.85380173458E+03  0.88906091130E+02 0.  0.
         11    1    3    3    0    0  0.65444886137E+02 -0.20640338974E+01 -0.90079188329E+02  0.11136226258E+03  0.00000000000E+00 0. -1.
        -11    1    3    3    0    0  0.23793850264E+03  0.41369216731E+02 -0.70206141217E+03  0.74243947200E+03  0.00000000000E+00 0.  1.
         22    1    1    2    0    0 -0.30338338878E+03 -0.39305182834E+02  0.11278674158E+04  0.11686193930E+04  0.00000000000E+00 0. -1.
<mgrwt>
<rscale>  0 0.19943607E+04</rscale>
<asrwt>0</asrwt>
<pdfrwt beam="1">  1        2 0.18139600E+00 0.19943607E+04</pdfrwt>
<pdfrwt beam="2">  1       -2 0.12974572E+00 0.19943607E+04</pdfrwt>
<totfact> 0.79105471E+00</totfact>
</mgrwt>
</event>
<event>
 6    1  0.1568961E-005  0.8653889E+03  0.7818608E-02  0.9469912E-01
          2   -1    0    0  501    0  0.00000000000E+00  0.00000000000E+00  0.10723607163E+04  0.10723607163E+04  0.00000000000E+00 0. -1.
         -2   -1    0    0    0  501 -0.00000000000E+00 -0.00000000000E+00 -0.17459097013E+03  0.17459097013E+03  0.00000000000E+00 0.  1.
         23    2    1    2    0    0 -0.31617622513E+03 -0.63888440138E+01  0.37844097940E+02  0.33072008735E+03  0.89080737329E+02 0.  0.
         11    1    3    3    0    0 -0.22556180972E+03 -0.37594010795E+02  0.28408370893E+01  0.22869086122E+03  0.00000000000E+00 0. -1.
        -11    1    3    3    0    0 -0.90614415409E+02  0.31205166781E+02  0.35003260851E+02  0.10202922613E+03  0.00000000000E+00 0.  1.
         22    1    1    2    0    0  0.31617622513E+03  0.63888440138E+01  0.85992564818E+03  0.91623159903E+03  0.00000000000E+00 0. -1.
<mgrwt>
<rscale>  0 0.86538892E+03</rscale>
<asrwt>0</asrwt>
<pdfrwt beam="1">  1        2 0.16497857E+00 0.86538892E+03</pdfrwt>
<pdfrwt beam="2">  1       -2 0.26860150E-01 0.86538892E+03</pdfrwt>
<totfact> 0.28583444E+02</totfact>
</mgrwt>
</event>
<event>
 6    1  0.1568961E-005  0.1345397E+04  0.7818608E-02  0.8994320E-01
          1   -1    0    0  501    0  0.00000000000E+00  0.00000000000E+00  0.10391727338E+04  0.10391727338E+04  0.00000000000E+00 0. -1.
         -1   -1    0    0    0  501 -0.00000000000E+00 -0.00000000000E+00 -0.43546479026E+03  0.43546479026E+03  0.00000000000E+00 0.  1.
         23    2    1    2    0    0 -0.21053354688E+02 -0.55467076671E+03  0.71379822420E+03  0.90875522789E+03  0.90693198022E+02 0.  0.
         11    1    3    3    0    0 -0.35970246009E+02 -0.37271557513E+03  0.53662831739E+03  0.65435518609E+03  0.00000000000E+00 0. -1.
        -11    1    3    3    0    0  0.14916891322E+02 -0.18195519158E+03  0.17716990682E+03  0.25440004180E+03  0.00000000000E+00 0.  1.
         22    1    1    2    0    0  0.21053354688E+02  0.55467076671E+03 -0.11009028069E+03  0.56588229614E+03  0.00000000000E+00 0.  1.
<mgrwt>
<rscale>  0 0.13453968E+04</rscale>
<asrwt>0</asrwt>
<pdfrwt beam="1">  1        1 0.15987273E+00 0.13453968E+04</pdfrwt>
<pdfrwt beam="2">  1       -1 0.66994583E-01 0.13453968E+04</pdfrwt>
<totfact> 0.31180919E+01</totfact>
</mgrwt>
</event>
<event>
 6    1  0.1568961E-005  0.1653562E+04  0.7818608E-02  0.8788302E-01
          1   -1    0    0  501    0  0.00000000000E+00  0.00000000000E+00  0.11542056210E+04  0.11542056210E+04  0.00000000000E+00 0.  1.
         -1   -1    0    0    0  501 -0.00000000000E+00 -0.00000000000E+00 -0.59224015441E+03  0.59224015441E+03  0.00000000000E+00 0. -1.
         23    2    1    2    0    0  0.72211250484E+02  0.76909604209E+03  0.58568676319E+03  0.97360304458E+03  0.90281322437E+02 0.  0.
         13    1    3    3    0    0  0.52721904306E+01  0.47962276868E+03  0.38514675389E+03  0.61514536352E+03  0.00000000000E+00 0. -1.
        -13    1    3    3    0    0  0.66939060053E+02  0.28947327341E+03  0.20054000930E+03  0.35845768106E+03  0.00000000000E+00 0.  1.
         22    1    1    2    0    0 -0.72211250484E+02 -0.76909604209E+03 -0.23721296624E+02  0.77284273081E+03  0.00000000000E+00 0. -1.
<mgrwt>
<rscale>  0 0.16535621E+04</rscale>
<asrwt>0</asrwt>
<pdfrwt beam="1">  1        1 0.17757010E+00 0.16535621E+04</pdfrwt>
<pdfrwt beam="2">  1       -1 0.91113870E-01 0.16535621E+04</pdfrwt>
<totfact> 0.12970622E+01</totfact>
</mgrwt>
</event>
<event>
 6    1  0.1568961E-005  0.1591775E+04  0.7818608E-02  0.8825617E-01
          1   -1    0    0  501    0  0.00000000000E+00  0.00000000000E+00  0.47248066013E+03  0.47248066013E+03  0.00000000000E+00 0. -1.
         -1   -1    0    0    0  501 -0.00000000000E+00 -0.00000000000E+00 -0.13406624484E+04  0.13406624484E+04  0.00000000000E+00 0.  1.
         23    2    1    2    0    0 -0.55523225887E+03 -0.62482793301E+02 -0.10769412645E+04  0.12166806372E+04  0.91226777041E+02 0.  0.
         11    1    3    3    0    0 -0.23522516594E+03  0.37869294945E+01 -0.38006152991E+03  0.44698096832E+03  0.00000000000E+00 0. -1.
        -11    1    3    3    0    0 -0.32000709293E+03 -0.66269722796E+02 -0.69687973463E+03  0.76969966885E+03  0.00000000000E+00 0.  1.
         22    1    1    2    0    0  0.55523225887E+03  0.62482793301E+02  0.20875947631E+03  0.59646247132E+03  0.00000000000E+00 0. -1.
<mgrwt>
<rscale>  0 0.15917752E+04</rscale>
<asrwt>0</asrwt>
<pdfrwt beam="1">  1        1 0.72689333E-01 0.15917752E+04</pdfrwt>
<pdfrwt beam="2">  1       -1 0.20625576E+00 0.15917752E+04</pdfrwt>
<totfact> 0.62708618E+00</totfact>
</mgrwt>
</event>
<event>
 6    1  0.1638029E-005  0.5091849E+04  0.7818608E-02  0.7814493E-01
         -1   -1    0    0    0  501 -0.00000000000E+00  0.00000000000E+00  0.30215354300E+04  0.30215354300E+04  0.00000000000E+00 0.  1.
          1   -1    0    0  501    0  0.00000000000E+00 -0.00000000000E+00 -0.21451779647E+04  0.21451779647E+04  0.00000000000E+00 0. -1.
         23    2    1    2    0    0 -0.11570490733E+04 -0.10861483315E+04 -0.15806814448E+04  0.22417311791E+04  0.91236470598E+02 0.  0.
         11    1    3    3    0    0 -0.51696749806E+03 -0.43205237131E+03 -0.63799672509E+03  0.92788170950E+03  0.00000000000E+00 0. -1.
        -11    1    3    3    0    0 -0.64008157523E+03 -0.65409596022E+03 -0.94268471971E+03  0.13138494696E+04  0.00000000000E+00 0.  1.
         22    1    1    2    0    0  0.11570490733E+04  0.10861483315E+04  0.24570389101E+04  0.29249822156E+04  0.00000000000E+00 0.  1.
<mgrwt>
<rscale>  0 0.50918489E+04</rscale>
<asrwt>0</asrwt>
<pdfrwt beam="1">  1        1 0.33002738E+00 0.50918489E+04</pdfrwt>
<pdfrwt beam="2">  1       -1 0.46485161E+00 0.50918489E+04</pdfrwt>
<totfact> 0.43689395E-03</totfact>
</mgrwt>
</event>
<event>
 6    1  0.1568961E-005  0.3698785E+04  0.7818608E-02  0.8068231E-01
          2   -1    0    0  501    0  0.00000000000E+00  0.00000000000E+00  0.24856405011E+04  0.24856405011E+04  0.00000000000E+00 0. -1.
         -2   -1    0    0    0  501 -0.00000000000E+00 -0.00000000000E+00 -0.13760044533E+04  0.13760044533E+04  0.00000000000E+00 0.  1.
         23    2    1    2    0    0  0.41005441788E+03  0.10264366908E+04  0.21016807436E+04  0.23764279385E+04  0.92902601218E+02 0.  0.
         13    1    3    3    0    0  0.20165434263E+03  0.38655048744E+03  0.80149858915E+03  0.91240656599E+03  0.00000000000E+00 0. -1.
        -13    1    3    3    0    0  0.20840007526E+03  0.63988620334E+03  0.13001821544E+04  0.14640213726E+04  0.00000000000E+00 0.  1.
         22    1    1    2    0    0 -0.41005441788E+03 -0.10264366908E+04 -0.99204469574E+03  0.14852170159E+04  0.00000000000E+00 0.  1.
<mgrwt>
<rscale>  0 0.36987849E+04</rscale>
<asrwt>0</asrwt>
<pdfrwt beam="1">  1        2 0.38240623E+00 0.36987849E+04</pdfrwt>
<pdfrwt beam="2">  1       -2 0.21169299E+00 0.36987849E+04</pdfrwt>
<totfact> 0.32035453E-01</totfact>
</mgrwt>
</event>
<event>
 6    1  0.1568961E-005  0.3123954E+04  0.7818608E-02  0.8209195E-01
         -1   -1    0    0    0  501 -0.00000000000E+00  0.00000000000E+00  0.17142731291E+04  0.17142731291E+04  0.00000000000E+00 0.  1.
          1   -1    0    0  501    0  0.00000000000E+00 -0.00000000000E+00 -0.14232105577E+04  0.14232105577E+04  0.00000000000E+00 0. -1.
         23    2    1    2    0    0 -0.88057256105E+03  0.11684925350E+04  0.69092057246E+03  0.16206879653E+04  0.92061956783E+02 0.  0.
         13    1    3    3    0    0 -0.81957682529E+03  0.10972314084E+04  0.62130280691E+03  0.15038750327E+04  0.00000000000E+00 0. -1.
        -13    1    3    3    0    0 -0.60995735755E+02  0.71261126541E+02  0.69617765551E+02  0.11681293257E+03  0.00000000000E+00 0.  1.
         22    1    1    2    0    0  0.88057256105E+03 -0.11684925350E+04 -0.39985800103E+03  0.15167957214E+04  0.00000000000E+00 0. -1.
<mgrwt>
<rscale>  0 0.31239537E+04</rscale>
<asrwt>0</asrwt>
<pdfrwt beam="1">  1        1 0.21895547E+00 0.31239537E+04</pdfrwt>
<pdfrwt beam="2">  1       -1 0.26373433E+00 0.31239537E+04</pdfrwt>
<totfact> 0.35357204E-01</totfact>
</mgrwt>
</event>
<event>
 6    1  0.1568961E-005  0.3978983E+04  0.7818608E-02  0.8008800E-01
          1   -1    0    0  501    0  0.00000000000E+00  0.00000000000E+00  0.23400108133E+04  0.23400108133E+04  0.00000000000E+00 0. -1.
         -1   -1    0    0    0  501 -0.00000000000E+00 -0.00000000000E+00 -0.16914779391E+04  0.16914779391E+04  0.00000000000E+00 0.  1.
         23    2    1    2    0    0 -0.17555818693E+04 -0.85446409121E+03 -0.57145653216E+02  0.19553965659E+04  0.90186036614E+02 0.  0.
         13    1    3    3    0    0 -0.12680666647E+04 -0.64723971970E+03 -0.12002250492E+02  0.14237473002E+04  0.00000000000E+00 0. -1.
        -13    1    3    3    0    0 -0.48751520460E+03 -0.20722437150E+03 -0.45143402724E+02  0.53164926566E+03  0.00000000000E+00 0.  1.
         22    1    1    2    0    0  0.17555818693E+04  0.85446409121E+03  0.70567852747E+03  0.20760921866E+04  0.00000000000E+00 0. -1.
<mgrwt>
<rscale>  0 0.39789831E+04</rscale>
<asrwt>0</asrwt>
<pdfrwt beam="1">  1        1 0.36000166E+00 0.39789831E+04</pdfrwt>
<pdfrwt beam="2">  1       -1 0.26022737E+00 0.39789831E+04</pdfrwt>
<totfact> 0.81912097E-02</totfact>
</mgrwt>
</event>
<event>
 6    1  0.1568961E-005  0.1825648E+04  0.7818608E-02  0.8692778E-01
          2   -1    0    0  501    0  0.00000000000E+00  0.00000000000E+00  0.31748897454E+04  0.31748897454E+04  0.00000000000E+00 0. -1.
         -2   -1    0    0    0  501 -0.00000000000E+00 -0.00000000000E+00 -0.26244935065E+03  0.26244935065E+03  0.00000000000E+00 0.  1.
         23    2    1    2    0    0  0.43719869921E+03 -0.79846919638E+03  0.14917932918E+04  0.17500531241E+04  0.92428087549E+02 0.  0.
         13    1    3    3    0    0  0.14706165365E+03 -0.35840682084E+03  0.60342465694E+03  0.71708011812E+03  0.00000000000E+00 0. -1.
        -13    1    3    3    0    0  0.29013704556E+03 -0.44006237554E+03  0.88836863487E+03  0.10329730059E+04  0.00000000000E+00 0.  1.
         22    1    1    2    0    0 -0.43719869921E+03  0.79846919638E+03  0.14206471029E+04  0.16872859720E+04  0.00000000000E+00 0.  1.
<mgrwt>
<rscale>  0 0.18256481E+04</rscale>
<asrwt>0</asrwt>
<pdfrwt beam="1">  1        2 0.48844455E+00 0.18256481E+04</pdfrwt>
<pdfrwt beam="2">  1       -2 0.40376826E-01 0.18256481E+04</pdfrwt>
<totfact> 0.74023684E+00</totfact>
</mgrwt>
</event>
<event>
 6    1  0.1568961E-005  0.5051030E+04  0.7818608E-02  0.7820683E-01
         -2   -1    0    0    0  501 -0.00000000000E+00  0.00000000000E+00  0.19245032458E+04  0.19245032458E+04  0.00000000000E+00 0.  1.
          2   -1    0    0  501    0  0.00000000000E+00 -0.00000000000E+00 -0.33142188497E+04  0.33142188497E+04  0.00000000000E+00 0. -1.
         23    2    1    2    0    0 -0.23396211780E+04  0.62640101018E+03 -0.14334430970E+04  0.28163023185E+04  0.10292791192E+03 0.  0.
         11    1    3    3    0    0 -0.91337162517E+03  0.29404265520E+03 -0.58571361583E+03  0.11241749190E+04  0.00000000000E+00 0. -1.
        -11    1    3    3    0    0 -0.14262495528E+04  0.33235835498E+03 -0.84772948119E+03  0.16921273995E+04  0.00000000000E+00 0.  1.
         22    1    1    2    0    0  0.23396211780E+04 -0.62640101018E+03  0.43727493056E+02  0.24224197769E+04  0.00000000000E+00 0.  1.
<mgrwt>
<rscale>  0 0.50510296E+04</rscale>
<asrwt>0</asrwt>
<pdfrwt beam="1">  1        2 0.50987982E+00 0.50510296E+04</pdfrwt>
<pdfrwt beam="2">  1       -2 0.29607742E+00 0.50510296E+04</pdfrwt>
<totfact> 0.26506284E-02</totfact>
</mgrwt>
</event>
<event>
 6    1  0.1568961E-005  0.8807728E+03  0.7818608E-02  0.9449941E-01
         -2   -1    0    0    0  501 -0.00000000000E+00  0.00000000000E+00  0.16827743837E+03  0.16827743837E+03  0.00000000000E+00 0.  1.
          2   -1    0    0  501    0  0.00000000000E+00 -0.00000000000E+00 -0.11525025482E+04  0.11525025482E+04  0.00000000000E+00 0. -1.
         23    2    1    2    0    0  0.27490723635E+03 -0.13209808148E+03 -0.31514085917E+02  0.32043895131E+03  0.93081105396E+02 0.  0.
         13    1    3    3    0    0  0.20801590408E+03 -0.14088000681E+03 -0.29323465966E+02  0.25293805235E+03  0.00000000000E+00 0. -1.
        -13    1    3    3    0    0  0.66891332269E+02  0.87819253374E+01 -0.21906199519E+01  0.67500898965E+02  0.00000000000E+00 0.  1.
         22    1    1    2    0    0 -0.27490723635E+03  0.13209808148E+03 -0.95271102390E+03  0.10003410352E+04  0.00000000000E+00 0. -1.
<mgrwt>
<rscale>  0 0.88077279E+03</rscale>
<asrwt>0</asrwt>
<pdfrwt beam="1">  1        2 0.17730808E+00 0.88077279E+03</pdfrwt>
<pdfrwt beam="2">  1       -2 0.25888837E-01 0.88077279E+03</pdfrwt>
<totfact> 0.27281904E+02</totfact>
</mgrwt>
</event>
<event>
 6    1  0.1568961E-005  0.3192704E+04  0.7818608E-02  0.8190747E-01
         -2   -1    0    0    0  501 -0.00000000000E+00  0.00000000000E+00  0.97873872992E+03  0.97873872992E+03  0.00000000000E+00 0.  1.
          2   -1    0    0  501    0  0.00000000000E+00 -0.00000000000E+00 -0.26036982601E+04  0.26036982601E+04  0.00000000000E+00 0. -1.
         23    2    1    2    0    0  0.27449776098E+03  0.20457945119E+03 -0.25611979039E+04  0.25855698650E+04  0.90747181741E+02 0.  0.
         13    1    3    3    0    0  0.19596388001E+03  0.17252880124E+03 -0.16623518038E+04  0.16827303852E+04  0.00000000000E+00 0.  1.
        -13    1    3    3    0    0  0.78533880965E+02  0.32050649949E+02 -0.89884610008E+03  0.90283947978E+03  0.00000000000E+00 0. -1.
         22    1    1    2    0    0 -0.27449776098E+03 -0.20457945119E+03  0.93623837372E+03  0.99686712507E+03  0.00000000000E+00 0.  1.
<mgrwt>
<rscale>  0 0.31927044E+04</rscale>
<asrwt>0</asrwt>
<pdfrwt beam="1">  1        2 0.40056896E+00 0.31927044E+04</pdfrwt>
<pdfrwt beam="2">  1       -2 0.15057519E+00 0.31927044E+04</pdfrwt>
<totfact> 0.75647795E-01</totfact>
</mgrwt>
</event>
<event>
 6    1  0.1568961E-005  0.1894395E+04  0.7818608E-02  0.8657651E-01
         -2   -1    0    0    0  501 -0.00000000000E+00  0.00000000000E+00  0.39441138227E+03  0.39441138227E+03  0.00000000000E+00 0.  1.
          2   -1    0    0  501    0  0.00000000000E+00 -0.00000000000E+00 -0.22747400717E+04  0.22747400717E+04  0.00000000000E+00 0. -1.
         23    2    1    2    0    0  0.29106255591E+03  0.51081417293E+03  0.10057521359E+03  0.60284344118E+03  0.87500344402E+02 0.  0.
         11    1    3    3    0    0  0.55854652415E+02  0.42982800641E+02  0.59266124904E+01  0.70727562399E+02  0.00000000000E+00 0. -1.
        -11    1    3    3    0    0  0.23520790349E+03  0.46783137229E+03  0.94648601102E+02  0.53211587878E+03  0.00000000000E+00 0.  1.
         22    1    1    2    0    0 -0.29106255591E+03 -0.51081417293E+03 -0.19809039030E+04  0.20663080128E+04  0.00000000000E+00 0. -1.
<mgrwt>
<rscale>  0 0.18943953E+04</rscale>
<asrwt>0</asrwt>
<pdfrwt beam="1">  1        2 0.34996002E+00 0.18943953E+04</pdfrwt>
<pdfrwt beam="2">  1       -2 0.60678672E-01 0.18943953E+04</pdfrwt>
<totfact> 0.11105936E+01</totfact>
</mgrwt>
</event>
<event>
 6    1  0.1568961E-005  0.2942023E+04  0.7818608E-02  0.8260483E-01
          2   -1    0    0  501    0  0.00000000000E+00  0.00000000000E+00  0.19339422698E+04  0.19339422698E+04  0.00000000000E+00 0. -1.
         -2   -1    0    0    0  501 -0.00000000000E+00 -0.00000000000E+00 -0.11188933906E+04  0.11188933906E+04  0.00000000000E+00 0.  1.
         23    2    1    2    0    0 -0.20978875295E+03 -0.14194753834E+04  0.73732701737E+03  0.16158379664E+04  0.91430402269E+02 0.  0.
         13    1    3    3    0    0 -0.22817775645E+02 -0.91966295544E+02  0.26280958407E+02  0.98331781110E+02  0.00000000000E+00 0. -1.
        -13    1    3    3    0    0 -0.18697097731E+03 -0.13275090878E+04  0.71104605897E+03  0.15175061853E+04  0.00000000000E+00 0.  1.
         22    1    1    2    0    0  0.20978875295E+03  0.14194753834E+04  0.77721861830E+02  0.14369976940E+04  0.00000000000E+00 0. -1.
<mgrwt>
<rscale>  0 0.29420233E+04</rscale>
<asrwt>0</asrwt>
<pdfrwt beam="1">  1        2 0.29752958E+00 0.29420233E+04</pdfrwt>
<pdfrwt beam="2">  1       -2 0.17213744E+00 0.29420233E+04</pdfrwt>
<totfact> 0.12872690E+00</totfact>
</mgrwt>
</event>
<event>
 6    1  0.1568961E-005  0.3206548E+04  0.7818608E-02  0.8187090E-01
         -2   -1    0    0    0  501 -0.00000000000E+00  0.00000000000E+00  0.20080947757E+04  0.20080947757E+04  0.00000000000E+00 0. -1.
          2   -1    0    0  501    0  0.00000000000E+00 -0.00000000000E+00 -0.12800630190E+04  0.12800630190E+04  0.00000000000E+00 0.  1.
         23    2    1    2    0    0  0.43081676691E+03 -0.55342107497E+03  0.18412638867E+04  0.19724208346E+04  0.91177166654E+02 0.  0.
         13    1    3    3    0    0  0.70608752926E+02 -0.14672639120E+03  0.37915856868E+03  0.41264445963E+03  0.00000000000E+00 0. -1.
        -13    1    3    3    0    0  0.36020801399E+03 -0.40669468376E+03  0.14621053180E+04  0.15597763750E+04  0.00000000000E+00 0.  1.
         22    1    1    2    0    0 -0.43081676691E+03  0.55342107497E+03 -0.11132321300E+04  0.13157369601E+04  0.00000000000E+00 0.  1.
<mgrwt>
<rscale>  0 0.32065482E+04</rscale>
<asrwt>0</asrwt>
<pdfrwt beam="1">  1        2 0.19693277E+00 0.32065482E+04</pdfrwt>
<pdfrwt beam="2">  1       -2 0.30893766E+00 0.32065482E+04</pdfrwt>
<totfact> 0.40030174E-01</totfact>
</mgrwt>
</event>
<event>
 6    1  0.1568961E-005  0.1950545E+04  0.7818608E-02  0.8630098E-01
          2   -1    0    0  501    0  0.00000000000E+00  0.00000000000E+00  0.44694330841E+03  0.44694330841E+03  0.00000000000E+00 0. -1.
         -2   -1    0    0    0  501 -0.00000000000E+00 -0.00000000000E+00 -0.21281376149E+04  0.21281376149E+04  0.00000000000E+00 0.  1.
         23    2    1    2    0    0  0.20411512575E+03  0.85272390438E+03 -0.13996667237E+04  0.16541798311E+04  0.91885443174E+02 0.  0.
         11    1    3    3    0    0  0.90762382044E+02  0.53258344133E+03 -0.80826406618E+03  0.97220045909E+03  0.00000000000E+00 0. -1.
        -11    1    3    3    0    0  0.11335274371E+03  0.32014046305E+03 -0.59140265751E+03  0.68197937204E+03  0.00000000000E+00 0.  1.
         22    1    1    2    0    0 -0.20411512575E+03 -0.85272390438E+03 -0.28152758278E+03  0.92090109215E+03  0.00000000000E+00 0.  1.
<mgrwt>
<rscale>  0 0.19505454E+04</rscale>
<asrwt>0</asrwt>
<pdfrwt beam="1">  1        2 0.68760509E-01 0.19505454E+04</pdfrwt>
<pdfrwt beam="2">  1       -2 0.32740579E+00 0.19505454E+04</pdfrwt>
<totfact> 0.14114093E+00</totfact>
</mgrwt>
</event>
<event>
 6    1  0.1568961E-005  0.3531930E+04  0.7818608E-02  0.8106264E-01
         -1   -1    0    0    0  501 -0.00000000000E+00  0.00000000000E+00  0.10347451832E+04  0.10347451832E+04  0.00000000000E+00 0.  1.
          1   -1    0    0  501    0  0.00000000000E+00 -0.00000000000E+00 -0.30139130458E+04  0.30139130458E+04  0.00000000000E+00 0. -1.
         23    2    1    2    0    0 -0.39615370663E+03  0.13820883188E+04 -0.21633889143E+04  0.25991606346E+04  0.90986424126E+02 0.  0.
         13    1    3    3    0    0 -0.28137705782E+03  0.86986013087E+03 -0.14298821818E+04  0.16971719859E+04  0.00000000000E+00 0.  1.
        -13    1    3    3    0    0 -0.11477664882E+03  0.51222818796E+03 -0.73350673254E+03  0.90198864867E+03  0.00000000000E+00 0. -1.
         22    1    1    2    0    0  0.39615370663E+03 -0.13820883188E+04  0.18422105176E+03  0.14494975944E+04  0.00000000000E+00 0.  1.
<mgrwt>
<rscale>  0 0.35319298E+04</rscale>
<asrwt>0</asrwt>
<pdfrwt beam="1">  1        1 0.46367892E+00 0.35319298E+04</pdfrwt>
<pdfrwt beam="2">  1       -1 0.15919157E+00 0.35319298E+04</pdfrwt>
<totfact> 0.14071373E-01</totfact>
</mgrwt>
</event>
<event>
 6    1  0.1568961E-005  0.5224929E+04  0.7818608E-02  0.7794716E-01
         -2   -1    0    0    0  501 -0.00000000000E+00  0.00000000000E+00  0.13117400346E+04  0.13117400346E+04  0.00000000000E+00 0. -1.
          2   -1    0    0  501    0  0.00000000000E+00 -0.00000000000E+00 -0.52029906303E+04  0.52029906303E+04  0.00000000000E+00 0.  1.
         23    2    1    2    0    0 -0.80088707541E+02  0.21080921124E+04 -0.38658641204E+04  0.44049650315E+04  0.91350837246E+02 0.  0.
         11    1    3    3    0    0 -0.48307240386E+02  0.14660062018E+04 -0.26000990769E+04  0.29853011545E+04  0.00000000000E+00 0. -1.
        -11    1    3    3    0    0 -0.31781467155E+02  0.64208591052E+03 -0.12657650435E+04  0.14196638770E+04  0.00000000000E+00 0.  1.
         22    1    1    2    0    0  0.80088707541E+02 -0.21080921124E+04 -0.25386475287E+02  0.21097656335E+04  0.00000000000E+00 0.  1.
<mgrwt>
<rscale>  0 0.52249291E+04</rscale>
<asrwt>0</asrwt>
<pdfrwt beam="1">  1        2 0.80046007E+00 0.52249291E+04</pdfrwt>
<pdfrwt beam="2">  1       -2 0.20180616E+00 0.52249291E+04</pdfrwt>
<totfact> 0.16513785E-03</totfact>
</mgrwt>
</event>
<event>
 6    1  0.1568961E-005  0.3377772E+04  0.7818608E-02  0.8143383E-01
         -2   -1    0    0    0  501 -0.00000000000E+00  0.00000000000E+00  0.19503849026E+04  0.19503849026E+04  0.00000000000E+00 0.  1.
          2   -1    0    0  501    0  0.00000000000E+00 -0.00000000000E+00 -0.14624478447E+04  0.14624478447E+04  0.00000000000E+00 0. -1.
         23    2    1    2    0    0  0.43182626646E+03  0.70341318326E+03  0.17314134576E+04  0.19203523999E+04  0.93256356367E+02 0.  0.
         11    1    3    3    0    0  0.16593340722E+03  0.35820524286E+03  0.80612298056E+03  0.89759631875E+03  0.00000000000E+00 0. -1.
        -11    1    3    3    0    0  0.26589285924E+03  0.34520794040E+03  0.92529047704E+03  0.10227560812E+04  0.00000000000E+00 0.  1.
         22    1    1    2    0    0 -0.43182626646E+03 -0.70341318326E+03 -0.12434763997E+04  0.14924803474E+04  0.00000000000E+00 0. -1.
<mgrwt>
<rscale>  0 0.33777722E+04</rscale>
<asrwt>0</asrwt>
<pdfrwt beam="1">  1        2 0.22499198E+00 0.33777722E+04</pdfrwt>
<pdfrwt beam="2">  1       -2 0.30005922E+00 0.33777722E+04</pdfrwt>
<totfact> 0.35132309E-01</totfact>
</mgrwt>
</event>
<event>
 6    1  0.1568961E-005  0.2153144E+04  0.7818608E-02  0.8538187E-01
         -2   -1    0    0    0  501 -0.00000000000E+00  0.00000000000E+00  0.54261537022E+03  0.54261537022E+03  0.00000000000E+00 0.  1.
          2   -1    0    0  501    0  0.00000000000E+00 -0.00000000000E+00 -0.21359655803E+04  0.21359655803E+04  0.00000000000E+00 0. -1.
         23    2    1    2    0    0 -0.19063645545E+02 -0.69924420617E+03  0.21666699095E+03  0.73809952817E+03  0.92414533915E+02 0.  0.
         11    1    3    3    0    0  0.26485165008E+02 -0.20405077048E+03  0.92203166066E+02  0.22547639507E+03  0.00000000000E+00 0.  1.
        -11    1    3    3    0    0 -0.45548810554E+02 -0.49519343568E+03  0.12446382488E+03  0.51262313310E+03  0.00000000000E+00 0. -1.
         22    1    1    2    0    0  0.19063645545E+02  0.69924420617E+03 -0.18100172010E+04  0.19404814223E+04  0.00000000000E+00 0. -1.
<mgrwt>
<rscale>  0 0.21531444E+04</rscale>
<asrwt>0</asrwt>
<pdfrwt beam="1">  1        2 0.32861009E+00 0.21531444E+04</pdfrwt>
<pdfrwt beam="2">  1       -2 0.83479288E-01 0.21531444E+04</pdfrwt>
<totfact> 0.64612416E+00</totfact>
</mgrwt>
</event>
<event>
 6    1  0.1568961E-005  0.3038157E+04  0.7818608E-02  0.8232918E-01
          2   -1    0    0  501    0  0.00000000000E+00  0.00000000000E+00  0.30458290052E+04  0.30458290052E+04  0.00000000000E+00 0. -1.
         -2   -1    0    0    0  501 -0.00000000000E+00 -0.00000000000E+00 -0.75762583402E+03  0.75762583402E+03  0.00000000000E+00 0.  1.
         23    2    1    2    0    0  0.33965480995E+03 -0.12652454890E+04  0.18507941528E+03  0.13256854653E+04  0.83522605471E+02 0.  0.
         13    1    3    3    0    0  0.19491686937E+03 -0.65586840721E+03  0.13452457737E+03  0.69731830283E+03  0.00000000000E+00 0. -1.
        -13    1    3    3    0    0  0.14473794058E+03 -0.60937708183E+03  0.50554837914E+02  0.62836716252E+03  0.00000000000E+00 0.  1.
         22    1    1    2    0    0 -0.33965480995E+03  0.12652454890E+04  0.21031237559E+04  0.24777693739E+04  0.00000000000E+00 0. -1.
<mgrwt>
<rscale>  0 0.30381565E+04</rscale>
<asrwt>0</asrwt>
<pdfrwt beam="1">  1        2 0.46858907E+00 0.30381565E+04</pdfrwt>
<pdfrwt beam="2">  1       -2 0.11655782E+00 0.30381565E+04</pdfrwt>
<totfact> 0.79266605E-01</totfact>
</mgrwt>
</event>
<event>
 6    1  0.1568961E-005  0.1459608E+04  0.7818608E-02  0.8911766E-01
         -2   -1    0    0    0  501 -0.00000000000E+00  0.00000000000E+00  0.65238895582E+03  0.65238895582E+03  0.00000000000E+00 0.  1.
          2   -1    0    0  501    0  0.00000000000E+00 -0.00000000000E+00 -0.81640558268E+03  0.81640558268E+03  0.00000000000E+00 0. -1.
         23    2    1    2    0    0  0.42480561738E+03 -0.98156394224E+02 -0.66772630226E+03  0.80259792535E+03  0.90611946048E+02 0.  0.
         13    1    3    3    0    0  0.27636163850E+03 -0.70389430400E+02 -0.35538481367E+03  0.45566302564E+03  0.00000000000E+00 0.  1.
        -13    1    3    3    0    0  0.14844397888E+03 -0.27766963824E+02 -0.31234148859E+03  0.34693489972E+03  0.00000000000E+00 0. -1.
         22    1    1    2    0    0 -0.42480561738E+03  0.98156394224E+02  0.50370967540E+03  0.66619661315E+03  0.00000000000E+00 0.  1.
<mgrwt>
<rscale>  0 0.14596081E+04</rscale>
<asrwt>0</asrwt>
<pdfrwt beam="1">  1        2 0.12560086E+00 0.14596081E+04</pdfrwt>
<pdfrwt beam="2">  1       -2 0.10036753E+00 0.14596081E+04</pdfrwt>
<totfact> 0.26607028E+01</totfact>
</mgrwt>
</event>
<event>
 6    1  0.1568961E-005  0.2391732E+04  0.7818608E-02  0.8442605E-01
          3   -1    0    0  501    0  0.00000000000E+00  0.00000000000E+00  0.19503876713E+04  0.19503876713E+04  0.00000000000E+00 0. -1.
         -3   -1    0    0    0  501 -0.00000000000E+00 -0.00000000000E+00 -0.73323672206E+03  0.73323672206E+03  0.00000000000E+00 0.  1.
         23    2    1    2    0    0  0.85964764852E+03 -0.85289731533E+01 -0.32029370061E+03  0.92214692420E+03  0.93274177437E+02 0.  0.
         13    1    3    3    0    0  0.61969215231E+03  0.33387533568E+02 -0.21505530629E+03  0.65679667767E+03  0.00000000000E+00 0.  1.
        -13    1    3    3    0    0  0.23995549622E+03 -0.41916506721E+02 -0.10523839431E+03  0.26535024654E+03  0.00000000000E+00 0. -1.
         22    1    1    2    0    0 -0.85964764852E+03  0.85289731533E+01  0.15374446499E+04  0.17614774692E+04  0.00000000000E+00 0. -1.
<mgrwt>
<rscale>  0 0.23917323E+04</rscale>
<asrwt>0</asrwt>
<pdfrwt beam="1">  1        3 0.30005964E+00 0.23917323E+04</pdfrwt>
<pdfrwt beam="2">  1       -3 0.11280565E+00 0.23917323E+04</pdfrwt>
<totfact> 0.59536100E-02</totfact>
</mgrwt>
</event>
<event>
 6    1  0.1568961E-005  0.2180022E+04  0.7818608E-02  0.8526790E-01
         -2   -1    0    0    0  501 -0.00000000000E+00  0.00000000000E+00  0.79084850112E+03  0.79084850112E+03  0.00000000000E+00 0.  1.
          2   -1    0    0  501    0  0.00000000000E+00 -0.00000000000E+00 -0.15023413012E+04  0.15023413012E+04  0.00000000000E+00 0. -1.
         23    2    1    2    0    0 -0.63294731128E+03 -0.74966319510E+03  0.13847664779E+03  0.99508916400E+03  0.91703093603E+02 0.  0.
         11    1    3    3    0    0 -0.29753410281E+03 -0.38175838637E+03  0.11043151078E+03  0.49644851341E+03  0.00000000000E+00 0. -1.
        -11    1    3    3    0    0 -0.33541320847E+03 -0.36790480873E+03  0.28045137009E+02  0.49864065059E+03  0.00000000000E+00 0.  1.
         22    1    1    2    0    0  0.63294731128E+03  0.74966319510E+03 -0.84996944791E+03  0.12981006384E+04  0.00000000000E+00 0. -1.
<mgrwt>
<rscale>  0 0.21800224E+04</rscale>
<asrwt>0</asrwt>
<pdfrwt beam="1">  1        2 0.23112943E+00 0.21800224E+04</pdfrwt>
<pdfrwt beam="2">  1       -2 0.12166900E+00 0.21800224E+04</pdfrwt>
<totfact> 0.59451950E+00</totfact>
</mgrwt>
</event>
<event>
 6    1  0.1568961E-005  0.4974081E+03  0.7818608E-02  0.1014458E+00
          2   -1    0    0  501    0  0.00000000000E+00  0.00000000000E+00  0.37576341144E+03  0.37576341144E+03  0.00000000000E+00 0. -1.
         -2   -1    0    0    0  501 -0.00000000000E+00 -0.00000000000E+00 -0.16460811505E+03  0.16460811505E+03  0.00000000000E+00 0.  1.
         23    2    1    2    0    0  0.16583049795E+03 -0.16909997098E+03  0.15243550714E+03  0.29635806808E+03  0.92178991318E+02 0.  0.
         11    1    3    3    0    0  0.85525749630E+02 -0.33735987085E+02  0.84707000594E+02  0.12501218590E+03  0.00000000000E+00 0.  1.
        -11    1    3    3    0    0  0.80304748322E+02 -0.13536398390E+03  0.67728506546E+02  0.17134588218E+03  0.00000000000E+00 0. -1.
         22    1    1    2    0    0 -0.16583049795E+03  0.16909997098E+03  0.58719789258E+02  0.24401345841E+03  0.00000000000E+00 0.  1.
<mgrwt>
<rscale>  0 0.49740811E+03</rscale>
<asrwt>0</asrwt>
<pdfrwt beam="1">  1        2 0.57809755E-01 0.49740811E+03</pdfrwt>
<pdfrwt beam="2">  1       -2 0.25324325E-01 0.49740811E+03</pdfrwt>
<totfact> 0.11946744E+03</totfact>
</mgrwt>
</event>
<event>
 6    1  0.1848222E-005  0.4002538E+04  0.7818608E-02  0.8004035E-01
          1   -1    0    0  501    0  0.00000000000E+00  0.00000000000E+00  0.18286262552E+04  0.18286262552E+04  0.00000000000E+00 0. -1.
         -1   -1    0    0    0  501 -0.00000000000E+00 -0.00000000000E+00 -0.21902108162E+04  0.21902108162E+04  0.00000000000E+00 0.  1.
         23    2    1    2    0    0  0.64562461871E+03  0.75682642463E+03  0.15612970240E+04  0.18538680241E+04  0.97779692796E+02 0.  0.
         11    1    3    3    0    0  0.28596688476E+03  0.28574647492E+03  0.56769426613E+03  0.69692530942E+03  0.00000000000E+00 0. -1.
        -11    1    3    3    0    0  0.35965773395E+03  0.47107994971E+03  0.99360275791E+03  0.11569427147E+04  0.00000000000E+00 0.  1.
         22    1    1    2    0    0 -0.64562461871E+03 -0.75682642463E+03 -0.19228815851E+04  0.21649690473E+04  0.00000000000E+00 0.  1.
<mgrwt>
<rscale>  0 0.40025377E+04</rscale>
<asrwt>0</asrwt>
<pdfrwt beam="1">  1        1 0.28132712E+00 0.40025377E+04</pdfrwt>
<pdfrwt beam="2">  1       -1 0.33695551E+00 0.40025377E+04</pdfrwt>
<totfact> 0.57745270E-02</totfact>
</mgrwt>
</event>
<event>
 6    1  0.1568961E-005  0.2590007E+04  0.7818608E-02  0.8371604E-01
          2   -1    0    0  501    0  0.00000000000E+00  0.00000000000E+00  0.18679285430E+04  0.18679285430E+04  0.00000000000E+00 0. -1.
         -2   -1    0    0    0  501 -0.00000000000E+00 -0.00000000000E+00 -0.89780390897E+03  0.89780390897E+03  0.00000000000E+00 0.  1.
         23    2    1    2    0    0  0.22448452163E+03 -0.11129994318E+04  0.11478933276E+04  0.16164880289E+04  0.78825252068E+02 0.  0.
         13    1    3    3    0    0  0.82908366139E+02 -0.50796544762E+03  0.56887841764E+03  0.76715405703E+03  0.00000000000E+00 0. -1.
        -13    1    3    3    0    0  0.14157615550E+03 -0.60503398414E+03  0.57901491000E+03  0.84933397187E+03  0.00000000000E+00 0.  1.
         22    1    1    2    0    0 -0.22448452163E+03  0.11129994318E+04 -0.17776869359E+03  0.11492444231E+04  0.00000000000E+00 0.  1.
<mgrwt>
<rscale>  0 0.25900066E+04</rscale>
<asrwt>0</asrwt>
<pdfrwt beam="1">  1        2 0.28737362E+00 0.25900066E+04</pdfrwt>
<pdfrwt beam="2">  1       -2 0.13812368E+00 0.25900066E+04</pdfrwt>
<totfact> 0.26054048E+00</totfact>
</mgrwt>
</event>
<event>
 6    1  0.1568961E-005  0.1722954E+04  0.7818608E-02  0.8748380E-01
         -1   -1    0    0    0  501 -0.00000000000E+00  0.00000000000E+00  0.18630194031E+04  0.18630194031E+04  0.00000000000E+00 0.  1.
          1   -1    0    0  501    0  0.00000000000E+00 -0.00000000000E+00 -0.39835472815E+03  0.39835472815E+03  0.00000000000E+00 0. -1.
         23    2    1    2    0    0  0.84286269055E+03  0.71981152100E+02  0.92766904932E+03  0.12593945390E+04  0.99528580687E+02 0.  0.
         13    1    3    3    0    0  0.19057224960E+03  0.57863216153E+02  0.20673142385E+03  0.28706064814E+03  0.00000000000E+00 0. -1.
        -13    1    3    3    0    0  0.65229044094E+03  0.14117935947E+02  0.72093762547E+03  0.97233389084E+03  0.00000000000E+00 0.  1.
         22    1    1    2    0    0 -0.84286269055E+03 -0.71981152100E+02  0.53699562563E+03  0.10019795923E+04  0.00000000000E+00 0. -1.
<mgrwt>
<rscale>  0 0.17229540E+04</rscale>
<asrwt>0</asrwt>
<pdfrwt beam="1">  1        1 0.61285344E-01 0.17229540E+04</pdfrwt>
<pdfrwt beam="2">  1       -1 0.28661836E+00 0.17229540E+04</pdfrwt>
<totfact> 0.23129114E+00</totfact>
</mgrwt>
</event>
<event>
 6    1  0.1568961E-005  0.1896000E+04  0.7818608E-02  0.8656850E-01
         -1   -1    0    0    0  501 -0.00000000000E+00  0.00000000000E+00  0.56968626422E+03  0.56968626422E+03  0.00000000000E+00 0.  1.
          1   -1    0    0  501    0  0.00000000000E+00 -0.00000000000E+00 -0.15775418989E+04  0.15775418989E+04  0.00000000000E+00 0. -1.
         23    2    1    2    0    0 -0.15621422769E+03  0.92313042793E+03 -0.65237677941E+03  0.11457602962E+04  0.10294912368E+03 0.  0.
         13    1    3    3    0    0 -0.10154393703E+03  0.69886519671E+03 -0.54014646706E+03  0.88909051293E+03  0.00000000000E+00 0. -1.
        -13    1    3    3    0    0 -0.54670290660E+02  0.22426523123E+03 -0.11223031236E+03  0.25666978324E+03  0.00000000000E+00 0.  1.
         22    1    1    2    0    0  0.15621422769E+03 -0.92313042793E+03 -0.35547885523E+03  0.10014678669E+04  0.00000000000E+00 0.  1.
<mgrwt>
<rscale>  0 0.18959999E+04</rscale>
<asrwt>0</asrwt>
<pdfrwt beam="1">  1        1 0.24269875E+00 0.18959999E+04</pdfrwt>
<pdfrwt beam="2">  1       -1 0.87644043E-01 0.18959999E+04</pdfrwt>
<totfact> 0.69296951E+00</totfact>
</mgrwt>
</event>
<event>
 6    1  0.1568961E-005  0.3285346E+04  0.7818608E-02  0.8166634E-01
         -2   -1    0    0    0  501 -0.00000000000E+00  0.00000000000E+00  0.89003784890E+03  0.89003784890E+03  0.00000000000E+00 0.  1.
          2   -1    0    0  501    0  0.00000000000E+00 -0.00000000000E+00 -0.30317525080E+04  0.30317525080E+04  0.00000000000E+00 0. -1.
         23    2    1    2    0    0  0.14169250702E+04 -0.75852579510E+03 -0.14697240283E+04  0.21797773132E+04  0.91117394074E+02 0.  0.
         13    1    3    3    0    0  0.60970906518E+03 -0.33816428207E+03 -0.57830588546E+03  0.90583548340E+03  0.00000000000E+00 0.  1.
        -13    1    3    3    0    0  0.80721600505E+03 -0.42036151303E+03 -0.89141814284E+03  0.12739418298E+04  0.00000000000E+00 0. -1.
         22    1    1    2    0    0 -0.14169250702E+04  0.75852579510E+03 -0.67199063083E+03  0.17420130437E+04  0.00000000000E+00 0.  1.
<mgrwt>
<rscale>  0 0.32853459E+04</rscale>
<asrwt>0</asrwt>
<pdfrwt beam="1">  1        2 0.46642347E+00 0.32853459E+04</pdfrwt>
<pdfrwt beam="2">  1       -2 0.13692890E+00 0.32853459E+04</pdfrwt>
<totfact> 0.52856723E-01</totfact>
</mgrwt>
</event>
<event>
 6    1  0.1568961E-005  0.1722984E+04  0.7818608E-02  0.8748363E-01
         -1   -1    0    0    0  501 -0.00000000000E+00  0.00000000000E+00  0.75623523306E+03  0.75623523306E+03  0.00000000000E+00 0.  1.
          1   -1    0    0  501    0  0.00000000000E+00 -0.00000000000E+00 -0.98139913832E+03  0.98139913832E+03  0.00000000000E+00 0. -1.
         23    2    1    2    0    0  0.19256911125E+02 -0.66816363268E+03  0.43140783635E+03  0.80067123415E+03  0.90267575950E+02 0.  0.
         11    1    3    3    0    0  0.49798960563E+01 -0.48500841787E+03  0.35796464780E+03  0.60282389953E+03  0.00000000000E+00 0.  1.
        -11    1    3    3    0    0  0.14277015069E+02 -0.18315521481E+03  0.73443188546E+02  0.19784733462E+03  0.00000000000E+00 0. -1.
         22    1    1    2    0    0 -0.19256911125E+02  0.66816363268E+03 -0.65657174161E+03  0.93696313723E+03  0.00000000000E+00 0. -1.
<mgrwt>
<rscale>  0 0.17229842E+04</rscale>
<asrwt>0</asrwt>
<pdfrwt beam="1">  1        1 0.15098448E+00 0.17229842E+04</pdfrwt>
<pdfrwt beam="2">  1       -1 0.11634388E+00 0.17229842E+04</pdfrwt>
<totfact> 0.99226701E+00</totfact>
</mgrwt>
</event>
<event>
 6    1  0.1568961E-005  0.3464891E+04  0.7818608E-02  0.8122161E-01
          1   -1    0    0  501    0  0.00000000000E+00  0.00000000000E+00  0.25364660357E+04  0.25364660357E+04  0.00000000000E+00 0. -1.
         -1   -1    0    0    0  501 -0.00000000000E+00 -0.00000000000E+00 -0.11832868180E+04  0.11832868180E+04  0.00000000000E+00 0.  1.
         23    2    1    2    0    0 -0.58701407712E+03 -0.16284406865E+04  0.70593972317E+03  0.18716934500E+04  0.92091704615E+02 0.  0.
         11    1    3    3    0    0 -0.11435922193E+03 -0.22665808083E+03  0.11502140706E+03  0.27871462345E+03  0.00000000000E+00 0. -1.
        -11    1    3    3    0    0 -0.47265485520E+03 -0.14017826057E+04  0.59091831611E+03  0.15929788266E+04  0.00000000000E+00 0.  1.
         22    1    1    2    0    0  0.58701407712E+03  0.16284406865E+04  0.64723949458E+03  0.18480594037E+04  0.00000000000E+00 0.  1.
<mgrwt>
<rscale>  0 0.34648907E+04</rscale>
<asrwt>0</asrwt>
<pdfrwt beam="1">  1        1 0.39022554E+00 0.34648907E+04</pdfrwt>
<pdfrwt beam="2">  1       -1 0.18204413E+00 0.34648907E+04</pdfrwt>
<totfact> 0.21033907E-01</totfact>
</mgrwt>
</event>
<event>
 6    1  0.1568961E-005  0.3152111E+04  0.7818608E-02  0.8201580E-01
         -1   -1    0    0    0  501 -0.00000000000E+00  0.00000000000E+00  0.12447632494E+04  0.12447632494E+04  0.00000000000E+00 0.  1.
          1   -1    0    0  501    0  0.00000000000E+00 -0.00000000000E+00 -0.19955208022E+04  0.19955208022E+04  0.00000000000E+00 0. -1.
         23    2    1    2    0    0  0.13804229859E+04  0.11739723683E+03  0.39398101210E+03  0.14431262641E+04  0.89680795430E+02 0.  0.
         13    1    3    3    0    0  0.63668257579E+03  0.50478802329E+02  0.13537467964E+03  0.65286990717E+03  0.00000000000E+00 0. -1.
        -13    1    3    3    0    0  0.74374041011E+03  0.66918434498E+02  0.25860633246E+03  0.79025635695E+03  0.00000000000E+00 0.  1.
         22    1    1    2    0    0 -0.13804229859E+04 -0.11739723683E+03 -0.11447385649E+04  0.17971577875E+04  0.00000000000E+00 0. -1.
<mgrwt>
<rscale>  0 0.31521110E+04</rscale>
<asrwt>0</asrwt>
<pdfrwt beam="1">  1        1 0.30700320E+00 0.31521110E+04</pdfrwt>
<pdfrwt beam="2">  1       -1 0.19150204E+00 0.31521110E+04</pdfrwt>
<totfact> 0.43479650E-01</totfact>
</mgrwt>
</event>
<event>
 6    1  0.1568961E-005  0.1693888E+04  0.7818608E-02  0.8764858E-01
         -2   -1    0    0    0  501 -0.00000000000E+00  0.00000000000E+00  0.55307984751E+03  0.55307984751E+03  0.00000000000E+00 0.  1.
          2   -1    0    0  501    0  0.00000000000E+00 -0.00000000000E+00 -0.12969446914E+04  0.12969446914E+04  0.00000000000E+00 0. -1.
         23    2    1    2    0    0 -0.42873236542E+03 -0.38446981821E+03  0.30156095887E+03  0.65648208414E+03  0.91658238091E+02 0.  0.
         13    1    3    3    0    0 -0.27477387694E+03 -0.29247640310E+03  0.23583722808E+03  0.46547000760E+03  0.00000000000E+00 0. -1.
        -13    1    3    3    0    0 -0.15395848847E+03 -0.91993415105E+02  0.65723730787E+02  0.19101207654E+03  0.00000000000E+00 0.  1.
         22    1    1    2    0    0  0.42873236542E+03  0.38446981821E+03 -0.10454258028E+04  0.11935424548E+04  0.00000000000E+00 0. -1.
<mgrwt>
<rscale>  0 0.16938878E+04</rscale>
<asrwt>0</asrwt>
<pdfrwt beam="1">  1        2 0.19952995E+00 0.16938878E+04</pdfrwt>
<pdfrwt beam="2">  1       -2 0.85089209E-01 0.16938878E+04</pdfrwt>
<totfact> 0.18997402E+01</totfact>
</mgrwt>
</event>
<event>
 6    1  0.1568961E-005  0.2587014E+04  0.7818608E-02  0.8372626E-01
         -1   -1    0    0    0  501 -0.00000000000E+00  0.00000000000E+00  0.18817032325E+04  0.18817032325E+04  0.00000000000E+00 0.  1.
          1   -1    0    0  501    0  0.00000000000E+00 -0.00000000000E+00 -0.88917304069E+03  0.88917304069E+03  0.00000000000E+00 0. -1.
         23    2    1    2    0    0 -0.30236826825E+03  0.39161823250E+03 -0.78139822878E+03  0.92924290819E+03  0.90098728084E+02 0.  0.
         11    1    3    3    0    0 -0.16741195111E+03  0.22656817450E+03 -0.36134922293E+03  0.45818463525E+03  0.00000000000E+00 0.  1.
        -11    1    3    3    0    0 -0.13495631715E+03  0.16505005800E+03 -0.42004900586E+03  0.47105827294E+03  0.00000000000E+00 0. -1.
         22    1    1    2    0    0  0.30236826825E+03 -0.39161823250E+03  0.17739284206E+04  0.18416333650E+04  0.00000000000E+00 0.  1.
<mgrwt>
<rscale>  0 0.25870136E+04</rscale>
<asrwt>0</asrwt>
<pdfrwt beam="1">  1        1 0.13679585E+00 0.25870136E+04</pdfrwt>
<pdfrwt beam="2">  1       -1 0.28949280E+00 0.25870136E+04</pdfrwt>
<totfact> 0.63269397E-01</totfact>
</mgrwt>
</event>
<event>
 6    1  0.1568961E-005  0.1757549E+04  0.7818608E-02  0.8729206E-01
          2   -1    0    0  501    0  0.00000000000E+00  0.00000000000E+00  0.57590646632E+03  0.57590646632E+03  0.00000000000E+00 0. -1.
         -2   -1    0    0    0  501 -0.00000000000E+00 -0.00000000000E+00 -0.13409208898E+04  0.13409208898E+04  0.00000000000E+00 0.  1.
         23    2    1    2    0    0  0.77712333266E+03 -0.24003921069E+03 -0.73966033257E+03  0.11030814949E+04  0.90287761883E+02 0.  0.
         11    1    3    3    0    0  0.41208383617E+03 -0.13059641428E+03 -0.45340585454E+03  0.62645461159E+03  0.00000000000E+00 0.  1.
        -11    1    3    3    0    0  0.36503949649E+03 -0.10944279640E+03 -0.28625447803E+03  0.47662688329E+03  0.00000000000E+00 0. -1.
         22    1    1    2    0    0 -0.77712333266E+03  0.24003921069E+03 -0.25354090962E+02  0.81374586128E+03  0.00000000000E+00 0. -1.
<mgrwt>
<rscale>  0 0.17575494E+04</rscale>
<asrwt>0</asrwt>
<pdfrwt beam="1">  1        2 0.88600996E-01 0.17575494E+04</pdfrwt>
<pdfrwt beam="2">  1       -2 0.20629552E+00 0.17575494E+04</pdfrwt>
<totfact> 0.59673860E+00</totfact>
</mgrwt>
</event>
<event>
 6    1  0.1568961E-005  0.1796346E+04  0.7818608E-02  0.8708245E-01
          1   -1    0    0  501    0  0.00000000000E+00  0.00000000000E+00  0.16694997412E+04  0.16694997412E+04  0.00000000000E+00 0. -1.
         -1   -1    0    0    0  501 -0.00000000000E+00 -0.00000000000E+00 -0.48320745928E+03  0.48320745928E+03  0.00000000000E+00 0.  1.
         23    2    1    2    0    0  0.75879794060E+03  0.35628063835E+03  0.97315417834E+03  0.12877574568E+04  0.92628314858E+02 0.  0.
         13    1    3    3    0    0  0.54944858525E+03  0.21315655999E+03  0.69917651963E+03  0.91442729208E+03  0.00000000000E+00 0.  1.
        -13    1    3    3    0    0  0.20934935535E+03  0.14312407836E+03  0.27397765871E+03  0.37333016469E+03  0.00000000000E+00 0. -1.
         22    1    1    2    0    0 -0.75879794060E+03 -0.35628063835E+03  0.21313810353E+03  0.86494974368E+03  0.00000000000E+00 0.  1.
<mgrwt>
<rscale>  0 0.17963460E+04</rscale>
<asrwt>0</asrwt>
<pdfrwt beam="1">  1        1 0.25684611E+00 0.17963460E+04</pdfrwt>
<pdfrwt beam="2">  1       -1 0.74339610E-01 0.17963460E+04</pdfrwt>
<totfact> 0.85955901E+00</totfact>
</mgrwt>
</event>
<event>
 6    1  0.1568961E-005  0.3302132E+04  0.7818608E-02  0.8162353E-01
         -1   -1    0    0    0  501 -0.00000000000E+00  0.00000000000E+00  0.10035000960E+04  0.10035000960E+04  0.00000000000E+00 0.  1.
          1   -1    0    0  501    0  0.00000000000E+00 -0.00000000000E+00 -0.27165102687E+04  0.27165102687E+04  0.00000000000E+00 0. -1.
         23    2    1    2    0    0  0.56869535908E+03  0.11532889248E+03 -0.25969507084E+04  0.26626239473E+04  0.93263808793E+02 0.  0.
         11    1    3    3    0    0  0.39295055984E+03  0.79945267908E+02 -0.15864970361E+04  0.16363906116E+04  0.00000000000E+00 0. -1.
        -11    1    3    3    0    0  0.17574479924E+03  0.35383624574E+02 -0.10104536724E+04  0.10262333357E+04  0.00000000000E+00 0.  1.
         22    1    1    2    0    0 -0.56869535908E+03 -0.11532889248E+03  0.88394053571E+03  0.10573864173E+04  0.00000000000E+00 0.  1.
<mgrwt>
<rscale>  0 0.33021316E+04</rscale>
<asrwt>0</asrwt>
<pdfrwt beam="1">  1        1 0.41792465E+00 0.33021316E+04</pdfrwt>
<pdfrwt beam="2">  1       -1 0.15438463E+00 0.33021316E+04</pdfrwt>
<totfact> 0.25553254E-01</totfact>
</mgrwt>
</event>
<event>
 6    1  0.1568961E-005  0.2983003E+04  0.7818608E-02  0.8248601E-01
          1   -1    0    0  501    0  0.00000000000E+00  0.00000000000E+00  0.28581003936E+04  0.28581003936E+04  0.00000000000E+00 0. -1.
         -1   -1    0    0    0  501 -0.00000000000E+00 -0.00000000000E+00 -0.77834116092E+03  0.77834116092E+03  0.00000000000E+00 0.  1.
         23    2    1    2    0    0 -0.11954496601E+04 -0.85007738403E+03  0.13614183958E+04  0.20031182532E+04  0.85388752912E+02 0.  0.
         13    1    3    3    0    0 -0.28693100850E+03 -0.16183871371E+03  0.31784484295E+03  0.45776251166E+03  0.00000000000E+00 0. -1.
        -13    1    3    3    0    0 -0.90851865164E+03 -0.68823867033E+03  0.10435735528E+04  0.15453557415E+04  0.00000000000E+00 0.  1.
         22    1    1    2    0    0  0.11954496601E+04  0.85007738403E+03  0.71834083691E+03  0.16333233013E+04  0.00000000000E+00 0. -1.
<mgrwt>
<rscale>  0 0.29830033E+04</rscale>
<asrwt>0</asrwt>
<pdfrwt beam="1">  1        1 0.43970775E+00 0.29830033E+04</pdfrwt>
<pdfrwt beam="2">  1       -1 0.11974480E+00 0.29830033E+04</pdfrwt>
<totfact> 0.40140377E-01</totfact>
</mgrwt>
</event>
<event>
 6    1  0.1568961E-005  0.3212025E+03  0.7818608E-02  0.1075097E+00
         -2   -1    0    0    0  501 -0.00000000000E+00  0.00000000000E+00  0.53568348972E+02  0.53568348972E+02  0.00000000000E+00 0.  1.
          2   -1    0    0  501    0  0.00000000000E+00 -0.00000000000E+00 -0.48149269294E+03  0.48149269294E+03  0.00000000000E+00 0. -1.
         23    2    1    2    0    0 -0.10835796349E+03 -0.55297059961E+02 -0.88398153059E+02  0.17439880740E+03  0.88326085980E+02 0.  0.
         11    1    3    3    0    0 -0.15252423248E+02  0.19137057720E+02  0.23504354387E+01  0.24584302713E+02  0.00000000000E+00 0. -1.
        -11    1    3    3    0    0 -0.93105540243E+02 -0.74434117682E+02 -0.90748588497E+02  0.14981450468E+03  0.00000000000E+00 0.  1.
         22    1    1    2    0    0  0.10835796349E+03  0.55297059961E+02 -0.33952619091E+03  0.36066223451E+03  0.00000000000E+00 0. -1.
<mgrwt>
<rscale>  0 0.32120254E+03</rscale>
<asrwt>0</asrwt>
<pdfrwt beam="1">  1        2 0.74075799E-01 0.32120254E+03</pdfrwt>
<pdfrwt beam="2">  1       -2 0.82412845E-02 0.32120254E+03</pdfrwt>
<totfact> 0.58675227E+03</totfact>
</mgrwt>
</event>
<event>
 6    1  0.1568961E-005  0.3514714E+04  0.7818608E-02  0.8110312E-01
         -1   -1    0    0    0  501 -0.00000000000E+00  0.00000000000E+00  0.22513463515E+04  0.22513463515E+04  0.00000000000E+00 0.  1.
          1   -1    0    0  501    0  0.00000000000E+00 -0.00000000000E+00 -0.13717588045E+04  0.13717588045E+04  0.00000000000E+00 0. -1.
         23    2    1    2    0    0 -0.28855973436E+03 -0.18697658512E+03  0.22153552617E+04  0.22437928813E+04  0.92631500310E+02 0.  0.
         11    1    3    3    0    0 -0.26296175478E+03 -0.19689975301E+03  0.20603961385E+04  0.20864205340E+04  0.00000000000E+00 0. -1.
        -11    1    3    3    0    0 -0.25597979581E+02  0.99231678965E+01  0.15495912317E+03  0.15737234723E+03  0.00000000000E+00 0.  1.
         22    1    1    2    0    0  0.28855973436E+03  0.18697658512E+03 -0.13357677147E+04  0.13793122747E+04  0.00000000000E+00 0. -1.
<mgrwt>
<rscale>  0 0.35147143E+04</rscale>
<asrwt>0</asrwt>
<pdfrwt beam="1">  1        1 0.21103982E+00 0.35147143E+04</pdfrwt>
<pdfrwt beam="2">  1       -1 0.34636098E+00 0.35147143E+04</pdfrwt>
<totfact> 0.10759953E-01</totfact>
</mgrwt>
</event>
<event>
 6    1  0.1568961E-005  0.2514149E+04  0.7818608E-02  0.8397962E-01
         -2   -1    0    0    0  501 -0.00000000000E+00  0.00000000000E+00  0.95890290942E+03  0.95890290942E+03  0.00000000000E+00 0.  1.
          2   -1    0    0  501    0  0.00000000000E+00 -0.00000000000E+00 -0.16479629505E+04  0.16479629505E+04  0.00000000000E+00 0. -1.
         23    2    1    2    0    0  0.65524248671E+03 -0.53642535430E+03  0.61720258782E+03  0.10501330849E+04  0.68888202776E+02 0.  0.
         11    1    3    3    0    0  0.39950402984E+03 -0.30792046980E+03  0.32951198827E+03  0.60249202152E+03  0.00000000000E+00 0. -1.
        -11    1    3    3    0    0  0.25573845687E+03 -0.22850488450E+03  0.28769059955E+03  0.44764106339E+03  0.00000000000E+00 0.  1.
         22    1    1    2    0    0 -0.65524248671E+03  0.53642535430E+03 -0.13062626289E+04  0.15567327750E+04  0.00000000000E+00 0. -1.
<mgrwt>
<rscale>  0 0.25141491E+04</rscale>
<asrwt>0</asrwt>
<pdfrwt beam="1">  1        2 0.25353276E+00 0.25141491E+04</pdfrwt>
<pdfrwt beam="2">  1       -2 0.14752353E+00 0.25141491E+04</pdfrwt>
<totfact> 0.29249386E+00</totfact>
</mgrwt>
</event>
<event>
 6    1  0.1568961E-005  0.4451813E+04  0.7818608E-02  0.7919128E-01
          2   -1    0    0  501    0  0.00000000000E+00  0.00000000000E+00  0.20897452709E+04  0.20897452709E+04  0.00000000000E+00 0. -1.
         -2   -1    0    0    0  501 -0.00000000000E+00 -0.00000000000E+00 -0.23709390829E+04  0.23709390829E+04  0.00000000000E+00 0.  1.
         23    2    1    2    0    0  0.41584946712E+03  0.83875375352E+03 -0.21630875487E+04  0.23587893339E+04  0.92199456207E+02 0.  0.
         13    1    3    3    0    0  0.30729241830E+03  0.60675937429E+03 -0.14645631598E+04  0.16147850686E+04  0.00000000000E+00 0. -1.
        -13    1    3    3    0    0  0.10855704882E+03  0.23199437923E+03 -0.69852438894E+03  0.74400426530E+03  0.00000000000E+00 0.  1.
         22    1    1    2    0    0 -0.41584946712E+03 -0.83875375352E+03  0.18818937367E+04  0.21018950199E+04  0.00000000000E+00 0. -1.
<mgrwt>
<rscale>  0 0.44518125E+04</rscale>
<asrwt>0</asrwt>
<pdfrwt beam="1">  1        2 0.32149927E+00 0.44518125E+04</pdfrwt>
<pdfrwt beam="2">  1       -2 0.36475986E+00 0.44518125E+04</pdfrwt>
<totfact> 0.56793491E-02</totfact>
</mgrwt>
</event>
<event>
 6    1  0.1568961E-005  0.2313620E+04  0.7818608E-02  0.8472570E-01
         -2   -1    0    0    0  501 -0.00000000000E+00  0.00000000000E+00  0.83488542570E+03  0.83488542570E+03  0.00000000000E+00 0.  1.
          2   -1    0    0  501    0  0.00000000000E+00 -0.00000000000E+00 -0.16028665219E+04  0.16028665219E+04  0.00000000000E+00 0. -1.
         23    2    1    2    0    0 -0.41468166012E+03  0.33824251440E+03 -0.14631081595E+04  0.15605002664E+04  0.90037310478E+02 0.  0.
         13    1    3    3    0    0 -0.24515760989E+03  0.14200380165E+03 -0.77040160158E+03  0.82084466319E+03  0.00000000000E+00 0. -1.
        -13    1    3    3    0    0 -0.16952405023E+03  0.19623871274E+03 -0.69270655795E+03  0.73965560325E+03  0.00000000000E+00 0.  1.
         22    1    1    2    0    0  0.41468166012E+03 -0.33824251440E+03  0.69512706338E+03  0.87725168112E+03  0.00000000000E+00 0.  1.
<mgrwt>
<rscale>  0 0.23136205E+04</rscale>
<asrwt>0</asrwt>
<pdfrwt beam="1">  1        2 0.24659485E+00 0.23136205E+04</pdfrwt>
<pdfrwt beam="2">  1       -2 0.12844391E+00 0.23136205E+04</pdfrwt>
<totfact> 0.45058842E+00</totfact>
</mgrwt>
</event>
<event>
 6    1  0.2004234E-005  0.4290426E+04  0.7818608E-02  0.7948391E-01
          1   -1    0    0  501    0  0.00000000000E+00  0.00000000000E+00  0.19224784954E+04  0.19224784954E+04  0.00000000000E+00 0. -1.
         -1   -1    0    0    0  501 -0.00000000000E+00 -0.00000000000E+00 -0.23937530752E+04  0.23937530752E+04  0.00000000000E+00 0.  1.
         23    2    1    2    0    0  0.72904102279E+02  0.10596613130E+04 -0.21096485937E+04  0.23636777260E+04  0.90322184325E+02 0.  0.
         13    1    3    3    0    0  0.39710366595E+02  0.70524437791E+03 -0.14928922186E+04  0.16515670504E+04  0.00000000000E+00 0. -1.
        -13    1    3    3    0    0  0.33193735684E+02  0.35441693514E+03 -0.61675637517E+03  0.71211067561E+03  0.00000000000E+00 0.  1.
         22    1    1    2    0    0 -0.72904102279E+02 -0.10596613130E+04  0.16383740140E+04  0.19525538446E+04  0.00000000000E+00 0. -1.
<mgrwt>
<rscale>  0 0.42904260E+04</rscale>
<asrwt>0</asrwt>
<pdfrwt beam="1">  1        1 0.29576592E+00 0.42904260E+04</pdfrwt>
<pdfrwt beam="2">  1       -1 0.36826970E+00 0.42904260E+04</pdfrwt>
<totfact> 0.30164324E-02</totfact>
</mgrwt>
</event>
<event>
 6    1  0.1568961E-005  0.1592673E+04  0.7818608E-02  0.8825062E-01
          2   -1    0    0  501    0  0.00000000000E+00  0.00000000000E+00  0.16600497914E+04  0.16600497914E+04  0.00000000000E+00 0. -1.
         -2   -1    0    0    0  501 -0.00000000000E+00 -0.00000000000E+00 -0.38200769421E+03  0.38200769421E+03  0.00000000000E+00 0.  1.
         23    2    1    2    0    0 -0.66587032905E+03  0.20565562516E+03  0.11285744047E+04  0.13293035853E+04  0.87694376944E+02 0.  0.
         13    1    3    3    0    0 -0.24473150223E+03  0.65946455069E+02  0.49053976613E+03  0.55215188606E+03  0.00000000000E+00 0.  1.
        -13    1    3    3    0    0 -0.42113882682E+03  0.13970917009E+03  0.63803463854E+03  0.77715169925E+03  0.00000000000E+00 0. -1.
         22    1    1    2    0    0  0.66587032905E+03 -0.20565562516E+03  0.14946769249E+03  0.71275390028E+03  0.00000000000E+00 0.  1.
<mgrwt>
<rscale>  0 0.15926730E+04</rscale>
<asrwt>0</asrwt>
<pdfrwt beam="1">  1        2 0.25539227E+00 0.15926730E+04</pdfrwt>
<pdfrwt beam="2">  1       -2 0.58770415E-01 0.15926730E+04</pdfrwt>
<totfact> 0.26795218E+01</totfact>
</mgrwt>
</event>
<event>
 6    1  0.1568961E-005  0.3640760E+04  0.7818608E-02  0.8081218E-01
          2   -1    0    0  501    0  0.00000000000E+00  0.00000000000E+00  0.26617490644E+04  0.26617490644E+04  0.00000000000E+00 0. -1.
         -2   -1    0    0    0  501 -0.00000000000E+00 -0.00000000000E+00 -0.12449646834E+04  0.12449646834E+04  0.00000000000E+00 0.  1.
         23    2    1    2    0    0 -0.15796899943E+04 -0.73755199440E+03  0.12667602904E+04  0.21568821416E+04  0.89752530560E+02 0.  0.
         13    1    3    3    0    0 -0.74548614818E+03 -0.35783214310E+03  0.65518005077E+03  0.10550139045E+04  0.00000000000E+00 0.  1.
        -13    1    3    3    0    0 -0.83420384610E+03 -0.37971985130E+03  0.61158023967E+03  0.11018682371E+04  0.00000000000E+00 0. -1.
         22    1    1    2    0    0  0.15796899943E+04  0.73755199440E+03  0.15002409063E+03  0.17498316063E+04  0.00000000000E+00 0.  1.
<mgrwt>
<rscale>  0 0.36407601E+04</rscale>
<asrwt>0</asrwt>
<pdfrwt beam="1">  1        2 0.40949985E+00 0.36407601E+04</pdfrwt>
<pdfrwt beam="2">  1       -2 0.19153303E+00 0.36407601E+04</pdfrwt>
<totfact> 0.34401766E-01</totfact>
</mgrwt>
</event>
<event>
 6    1  0.1568961E-005  0.3090628E+04  0.7818608E-02  0.8218315E-01
         -1   -1    0    0    0  501 -0.00000000000E+00  0.00000000000E+00  0.17502897171E+04  0.17502897171E+04  0.00000000000E+00 0.  1.
          1   -1    0    0  501    0  0.00000000000E+00 -0.00000000000E+00 -0.13643429707E+04  0.13643429707E+04  0.00000000000E+00 0. -1.
         23    2    1    2    0    0 -0.14629252657E+04 -0.24943028356E+03  0.62231961305E+03  0.16118892196E+04  0.92408636337E+02 0.  0.
         13    1    3    3    0    0 -0.22472620675E+03 -0.48495840400E+01  0.92082706343E+02  0.24290864800E+03  0.00000000000E+00 0.  1.
        -13    1    3    3    0    0 -0.12381990589E+04 -0.24458069952E+03  0.53023690670E+03  0.13689805716E+04  0.00000000000E+00 0. -1.
         22    1    1    2    0    0  0.14629252657E+04  0.24943028356E+03 -0.23637286668E+03  0.15027434683E+04  0.00000000000E+00 0. -1.
<mgrwt>
<rscale>  0 0.30906281E+04</rscale>
<asrwt>0</asrwt>
<pdfrwt beam="1">  1        1 0.20989892E+00 0.30906281E+04</pdfrwt>
<pdfrwt beam="2">  1       -1 0.26927534E+00 0.30906281E+04</pdfrwt>
<totfact> 0.35906558E-01</totfact>
</mgrwt>
</event>
<event>
 6    1  0.1568961E-005  0.1865974E+04  0.7818608E-02  0.8671981E-01
         -1   -1    0    0    0  501 -0.00000000000E+00  0.00000000000E+00  0.44532219514E+03  0.44532219514E+03  0.00000000000E+00 0.  1.
          1   -1    0    0  501    0  0.00000000000E+00 -0.00000000000E+00 -0.19546848369E+04  0.19546848369E+04  0.00000000000E+00 0. -1.
         23    2    1    2    0    0 -0.51054018648E+03 -0.42393873672E+03 -0.15958946093E+04  0.17307812734E+04  0.91372194311E+02 0.  0.
         11    1    3    3    0    0 -0.47338951631E+03 -0.41785256169E+03 -0.15239534300E+04  0.16495855402E+04  0.00000000000E+00 0.  1.
        -11    1    3    3    0    0 -0.37150670167E+02 -0.60861750264E+01 -0.71941179294E+02  0.81195733253E+02  0.00000000000E+00 0. -1.
         22    1    1    2    0    0  0.51054018648E+03  0.42393873672E+03  0.86531967609E+02  0.66922575856E+03  0.00000000000E+00 0.  1.
<mgrwt>
<rscale>  0 0.18659738E+04</rscale>
<asrwt>0</asrwt>
<pdfrwt beam="1">  1        1 0.30072075E+00 0.18659738E+04</pdfrwt>
<pdfrwt beam="2">  1       -1 0.68511107E-01 0.18659738E+04</pdfrwt>
<totfact> 0.64719113E+00</totfact>
</mgrwt>
</event>
<event>
 6    1  0.1568961E-005  0.4362225E+04  0.7818608E-02  0.7935211E-01
         -1   -1    0    0    0  501 -0.00000000000E+00  0.00000000000E+00  0.26371837899E+04  0.26371837899E+04  0.00000000000E+00 0.  1.
          1   -1    0    0  501    0  0.00000000000E+00 -0.00000000000E+00 -0.18039137389E+04  0.18039137389E+04  0.00000000000E+00 0. -1.
         23    2    1    2    0    0 -0.50528097772E+03  0.11555119015E+04  0.22273245933E+04  0.25612292654E+04  0.91672704973E+02 0.  0.
         11    1    3    3    0    0 -0.12836467218E+03  0.20444732816E+03  0.43424227357E+03  0.49683251827E+03  0.00000000000E+00 0. -1.
        -11    1    3    3    0    0 -0.37691630554E+03  0.95106457333E+03  0.17930823197E+04  0.20643967471E+04  0.00000000000E+00 0.  1.
         22    1    1    2    0    0  0.50528097772E+03 -0.11555119015E+04 -0.13940545423E+04  0.18798682634E+04  0.00000000000E+00 0. -1.
<mgrwt>
<rscale>  0 0.43622252E+04</rscale>
<asrwt>0</asrwt>
<pdfrwt beam="1">  1        1 0.27752519E+00 0.43622252E+04</pdfrwt>
<pdfrwt beam="2">  1       -1 0.40572059E+00 0.43622252E+04</pdfrwt>
<totfact> 0.20106834E-02</totfact>
</mgrwt>
</event>
<event>
 6    1  0.1568961E-005  0.4145570E+04  0.7818608E-02  0.7975807E-01
          2   -1    0    0  501    0  0.00000000000E+00  0.00000000000E+00  0.31147830736E+04  0.31147830736E+04  0.00000000000E+00 0.  1.
         -2   -1    0    0    0  501 -0.00000000000E+00 -0.00000000000E+00 -0.13793700519E+04  0.13793700519E+04  0.00000000000E+00 0. -1.
         23    2    1    2    0    0 -0.17498752507E+04  0.13159881168E+03 -0.32572054794E+03  0.17871892853E+04  0.92574433359E+02 0.  0.
         11    1    3    3    0    0 -0.52496524272E+03 -0.34759699391E+00 -0.11234419703E+03  0.53685179100E+03  0.00000000000E+00 0. -1.
        -11    1    3    3    0    0 -0.12249100080E+04  0.13194640868E+03 -0.21337635091E+03  0.12503374943E+04  0.00000000000E+00 0.  1.
         22    1    1    2    0    0  0.17498752507E+04 -0.13159881168E+03  0.20611335696E+04  0.27069638402E+04  0.00000000000E+00 0.  1.
<mgrwt>
<rscale>  0 0.41455704E+04</rscale>
<asrwt>0</asrwt>
<pdfrwt beam="1">  1        2 0.47919739E+00 0.41455704E+04</pdfrwt>
<pdfrwt beam="2">  1       -2 0.21221078E+00 0.41455704E+04</pdfrwt>
<totfact> 0.12711728E-01</totfact>
</mgrwt>
</event>
<event>
 6    1  0.1568961E-005  0.2033217E+04  0.7818608E-02  0.8591246E-01
         -2   -1    0    0    0  501 -0.00000000000E+00  0.00000000000E+00  0.23215856395E+03  0.23215856395E+03  0.00000000000E+00 0.  1.
          2   -1    0    0  501    0  0.00000000000E+00 -0.00000000000E+00 -0.44516677345E+04  0.44516677345E+04  0.00000000000E+00 0. -1.
         23    2    1    2    0    0  0.24806130207E+03  0.76731797826E+03 -0.69560686504E+03  0.10688299294E+04  0.90648872020E+02 0.  0.
         13    1    3    3    0    0  0.55965097165E+01  0.69625806721E+02 -0.88349930839E+02  0.11262674710E+03  0.00000000000E+00 0.  1.
        -13    1    3    3    0    0  0.24246479236E+03  0.69769217154E+03 -0.60725693420E+03  0.95620318233E+03  0.00000000000E+00 0. -1.
         22    1    1    2    0    0 -0.24806130207E+03 -0.76731797826E+03 -0.35239023055E+04  0.36149963690E+04  0.00000000000E+00 0. -1.
<mgrwt>
<rscale>  0 0.20332169E+04</rscale>
<asrwt>0</asrwt>
<pdfrwt beam="1">  1        2 0.68487196E+00 0.20332169E+04</pdfrwt>
<pdfrwt beam="2">  1       -2 0.35716702E-01 0.20332169E+04</pdfrwt>
<totfact> 0.95026528E-01</totfact>
</mgrwt>
</event>
<event>
 6    1  0.1568961E-005  0.1502977E+04  0.7818608E-02  0.8882475E-01
          1   -1    0    0  501    0  0.00000000000E+00  0.00000000000E+00  0.12514210986E+04  0.12514210986E+04  0.00000000000E+00 0. -1.
         -1   -1    0    0    0  501 -0.00000000000E+00 -0.00000000000E+00 -0.45127515284E+03  0.45127515284E+03  0.00000000000E+00 0.  1.
         23    2    1    2    0    0  0.69571629755E+03 -0.18924712782E+03  0.17243501024E+03  0.74673774782E+03  0.89709471067E+02 0.  0.
         11    1    3    3    0    0  0.49738158892E+03 -0.13664343776E+03  0.16444931763E+03  0.54139029558E+03  0.00000000000E+00 0.  1.
        -11    1    3    3    0    0  0.19833470863E+03 -0.52603690063E+02  0.79856926094E+01  0.20534745224E+03  0.00000000000E+00 0. -1.
         22    1    1    2    0    0 -0.69571629755E+03  0.18924712782E+03  0.62771093552E+03  0.95595850361E+03  0.00000000000E+00 0.  1.
<mgrwt>
<rscale>  0 0.15029774E+04</rscale>
<asrwt>0</asrwt>
<pdfrwt beam="1">  1        1 0.19252632E+00 0.15029774E+04</pdfrwt>
<pdfrwt beam="2">  1       -1 0.69426947E-01 0.15029774E+04</pdfrwt>
<totfact> 0.19895730E+01</totfact>
</mgrwt>
</event>
<event>
 6    1  0.1568961E-005  0.3614834E+04  0.7818608E-02  0.8087102E-01
         -2   -1    0    0    0  501 -0.00000000000E+00  0.00000000000E+00  0.67083310796E+03  0.67083310796E+03  0.00000000000E+00 0. -1.
          2   -1    0    0  501    0  0.00000000000E+00 -0.00000000000E+00 -0.48696991050E+04  0.48696991050E+04  0.00000000000E+00 0.  1.
         23    2    1    2    0    0  0.35207129201E+02 -0.13558416220E+04 -0.39291238407E+04  0.41576703700E+04  0.93073648396E+02 0.  0.
         11    1    3    3    0    0  0.19985148424E+02 -0.12330666780E+04 -0.36383596362E+04  0.38416811009E+04  0.00000000000E+00 0.  1.
        -11    1    3    3    0    0  0.15221980776E+02 -0.12277494395E+03 -0.29076420448E+03  0.31598926907E+03  0.00000000000E+00 0. -1.
         22    1    1    2    0    0 -0.35207129201E+02  0.13558416220E+04 -0.26974215635E+03  0.13828618430E+04  0.00000000000E+00 0. -1.
<mgrwt>
<rscale>  0 0.36148335E+04</rscale>
<asrwt>0</asrwt>
<pdfrwt beam="1">  1        2 0.74918445E+00 0.36148335E+04</pdfrwt>
<pdfrwt beam="2">  1       -2 0.10320510E+00 0.36148335E+04</pdfrwt>
<totfact> 0.30619113E-02</totfact>
</mgrwt>
</event>
<event>
 6    1  0.1568961E-005  0.4824522E+04  0.7818608E-02  0.7856161E-01
         -1   -1    0    0    0  501 -0.00000000000E+00  0.00000000000E+00  0.33107954128E+04  0.33107954128E+04  0.00000000000E+00 0.  1.
          1   -1    0    0  501    0  0.00000000000E+00 -0.00000000000E+00 -0.17575849004E+04  0.17575849004E+04  0.00000000000E+00 0. -1.
         23    2    1    2    0    0 -0.47453591841E+03 -0.19765108677E+04 -0.58620943700E+03  0.21172962297E+04  0.86731032377E+02 0.  0.
         13    1    3    3    0    0 -0.43758691667E+03 -0.17593603070E+04 -0.49892136365E+03  0.18803599460E+04  0.00000000000E+00 0. -1.
        -13    1    3    3    0    0 -0.36949001745E+02 -0.21715056069E+03 -0.87288073347E+02  0.23693628361E+03  0.00000000000E+00 0.  1.
         22    1    1    2    0    0  0.47453591841E+03  0.19765108677E+04  0.21394199494E+04  0.29510840835E+04  0.00000000000E+00 0.  1.
<mgrwt>
<rscale>  0 0.48245224E+04</rscale>
<asrwt>0</asrwt>
<pdfrwt beam="1">  1        1 0.27039768E+00 0.48245224E+04</pdfrwt>
<pdfrwt beam="2">  1       -1 0.50935314E+00 0.48245224E+04</pdfrwt>
<totfact> 0.41628157E-03</totfact>
</mgrwt>
</event>
<event>
 6    1  0.1568961E-005  0.3607914E+04  0.7818608E-02  0.8088681E-01
         -1   -1    0    0    0  501 -0.00000000000E+00  0.00000000000E+00  0.12685187445E+04  0.12685187445E+04  0.00000000000E+00 0.  1.
          1   -1    0    0  501    0  0.00000000000E+00 -0.00000000000E+00 -0.25654022740E+04  0.25654022740E+04  0.00000000000E+00 0. -1.
         23    2    1    2    0    0 -0.44863306415E+03 -0.16758887774E+04 -0.12795152189E+03  0.17419657468E+04  0.90544191172E+02 0.  0.
         13    1    3    3    0    0 -0.17669867828E+03 -0.62755210078E+03 -0.91280976022E+02  0.65831320713E+03  0.00000000000E+00 0.  1.
        -13    1    3    3    0    0 -0.27193438587E+03 -0.10483366766E+04 -0.36670545870E+02  0.10836525397E+04  0.00000000000E+00 0. -1.
         22    1    1    2    0    0  0.44863306415E+03  0.16758887774E+04 -0.11689320076E+04  0.20919552717E+04  0.00000000000E+00 0. -1.
<mgrwt>
<rscale>  0 0.36079140E+04</rscale>
<asrwt>0</asrwt>
<pdfrwt beam="1">  1        1 0.39467727E+00 0.36079140E+04</pdfrwt>
<pdfrwt beam="2">  1       -1 0.19515673E+00 0.36079140E+04</pdfrwt>
<totfact> 0.16035701E-01</totfact>
</mgrwt>
</event>
<event>
 6    1  0.1568961E-005  0.3003537E+04  0.7818608E-02  0.8242722E-01
          1   -1    0    0  501    0  0.00000000000E+00  0.00000000000E+00  0.19347949586E+04  0.19347949586E+04  0.00000000000E+00 0. -1.
         -1   -1    0    0    0  501 -0.00000000000E+00 -0.00000000000E+00 -0.11656574958E+04  0.11656574958E+04  0.00000000000E+00 0.  1.
         23    2    1    2    0    0  0.14414653764E+04 -0.11545225782E+03  0.79798733417E+03  0.16540832172E+04  0.89754380194E+02 0.  0.
         13    1    3    3    0    0  0.13550213106E+04 -0.11242169547E+03  0.72491223526E+03  0.15408501350E+04  0.00000000000E+00 0.  1.
        -13    1    3    3    0    0  0.86444065839E+02 -0.30305623512E+01  0.73075098910E+02  0.11323308221E+03  0.00000000000E+00 0. -1.
         22    1    1    2    0    0 -0.14414653764E+04  0.11545225782E+03 -0.28849871393E+02  0.14463692372E+04  0.00000000000E+00 0.  1.
<mgrwt>
<rscale>  0 0.30035367E+04</rscale>
<asrwt>0</asrwt>
<pdfrwt beam="1">  1        1 0.29766076E+00 0.30035367E+04</pdfrwt>
<pdfrwt beam="2">  1       -1 0.17933192E+00 0.30035367E+04</pdfrwt>
<totfact> 0.59075543E-01</totfact>
</mgrwt>
</event>
<event>
 6    1  0.2490069E-005  0.2738565E+04  0.7818608E-02  0.8322599E-01
         -1   -1    0    0    0  501 -0.00000000000E+00  0.00000000000E+00  0.19054572380E+04  0.19054572380E+04  0.00000000000E+00 0.  1.
          1   -1    0    0  501    0  0.00000000000E+00 -0.00000000000E+00 -0.98398179744E+03  0.98398179744E+03  0.00000000000E+00 0. -1.
         23    2    1    2    0    0 -0.44979041973E+03 -0.91424918185E+03 -0.50149761439E+03  0.11392918121E+04  0.91230410048E+02 0.  0.
         11    1    3    3    0    0 -0.26318381900E+03 -0.55851628820E+03 -0.25513590259E+03  0.66805725470E+03  0.00000000000E+00 0.  1.
        -11    1    3    3    0    0 -0.18660660073E+03 -0.35573289365E+03 -0.24636171179E+03  0.47123455742E+03  0.00000000000E+00 0. -1.
         22    1    1    2    0    0  0.44979041973E+03  0.91424918185E+03  0.14229730550E+04  0.17501472233E+04  0.00000000000E+00 0.  1.
<mgrwt>
<rscale>  0 0.27385655E+04</rscale>
<asrwt>0</asrwt>
<pdfrwt beam="1">  1        1 0.15138182E+00 0.27385655E+04</pdfrwt>
<pdfrwt beam="2">  1       -1 0.29314727E+00 0.27385655E+04</pdfrwt>
<totfact> 0.49585167E-01</totfact>
</mgrwt>
</event>
<event>
 6    1  0.1568961E-005  0.3799291E+04  0.7818608E-02  0.8046307E-01
         -2   -1    0    0    0  501 -0.00000000000E+00  0.00000000000E+00  0.96362048324E+03  0.96362048324E+03  0.00000000000E+00 0.  1.
          2   -1    0    0  501    0  0.00000000000E+00 -0.00000000000E+00 -0.37448906465E+04  0.37448906465E+04  0.00000000000E+00 0. -1.
         23    2    1    2    0    0 -0.17395663218E+04 -0.16713712462E+03 -0.23109276051E+04  0.28987465239E+04  0.91209689738E+02 0.  0.
         13    1    3    3    0    0 -0.20531471546E+03 -0.21877728251E+02 -0.22668868776E+03  0.30662767086E+03  0.00000000000E+00 0. -1.
        -13    1    3    3    0    0 -0.15342516063E+04 -0.14525939637E+03 -0.20842389174E+04  0.25921188531E+04  0.00000000000E+00 0.  1.
         22    1    1    2    0    0  0.17395663218E+04  0.16713712462E+03 -0.47034255807E+03  0.18097646058E+04  0.00000000000E+00 0. -1.
<mgrwt>
<rscale>  0 0.37992912E+04</rscale>
<asrwt>0</asrwt>
<pdfrwt beam="1">  1        2 0.57613703E+00 0.37992912E+04</pdfrwt>
<pdfrwt beam="2">  1       -2 0.14824930E+00 0.37992912E+04</pdfrwt>
<totfact> 0.13362402E-01</totfact>
</mgrwt>
</event>
<event>
 6    1  0.1568961E-005  0.1758226E+04  0.7818608E-02  0.8728835E-01
         -2   -1    0    0    0  501 -0.00000000000E+00  0.00000000000E+00  0.34128830770E+03  0.34128830770E+03  0.00000000000E+00 0. -1.
          2   -1    0    0  501    0  0.00000000000E+00 -0.00000000000E+00 -0.22644784160E+04  0.22644784160E+04  0.00000000000E+00 0.  1.
         23    2    1    2    0    0  0.32601754163E+03 -0.41306273787E+03  0.75487318519E+02  0.53897701032E+03  0.88823530297E+02 0.  0.
         13    1    3    3    0    0  0.29221002664E+03 -0.32703817636E+03  0.41614766582E+02  0.44053655611E+03  0.00000000000E+00 0.  1.
        -13    1    3    3    0    0  0.33807514988E+02 -0.86024561500E+02  0.33872551936E+02  0.98440454213E+02  0.00000000000E+00 0. -1.
         22    1    1    2    0    0 -0.32601754163E+03  0.41306273787E+03 -0.19986774269E+04  0.20667897134E+04  0.00000000000E+00 0.  1.
<mgrwt>
<rscale>  0 0.17582264E+04</rscale>
<asrwt>0</asrwt>
<pdfrwt beam="1">  1        2 0.34838129E+00 0.17582264E+04</pdfrwt>
<pdfrwt beam="2">  1       -2 0.52505894E-01 0.17582264E+04</pdfrwt>
<totfact> 0.15404219E+01</totfact>
</mgrwt>
</event>
<event>
 6    1  0.1568961E-005  0.1063993E+04  0.7818608E-02  0.9241016E-01
          4   -1    0    0  501    0  0.00000000000E+00  0.00000000000E+00  0.46304584560E+03  0.46304584560E+03  0.00000000000E+00 0.  1.
         -4   -1    0    0    0  501 -0.00000000000E+00 -0.00000000000E+00 -0.61121394684E+03  0.61121394684E+03  0.00000000000E+00 0. -1.
         23    2    1    2    0    0 -0.31114589391E+03 -0.84545522560E+02  0.34758577507E+03  0.48287868135E+03  0.91630983771E+02 0.  0.
         13    1    3    3    0    0 -0.19511509042E+03 -0.62466536773E+01  0.20330681479E+03  0.28185560156E+03  0.00000000000E+00 0.  1.
        -13    1    3    3    0    0 -0.11603080349E+03 -0.78298868883E+02  0.14427896028E+03  0.20102307978E+03  0.00000000000E+00 0. -1.
         22    1    1    2    0    0  0.31114589391E+03  0.84545522560E+02 -0.49575387632E+03  0.59138111110E+03  0.00000000000E+00 0. -1.
<mgrwt>
<rscale>  0 0.10639926E+04</rscale>
<asrwt>0</asrwt>
<pdfrwt beam="1">  1        4 0.71237822E-01 0.10639926E+04</pdfrwt>
<pdfrwt beam="2">  1       -4 0.94032915E-01 0.10639926E+04</pdfrwt>
<totfact> 0.34054919E+00</totfact>
</mgrwt>
</event>
<event>
 6    1  0.1568961E-005  0.2330740E+04  0.7818608E-02  0.8465898E-01
          1   -1    0    0  501    0  0.00000000000E+00  0.00000000000E+00  0.12982184008E+04  0.12982184008E+04  0.00000000000E+00 0. -1.
         -1   -1    0    0    0  501 -0.00000000000E+00 -0.00000000000E+00 -0.10461163252E+04  0.10461163252E+04  0.00000000000E+00 0.  1.
         23    2    1    2    0    0 -0.87782803827E+03  0.70607274635E+03 -0.16677450570E+03  0.11424285822E+04  0.90601003558E+02 0.  0.
         13    1    3    3    0    0 -0.72846876438E+03  0.55978626193E+03 -0.16468704198E+03  0.93335374940E+03  0.00000000000E+00 0.  1.
        -13    1    3    3    0    0 -0.14935927390E+03  0.14628648442E+03 -0.20874637229E+01  0.20907483284E+03  0.00000000000E+00 0. -1.
         22    1    1    2    0    0  0.87782803827E+03 -0.70607274635E+03  0.41887658132E+03  0.12019061437E+04  0.00000000000E+00 0.  1.
<mgrwt>
<rscale>  0 0.23307402E+04</rscale>
<asrwt>0</asrwt>
<pdfrwt beam="1">  1        1 0.19972591E+00 0.23307402E+04</pdfrwt>
<pdfrwt beam="2">  1       -1 0.16094097E+00 0.23307402E+04</pdfrwt>
<totfact> 0.23513740E+00</totfact>
</mgrwt>
</event>
<event>
 6    1  0.1568961E-005  0.1204824E+04  0.7818608E-02  0.9108645E-01
          2   -1    0    0  501    0  0.00000000000E+00  0.00000000000E+00  0.30898800964E+04  0.30898800964E+04  0.00000000000E+00 0. -1.
         -2   -1    0    0    0  501 -0.00000000000E+00 -0.00000000000E+00 -0.11744791371E+03  0.11744791371E+03  0.00000000000E+00 0.  1.
         23    2    1    2    0    0 -0.37158971183E+03 -0.43410547372E+03  0.19684856834E+04  0.20521505131E+04  0.99294341540E+02 0.  0.
         13    1    3    3    0    0 -0.25797591756E+03 -0.22706486252E+03  0.11435971931E+04  0.11941208338E+04  0.00000000000E+00 0. -1.
        -13    1    3    3    0    0 -0.11361379427E+03 -0.20704061120E+03  0.82488849032E+03  0.85802967920E+03  0.00000000000E+00 0.  1.
         22    1    1    2    0    0  0.37158971183E+03  0.43410547372E+03  0.10039464993E+04  0.11551774971E+04  0.00000000000E+00 0.  1.
<mgrwt>
<rscale>  0 0.12048236E+04</rscale>
<asrwt>0</asrwt>
<pdfrwt beam="1">  1        2 0.47536611E+00 0.12048236E+04</pdfrwt>
<pdfrwt beam="2">  1       -2 0.18068912E-01 0.12048236E+04</pdfrwt>
<totfact> 0.39081607E+01</totfact>
</mgrwt>
</event>
<event>
 6    1  0.1568961E-005  0.2664042E+04  0.7818608E-02  0.8346767E-01
         -1   -1    0    0    0  501 -0.00000000000E+00  0.00000000000E+00  0.12571419893E+04  0.12571419893E+04  0.00000000000E+00 0.  1.
          1   -1    0    0  501    0  0.00000000000E+00 -0.00000000000E+00 -0.14113598171E+04  0.14113598171E+04  0.00000000000E+00 0. -1.
         23    2    1    2    0    0 -0.11817143172E+04 -0.56708198241E+03 -0.30578141212E+03  0.13490313739E+04  0.91392962486E+02 0.  0.
         13    1    3    3    0    0 -0.50111124115E+03 -0.27492119286E+03 -0.16712203268E+03  0.59550307480E+03  0.00000000000E+00 0. -1.
        -13    1    3    3    0    0 -0.68060307601E+03 -0.29216078955E+03 -0.13865937944E+03  0.75352829910E+03  0.00000000000E+00 0.  1.
         22    1    1    2    0    0  0.11817143172E+04  0.56708198241E+03  0.15156358430E+03  0.13194704325E+04  0.00000000000E+00 0.  1.
<mgrwt>
<rscale>  0 0.26640418E+04</rscale>
<asrwt>0</asrwt>
<pdfrwt beam="1">  1        1 0.21713228E+00 0.26640418E+04</pdfrwt>
<pdfrwt beam="2">  1       -1 0.19340646E+00 0.26640418E+04</pdfrwt>
<totfact> 0.11049968E+00</totfact>
</mgrwt>
</event>
<event>
 6    1  0.1568961E-005  0.2792173E+04  0.7818608E-02  0.8305702E-01
         -1   -1    0    0    0  501 -0.00000000000E+00  0.00000000000E+00  0.94877488497E+03  0.94877488497E+03  0.00000000000E+00 0.  1.
          1   -1    0    0  501    0  0.00000000000E+00 -0.00000000000E+00 -0.20542887735E+04  0.20542887735E+04  0.00000000000E+00 0. -1.
         23    2    1    2    0    0 -0.55409188372E+03  0.28861007624E+03 -0.18943681483E+04  0.19967810765E+04  0.90500798184E+02 0.  0.
         11    1    3    3    0    0 -0.22083063554E+03  0.11668584442E+03 -0.90143083816E+03  0.93539259772E+03  0.00000000000E+00 0. -1.
        -11    1    3    3    0    0 -0.33326124818E+03  0.17192423181E+03 -0.99293731010E+03  0.10613884787E+04  0.00000000000E+00 0.  1.
         22    1    1    2    0    0  0.55409188372E+03 -0.28861007624E+03  0.78885425975E+03  0.10062825820E+04  0.00000000000E+00 0.  1.
<mgrwt>
<rscale>  0 0.27921731E+04</rscale>
<asrwt>0</asrwt>
<pdfrwt beam="1">  1        1 0.31604443E+00 0.27921731E+04</pdfrwt>
<pdfrwt beam="2">  1       -1 0.14596537E+00 0.27921731E+04</pdfrwt>
<totfact> 0.89010165E-01</totfact>
</mgrwt>
</event>
<event>
 6    1  0.1568961E-005  0.1550357E+04  0.7818608E-02  0.8851640E-01
         -2   -1    0    0    0  501 -0.00000000000E+00  0.00000000000E+00  0.39263897482E+03  0.39263897482E+03  0.00000000000E+00 0.  1.
          2   -1    0    0  501    0  0.00000000000E+00 -0.00000000000E+00 -0.15304181666E+04  0.15304181666E+04  0.00000000000E+00 0. -1.
         23    2    1    2    0    0 -0.40162600002E+03 -0.57326913129E+03 -0.97652478735E+03  0.12047647750E+04  0.88975063392E+02 0.  0.
         13    1    3    3    0    0 -0.14592604249E+03 -0.28494229442E+03 -0.45208491588E+03  0.55395603814E+03  0.00000000000E+00 0.  1.
        -13    1    3    3    0    0 -0.25569995753E+03 -0.28832683687E+03 -0.52443987148E+03  0.65080873683E+03  0.00000000000E+00 0. -1.
         22    1    1    2    0    0  0.40162600002E+03  0.57326913129E+03 -0.16125440446E+03  0.71829236648E+03  0.00000000000E+00 0.  1.
<mgrwt>
<rscale>  0 0.15503571E+04</rscale>
<asrwt>0</asrwt>
<pdfrwt beam="1">  1        2 0.23544895E+00 0.15503571E+04</pdfrwt>
<pdfrwt beam="2">  1       -2 0.60405997E-01 0.15503571E+04</pdfrwt>
<totfact> 0.29983143E+01</totfact>
</mgrwt>
</event>
<event>
 6    1  0.1568961E-005  0.2138765E+04  0.7818608E-02  0.8544357E-01
         -2   -1    0    0    0  501 -0.00000000000E+00  0.00000000000E+00  0.17743580950E+04  0.17743580950E+04  0.00000000000E+00 0.  1.
          2   -1    0    0  501    0  0.00000000000E+00 -0.00000000000E+00 -0.64450281590E+03  0.64450281590E+03  0.00000000000E+00 0. -1.
         23    2    1    2    0    0 -0.69942628064E+03 -0.69489662345E+03  0.10285047115E+04  0.14277250086E+04  0.92186327996E+02 0.  0.
         11    1    3    3    0    0 -0.43689906474E+03 -0.37616994669E+03  0.62721950268E+03  0.85193246569E+03  0.00000000000E+00 0.  1.
        -11    1    3    3    0    0 -0.26252721591E+03 -0.31872667676E+03  0.40128520887E+03  0.57579254287E+03  0.00000000000E+00 0. -1.
         22    1    1    2    0    0  0.69942628064E+03  0.69489662345E+03  0.10135056754E+03  0.99113590232E+03  0.00000000000E+00 0. -1.
<mgrwt>
<rscale>  0 0.21387649E+04</rscale>
<asrwt>0</asrwt>
<pdfrwt beam="1">  1        2 0.99154280E-01 0.21387649E+04</pdfrwt>
<pdfrwt beam="2">  1       -2 0.27297817E+00 0.21387649E+04</pdfrwt>
<totfact> 0.19403556E+00</totfact>
</mgrwt>
</event>
<event>
 6    1  0.1568961E-005  0.1337829E+04  0.7818608E-02  0.9000093E-01
         -2   -1    0    0    0  501 -0.00000000000E+00  0.00000000000E+00  0.22281119385E+03  0.22281119385E+03  0.00000000000E+00 0.  1.
          2   -1    0    0  501    0  0.00000000000E+00 -0.00000000000E+00 -0.20081883508E+04  0.20081883508E+04  0.00000000000E+00 0. -1.
         23    2    1    2    0    0 -0.83782239099E+02 -0.55346177638E+03 -0.29548930228E+03  0.63942635406E+03  0.90624130400E+02 0.  0.
         11    1    3    3    0    0 -0.90388528898E+02 -0.46180638656E+03 -0.27583751059E+03  0.54545536671E+03  0.00000000000E+00 0. -1.
        -11    1    3    3    0    0  0.66062897990E+01 -0.91655389821E+02 -0.19651791686E+02  0.93970987356E+02  0.00000000000E+00 0.  1.
         22    1    1    2    0    0  0.83782239099E+02  0.55346177638E+03 -0.14898878546E+04  0.15915731906E+04  0.00000000000E+00 0. -1.
<mgrwt>
<rscale>  0 0.13378294E+04</rscale>
<asrwt>0</asrwt>
<pdfrwt beam="1">  1        2 0.30895206E+00 0.13378294E+04</pdfrwt>
<pdfrwt beam="2">  1       -2 0.34278645E-01 0.13378294E+04</pdfrwt>
<totfact> 0.51568836E+01</totfact>
</mgrwt>
</event>
<event>
 6    1  0.1568961E-005  0.2708341E+04  0.7818608E-02  0.8332304E-01
          1   -1    0    0  501    0  0.00000000000E+00  0.00000000000E+00  0.80080385043E+03  0.80080385043E+03  0.00000000000E+00 0. -1.
         -1   -1    0    0    0  501 -0.00000000000E+00 -0.00000000000E+00 -0.22899212878E+04  0.22899212878E+04  0.00000000000E+00 0.  1.
         23    2    1    2    0    0  0.10871363367E+04 -0.32679124058E+03 -0.15848210182E+04  0.19515073782E+04  0.89807894446E+02 0.  0.
         11    1    3    3    0    0  0.77547375363E+03 -0.19894961139E+03 -0.11570861906E+04  0.14070497301E+04  0.00000000000E+00 0. -1.
        -11    1    3    3    0    0  0.31166258308E+03 -0.12784162919E+03 -0.42773482752E+03  0.54445764805E+03  0.00000000000E+00 0.  1.
         22    1    1    2    0    0 -0.10871363367E+04  0.32679124058E+03  0.95703580774E+02  0.11392177601E+04  0.00000000000E+00 0. -1.
<mgrwt>
<rscale>  0 0.27083410E+04</rscale>
<asrwt>0</asrwt>
<pdfrwt beam="1">  1        1 0.12320059E+00 0.27083410E+04</pdfrwt>
<pdfrwt beam="2">  1       -1 0.35229558E+00 0.27083410E+04</pdfrwt>
<totfact> 0.28893020E-01</totfact>
</mgrwt>
</event>
<event>
 6    1  0.1568961E-005  0.1948606E+04  0.7818608E-02  0.8631033E-01
          1   -1    0    0  501    0  0.00000000000E+00  0.00000000000E+00  0.23634401689E+04  0.23634401689E+04  0.00000000000E+00 0. -1.
         -1   -1    0    0    0  501 -0.00000000000E+00 -0.00000000000E+00 -0.40164597037E+03  0.40164597037E+03  0.00000000000E+00 0.  1.
         23    2    1    2    0    0  0.77286596900E+02 -0.41248790608E+03 -0.26136043237E+03  0.50266796314E+03  0.90809222223E+02 0.  0.
         13    1    3    3    0    0 -0.94351909181E+01 -0.84036044675E+02 -0.85035754554E+02  0.11992564023E+03  0.00000000000E+00 0. -1.
        -13    1    3    3    0    0  0.86721787818E+02 -0.32845186140E+03 -0.17632467782E+03  0.38274232291E+03  0.00000000000E+00 0.  1.
         22    1    1    2    0    0 -0.77286596900E+02  0.41248790608E+03  0.22231546309E+04  0.22624181761E+04  0.00000000000E+00 0. -1.
<mgrwt>
<rscale>  0 0.19486059E+04</rscale>
<asrwt>0</asrwt>
<pdfrwt beam="1">  1        1 0.36360617E+00 0.19486059E+04</pdfrwt>
<pdfrwt beam="2">  1       -1 0.61791689E-01 0.19486059E+04</pdfrwt>
<totfact> 0.41683871E+00</totfact>
</mgrwt>
</event>
<event>
 6    1  0.1568961E-005  0.1255178E+04  0.7818608E-02  0.9065884E-01
          4   -1    0    0  501    0  0.00000000000E+00  0.00000000000E+00  0.34111029322E+03  0.34111029322E+03  0.00000000000E+00 0.  1.
         -4   -1    0    0    0  501 -0.00000000000E+00 -0.00000000000E+00 -0.11546649864E+04  0.11546649864E+04  0.00000000000E+00 0. -1.
         23    2    1    2    0    0  0.45390283995E+03  0.35223913337E+03 -0.69547627147E+03  0.90922373983E+03  0.11357979437E+03 0.  0.
         13    1    3    3    0    0  0.13484942795E+03  0.85130561784E+02 -0.12247439230E+03  0.20107599941E+03  0.00000000000E+00 0. -1.
        -13    1    3    3    0    0  0.31905341200E+03  0.26710857159E+03 -0.57300187917E+03  0.70814774042E+03  0.00000000000E+00 0.  1.
         22    1    1    2    0    0 -0.45390283995E+03 -0.35223913337E+03 -0.11807842174E+03  0.58655153983E+03  0.00000000000E+00 0.  1.
<mgrwt>
<rscale>  0 0.12551783E+04</rscale>
<asrwt>0</asrwt>
<pdfrwt beam="1">  1        4 0.52478508E-01 0.12551783E+04</pdfrwt>
<pdfrwt beam="2">  1       -4 0.17764076E+00 0.12551783E+04</pdfrwt>
<totfact> 0.12780972E+00</totfact>
</mgrwt>
</event>
<event>
 6    1  0.1568961E-005  0.1924088E+04  0.7818608E-02  0.8642958E-01
          1   -1    0    0  501    0  0.00000000000E+00  0.00000000000E+00  0.88301420006E+03  0.88301420006E+03  0.00000000000E+00 0. -1.
         -1   -1    0    0    0  501 -0.00000000000E+00 -0.00000000000E+00 -0.10481469819E+04  0.10481469819E+04  0.00000000000E+00 0.  1.
         23    2    1    2    0    0  0.16689579124E+03 -0.17056670405E+03  0.85038464282E+03  0.88798198094E+03  0.91710152448E+02 0.  0.
         13    1    3    3    0    0  0.64238023912E+02 -0.63757195123E+02  0.49080899805E+03  0.49908413741E+03  0.00000000000E+00 0.  1.
        -13    1    3    3    0    0  0.10265776733E+03 -0.10680950893E+03  0.35957564477E+03  0.38889784353E+03  0.00000000000E+00 0. -1.
         22    1    1    2    0    0 -0.16689579124E+03  0.17056670405E+03 -0.10155174246E+04  0.10431792010E+04  0.00000000000E+00 0.  1.
<mgrwt>
<rscale>  0 0.19240880E+04</rscale>
<asrwt>0</asrwt>
<pdfrwt beam="1">  1        1 0.13584834E+00 0.19240880E+04</pdfrwt>
<pdfrwt beam="2">  1       -1 0.16125338E+00 0.19240880E+04</pdfrwt>
<totfact> 0.50174224E+00</totfact>
</mgrwt>
</event>
<event>
 6    1  0.1568961E-005  0.3321257E+04  0.7818608E-02  0.8157508E-01
         -2   -1    0    0    0  501 -0.00000000000E+00  0.00000000000E+00  0.24461176829E+04  0.24461176829E+04  0.00000000000E+00 0.  1.
          2   -1    0    0  501    0  0.00000000000E+00 -0.00000000000E+00 -0.11273729779E+04  0.11273729779E+04  0.00000000000E+00 0. -1.
         23    2    1    2    0    0 -0.50183693561E+03 -0.14417376583E+04 -0.39770690275E+02  0.15299613939E+04  0.93554121413E+02 0.  0.
         11    1    3    3    0    0 -0.11080404962E+03 -0.25370732611E+03 -0.36376747389E+02  0.27922788629E+03  0.00000000000E+00 0.  1.
        -11    1    3    3    0    0 -0.39103288599E+03 -0.11880303322E+04 -0.33939428866E+01  0.12507335076E+04  0.00000000000E+00 0. -1.
         22    1    1    2    0    0  0.50183693561E+03  0.14417376583E+04  0.13585153953E+04  0.20435292669E+04  0.00000000000E+00 0.  1.
<mgrwt>
<rscale>  0 0.33212570E+04</rscale>
<asrwt>0</asrwt>
<pdfrwt beam="1">  1        2 0.17344200E+00 0.33212570E+04</pdfrwt>
<pdfrwt beam="2">  1       -2 0.37632580E+00 0.33212570E+04</pdfrwt>
<totfact> 0.18463556E-01</totfact>
</mgrwt>
</event>
<event>
 6    1  0.1568961E-005  0.3288182E+04  0.7818608E-02  0.8165909E-01
         -1   -1    0    0    0  501 -0.00000000000E+00  0.00000000000E+00  0.14792177664E+04  0.14792177664E+04  0.00000000000E+00 0.  1.
          1   -1    0    0  501    0  0.00000000000E+00 -0.00000000000E+00 -0.18273411967E+04  0.18273411967E+04  0.00000000000E+00 0. -1.
         23    2    1    2    0    0  0.11098830228E+04  0.11892715977E+04  0.57183863628E+02  0.16301099600E+04  0.88211281115E+02 0.  0.
         11    1    3    3    0    0  0.65693195267E+03  0.64508977229E+03  0.14967940882E+02  0.92082812947E+03  0.00000000000E+00 0.  1.
        -11    1    3    3    0    0  0.45295107016E+03  0.54418182537E+03  0.42215922747E+02  0.70928183055E+03  0.00000000000E+00 0. -1.
         22    1    1    2    0    0 -0.11098830228E+04 -0.11892715977E+04 -0.40530729389E+03  0.16764490031E+04  0.00000000000E+00 0. -1.
<mgrwt>
<rscale>  0 0.32881822E+04</rscale>
<asrwt>0</asrwt>
<pdfrwt beam="1">  1        1 0.28112941E+00 0.32881822E+04</pdfrwt>
<pdfrwt beam="2">  1       -1 0.22757197E+00 0.32881822E+04</pdfrwt>
<totfact> 0.31756863E-01</totfact>
</mgrwt>
</event>
<event>
 6    1  0.1568961E-005  0.2007220E+04  0.7818608E-02  0.8603253E-01
         -2   -1    0    0    0  501 -0.00000000000E+00  0.00000000000E+00  0.12373616643E+04  0.12373616643E+04  0.00000000000E+00 0.  1.
          2   -1    0    0  501    0  0.00000000000E+00 -0.00000000000E+00 -0.81401635508E+03  0.81401635508E+03  0.00000000000E+00 0. -1.
         23    2    1    2    0    0  0.23861515651E+03 -0.88667943006E+03 -0.19681149428E+03  0.94334730431E+03  0.89620129794E+02 0.  0.
         13    1    3    3    0    0  0.10427499921E+03 -0.49930264846E+03 -0.14357057874E+03  0.52989519841E+03  0.00000000000E+00 0.  1.
        -13    1    3    3    0    0  0.13434015730E+03 -0.38737678159E+03 -0.53240915542E+02  0.41345210590E+03  0.00000000000E+00 0. -1.
         22    1    1    2    0    0 -0.23861515651E+03  0.88667943006E+03  0.62015680348E+03  0.11080307151E+04  0.00000000000E+00 0.  1.
<mgrwt>
<rscale>  0 0.20072196E+04</rscale>
<asrwt>0</asrwt>
<pdfrwt beam="1">  1        2 0.12523328E+00 0.20072196E+04</pdfrwt>
<pdfrwt beam="2">  1       -2 0.19036333E+00 0.20072196E+04</pdfrwt>
<totfact> 0.48141082E+00</totfact>
</mgrwt>
</event>
<event>
 6    1  0.1568961E-005  0.3321410E+04  0.7818608E-02  0.8157469E-01
         -1   -1    0    0    0  501 -0.00000000000E+00  0.00000000000E+00  0.15244492243E+04  0.15244492243E+04  0.00000000000E+00 0.  1.
          1   -1    0    0  501    0  0.00000000000E+00 -0.00000000000E+00 -0.18091392558E+04  0.18091392558E+04  0.00000000000E+00 0. -1.
         23    2    1    2    0    0 -0.13629098696E+04  0.78884838361E+03  0.38307844806E+03  0.16231149120E+04  0.89150632981E+02 0.  0.
         11    1    3    3    0    0 -0.45363839139E+03  0.25031686312E+03  0.84513003193E+02  0.52496549392E+03  0.00000000000E+00 0. -1.
        -11    1    3    3    0    0 -0.90927147822E+03  0.53853152050E+03  0.29856544486E+03  0.10981494181E+04  0.00000000000E+00 0.  1.
         22    1    1    2    0    0  0.13629098696E+04 -0.78884838361E+03 -0.66776847957E+03  0.17104735681E+04  0.00000000000E+00 0.  1.
<mgrwt>
<rscale>  0 0.33214099E+04</rscale>
<asrwt>0</asrwt>
<pdfrwt beam="1">  1        1 0.27832912E+00 0.33214099E+04</pdfrwt>
<pdfrwt beam="2">  1       -1 0.23453065E+00 0.33214099E+04</pdfrwt>
<totfact> 0.29299994E-01</totfact>
</mgrwt>
</event>
<event>
 6    1  0.1568961E-005  0.3475027E+04  0.7818608E-02  0.8119734E-01
          2   -1    0    0  501    0  0.00000000000E+00  0.00000000000E+00  0.45685648320E+04  0.45685648320E+04  0.00000000000E+00 0. -1.
         -2   -1    0    0    0  501 -0.00000000000E+00 -0.00000000000E+00 -0.66080993447E+03  0.66080993447E+03  0.00000000000E+00 0.  1.
         23    2    1    2    0    0 -0.65202859241E+03 -0.98025036451E+03  0.38757559131E+04  0.40516413512E+04  0.91003726591E+02 0.  0.
         11    1    3    3    0    0 -0.38089306594E+03 -0.50778088387E+03  0.19903337815E+04  0.20891025622E+04  0.00000000000E+00 0.  1.
        -11    1    3    3    0    0 -0.27113552647E+03 -0.47246948064E+03  0.18854221316E+04  0.19625387890E+04  0.00000000000E+00 0. -1.
         22    1    1    2    0    0  0.65202859241E+03  0.98025036451E+03  0.31998984407E+02  0.11777334153E+04  0.00000000000E+00 0.  1.
<mgrwt>
<rscale>  0 0.34750269E+04</rscale>
<asrwt>0</asrwt>
<pdfrwt beam="1">  1        2 0.70285611E+00 0.34750269E+04</pdfrwt>
<pdfrwt beam="2">  1       -2 0.10166307E+00 0.34750269E+04</pdfrwt>
<totfact> 0.68447097E-02</totfact>
</mgrwt>
</event>
<event>
 6    1  0.1568961E-005  0.2336510E+04  0.7818608E-02  0.8463663E-01
         -2   -1    0    0    0  501 -0.00000000000E+00  0.00000000000E+00  0.53544176627E+03  0.53544176627E+03  0.00000000000E+00 0.  1.
          2   -1    0    0  501    0  0.00000000000E+00 -0.00000000000E+00 -0.25489593302E+04  0.25489593302E+04  0.00000000000E+00 0. -1.
         23    2    1    2    0    0  0.10568128353E+04 -0.48247690648E+03 -0.86965290010E+03  0.14540441714E+04  0.91164420977E+02 0.  0.
         11    1    3    3    0    0  0.91287412527E+03 -0.40520422442E+03 -0.78310267816E+03  0.12691648579E+04  0.00000000000E+00 0. -1.
        -11    1    3    3    0    0  0.14393870999E+03 -0.77272682064E+02 -0.86550221932E+02  0.18487931345E+03  0.00000000000E+00 0.  1.
         22    1    1    2    0    0 -0.10568128353E+04  0.48247690648E+03 -0.11438646638E+04  0.16303569251E+04  0.00000000000E+00 0. -1.
<mgrwt>
<rscale>  0 0.23365096E+04</rscale>
<asrwt>0</asrwt>
<pdfrwt beam="1">  1        2 0.39214758E+00 0.23365096E+04</pdfrwt>
<pdfrwt beam="2">  1       -2 0.82375658E-01 0.23365096E+04</pdfrwt>
<totfact> 0.38128159E+00</totfact>
</mgrwt>
</event>
<event>
 6    1  0.1568961E-005  0.1889956E+04  0.7818608E-02  0.8659872E-01
         -1   -1    0    0    0  501 -0.00000000000E+00  0.00000000000E+00  0.54477706724E+03  0.54477706724E+03  0.00000000000E+00 0.  1.
          1   -1    0    0  501    0  0.00000000000E+00 -0.00000000000E+00 -0.16391724006E+04  0.16391724006E+04  0.00000000000E+00 0. -1.
         23    2    1    2    0    0  0.24450104480E+03  0.82377473140E+03 -0.10034382702E+03  0.86997687822E+03  0.91680510547E+02 0.  0.
         11    1    3    3    0    0  0.55832792241E+02  0.11488163209E+03  0.10144228819E+02  0.12813272595E+03  0.00000000000E+00 0. -1.
        -11    1    3    3    0    0  0.18866825256E+03  0.70889309931E+03 -0.11048805584E+03  0.74184415227E+03  0.00000000000E+00 0.  1.
         22    1    1    2    0    0 -0.24450104480E+03 -0.82377473140E+03 -0.99405150630E+03  0.13139725896E+04  0.00000000000E+00 0. -1.
<mgrwt>
<rscale>  0 0.18899561E+04</rscale>
<asrwt>0</asrwt>
<pdfrwt beam="1">  1        1 0.25218037E+00 0.18899561E+04</pdfrwt>
<pdfrwt beam="2">  1       -1 0.83811856E-01 0.18899561E+04</pdfrwt>
<totfact> 0.69322428E+00</totfact>
</mgrwt>
</event>
<event>
 6    1  0.1568961E-005  0.3431554E+04  0.7818608E-02  0.8130205E-01
          1   -1    0    0  501    0  0.00000000000E+00  0.00000000000E+00  0.25640300163E+04  0.25640300163E+04  0.00000000000E+00 0. -1.
         -1   -1    0    0    0  501 -0.00000000000E+00 -0.00000000000E+00 -0.11481501191E+04  0.11481501191E+04  0.00000000000E+00 0.  1.
         23    2    1    2    0    0 -0.13664430180E+04 -0.34122395866E+03 -0.34932699819E+03  0.14539605503E+04  0.91496549221E+02 0.  0.
         13    1    3    3    0    0 -0.62306452248E+03 -0.14506695483E+03 -0.11298203338E+03  0.64962971024E+03  0.00000000000E+00 0. -1.
        -13    1    3    3    0    0 -0.74337849556E+03 -0.19615700383E+03 -0.23634496481E+03  0.80433084002E+03  0.00000000000E+00 0.  1.
         22    1    1    2    0    0  0.13664430180E+04  0.34122395866E+03  0.17652068953E+04  0.22582195851E+04  0.00000000000E+00 0. -1.
<mgrwt>
<rscale>  0 0.34315544E+04</rscale>
<asrwt>0</asrwt>
<pdfrwt beam="1">  1        1 0.39446616E+00 0.34315544E+04</pdfrwt>
<pdfrwt beam="2">  1       -1 0.17663848E+00 0.34315544E+04</pdfrwt>
<totfact> 0.22071456E-01</totfact>
</mgrwt>
</event>
<event>
 6    1  0.1568961E-005  0.6679287E+03  0.7818608E-02  0.9773707E-01
         -1   -1    0    0    0  501 -0.00000000000E+00  0.00000000000E+00  0.14252214504E+03  0.14252214504E+03  0.00000000000E+00 0.  1.
          1   -1    0    0  501    0  0.00000000000E+00 -0.00000000000E+00 -0.78256041595E+03  0.78256041595E+03  0.00000000000E+00 0. -1.
         23    2    1    2    0    0  0.13727084760E+03  0.28564397099E+03 -0.44150306526E+03  0.55111465911E+03  0.91469377883E+02 0.  0.
         13    1    3    3    0    0  0.24059058427E+02  0.18592541279E+01 -0.37383434498E+02  0.44495126623E+02  0.00000000000E+00 0.  1.
        -13    1    3    3    0    0  0.11321178917E+03  0.28378471686E+03 -0.40411963076E+03  0.50661953248E+03  0.00000000000E+00 0. -1.
         22    1    1    2    0    0 -0.13727084760E+03 -0.28564397099E+03 -0.19853520565E+03  0.37396790189E+03  0.00000000000E+00 0.  1.
<mgrwt>
<rscale>  0 0.66792871E+03</rscale>
<asrwt>0</asrwt>
<pdfrwt beam="1">  1        1 0.12039391E+00 0.66792871E+03</pdfrwt>
<pdfrwt beam="2">  1       -1 0.21926484E-01 0.66792871E+03</pdfrwt>
<totfact> 0.40570999E+02</totfact>
</mgrwt>
</event>
<event>
 6    1  0.1568961E-005  0.4038524E+04  0.7818608E-02  0.7996820E-01
          1   -1    0    0  501    0  0.00000000000E+00  0.00000000000E+00  0.26145404087E+04  0.26145404087E+04  0.00000000000E+00 0. -1.
         -1   -1    0    0    0  501 -0.00000000000E+00 -0.00000000000E+00 -0.15595167727E+04  0.15595167727E+04  0.00000000000E+00 0.  1.
         23    2    1    2    0    0 -0.59345079684E+03  0.10160198016E+04 -0.11670033432E+04  0.16597214875E+04  0.91096255780E+02 0.  0.
         13    1    3    3    0    0 -0.14364268907E+03  0.17904574292E+03 -0.20958169449E+03  0.31082967498E+03  0.00000000000E+00 0. -1.
        -13    1    3    3    0    0 -0.44980810777E+03  0.83697405865E+03 -0.95742164867E+03  0.13488918126E+04  0.00000000000E+00 0.  1.
         22    1    1    2    0    0  0.59345079684E+03 -0.10160198016E+04  0.22220269792E+04  0.25143356939E+04  0.00000000000E+00 0. -1.
<mgrwt>
<rscale>  0 0.40385243E+04</rscale>
<asrwt>0</asrwt>
<pdfrwt beam="1">  1        1 0.40223699E+00 0.40385243E+04</pdfrwt>
<pdfrwt beam="2">  1       -1 0.23992566E+00 0.40385243E+04</pdfrwt>
<totfact> 0.71369441E-02</totfact>
</mgrwt>
</event>
<event>
 6    1  0.1568961E-005  0.2223497E+04  0.7818608E-02  0.8508712E-01
          1   -1    0    0  501    0  0.00000000000E+00  0.00000000000E+00  0.13890123873E+04  0.13890123873E+04  0.00000000000E+00 0. -1.
         -1   -1    0    0    0  501 -0.00000000000E+00 -0.00000000000E+00 -0.88982953558E+03  0.88982953558E+03  0.00000000000E+00 0.  1.
         23    2    1    2    0    0  0.86577740632E+03 -0.56998269453E+03  0.65658651261E+03  0.12304017950E+04  0.91279456664E+02 0.  0.
         11    1    3    3    0    0  0.19317751936E+03 -0.17389601408E+03  0.17103662891E+03  0.31114451003E+03  0.00000000000E+00 0. -1.
        -11    1    3    3    0    0  0.67259988696E+03 -0.39608668045E+03  0.48554988370E+03  0.91925728495E+03  0.00000000000E+00 0.  1.
         22    1    1    2    0    0 -0.86577740632E+03  0.56998269453E+03 -0.15740366088E+03  0.10484401279E+04  0.00000000000E+00 0.  1.
<mgrwt>
<rscale>  0 0.22234966E+04</rscale>
<asrwt>0</asrwt>
<pdfrwt beam="1">  1        1 0.21369421E+00 0.22234966E+04</pdfrwt>
<pdfrwt beam="2">  1       -1 0.13689685E+00 0.22234966E+04</pdfrwt>
<totfact> 0.31623246E+00</totfact>
</mgrwt>
</event>
<event>
 6    1  0.1568961E-005  0.5795470E+04  0.7818608E-02  0.7716291E-01
         -2   -1    0    0    0  501 -0.00000000000E+00  0.00000000000E+00  0.36379278692E+04  0.36379278692E+04  0.00000000000E+00 0.  1.
          2   -1    0    0  501    0  0.00000000000E+00 -0.00000000000E+00 -0.23081457830E+04  0.23081457830E+04  0.00000000000E+00 0. -1.
         23    2    1    2    0    0 -0.14477944061E+04 -0.23315539461E+04  0.16169582816E+04  0.31865949672E+04  0.87068677829E+02 0.  0.
         13    1    3    3    0    0 -0.80032980789E+03 -0.12938813261E+04  0.94639325495E+03  0.17917357172E+04  0.00000000000E+00 0.  1.
        -13    1    3    3    0    0 -0.64746459821E+03 -0.10376726200E+04  0.67056502666E+03  0.13948592500E+04  0.00000000000E+00 0. -1.
         22    1    1    2    0    0  0.14477944061E+04  0.23315539461E+04 -0.28717619540E+03  0.27594786850E+04  0.00000000000E+00 0. -1.
<mgrwt>
<rscale>  0 0.57954699E+04</rscale>
<asrwt>0</asrwt>
<pdfrwt beam="1">  1        2 0.35509935E+00 0.57954699E+04</pdfrwt>
<pdfrwt beam="2">  1       -2 0.55968121E+00 0.57954699E+04</pdfrwt>
<totfact> 0.23825816E-03</totfact>
</mgrwt>
</event>
<event>
 6    1  0.1568961E-005  0.3087761E+04  0.7818608E-02  0.8219105E-01
          2   -1    0    0  501    0  0.00000000000E+00  0.00000000000E+00  0.29211593728E+04  0.29211593728E+04  0.00000000000E+00 0.  1.
         -2   -1    0    0    0  501 -0.00000000000E+00 -0.00000000000E+00 -0.81596594291E+03  0.81596594291E+03  0.00000000000E+00 0. -1.
         23    2    1    2    0    0 -0.27147255365E+03  0.42526473282E+03 -0.71062136287E+03  0.87646798086E+03  0.93091136713E+02 0.  0.
         13    1    3    3    0    0 -0.11271070703E+03  0.14337736376E+03 -0.18884100387E+03  0.26252942056E+03  0.00000000000E+00 0.  1.
        -13    1    3    3    0    0 -0.15876184661E+03  0.28188736906E+03 -0.52178035900E+03  0.61393856029E+03  0.00000000000E+00 0. -1.
         22    1    1    2    0    0  0.27147255365E+03 -0.42526473282E+03  0.28158147928E+04  0.28606573349E+04  0.00000000000E+00 0.  1.
<mgrwt>
<rscale>  0 0.30877607E+04</rscale>
<asrwt>0</asrwt>
<pdfrwt beam="1">  1        2 0.44940913E+00 0.30877607E+04</pdfrwt>
<pdfrwt beam="2">  1       -2 0.12553322E+00 0.30877607E+04</pdfrwt>
<totfact> 0.78552469E-01</totfact>
</mgrwt>
</event>
<event>
 6    1  0.1700524E-005  0.3521004E+04  0.7818608E-02  0.8108830E-01
         -2   -1    0    0    0  501 -0.00000000000E+00  0.00000000000E+00  0.18023122498E+04  0.18023122498E+04  0.00000000000E+00 0.  1.
          2   -1    0    0  501    0  0.00000000000E+00 -0.00000000000E+00 -0.17196614948E+04  0.17196614948E+04  0.00000000000E+00 0. -1.
         23    2    1    2    0    0 -0.95259240435E+03 -0.12466508446E+04  0.83761961574E+03  0.17808394598E+04  0.90619776012E+02 0.  0.
         13    1    3    3    0    0 -0.48213918682E+03 -0.59753323671E+03  0.45568021225E+03  0.89283179843E+03  0.00000000000E+00 0.  1.
        -13    1    3    3    0    0 -0.47045321752E+03 -0.64911760787E+03  0.38193940349E+03  0.88800766137E+03  0.00000000000E+00 0. -1.
         22    1    1    2    0    0  0.95259240435E+03  0.12466508446E+04 -0.75496886066E+03  0.17411342848E+04  0.00000000000E+00 0. -1.
<mgrwt>
<rscale>  0 0.35210038E+04</rscale>
<asrwt>0</asrwt>
<pdfrwt beam="1">  1        2 0.26456331E+00 0.35210038E+04</pdfrwt>
<pdfrwt beam="2">  1       -2 0.27727881E+00 0.35210038E+04</pdfrwt>
<totfact> 0.34322350E-01</totfact>
</mgrwt>
</event>
<event>
 6    1  0.1568961E-005  0.2267485E+04  0.7818608E-02  0.8490853E-01
         -1   -1    0    0    0  501 -0.00000000000E+00  0.00000000000E+00  0.15626791567E+04  0.15626791567E+04  0.00000000000E+00 0.  1.
          1   -1    0    0  501    0  0.00000000000E+00 -0.00000000000E+00 -0.82254392459E+03  0.82254392459E+03  0.00000000000E+00 0. -1.
         23    2    1    2    0    0  0.38375466529E+03 -0.11434271903E+03 -0.74289173819E+03  0.84908803021E+03  0.93383338192E+02 0.  0.
         11    1    3    3    0    0  0.95748417085E+02 -0.36212891086E+02 -0.28217070050E+03  0.30016568271E+03  0.00000000000E+00 0.  1.
        -11    1    3    3    0    0  0.28800624820E+03 -0.78129827949E+02 -0.46072103769E+03  0.54892234751E+03  0.00000000000E+00 0. -1.
         22    1    1    2    0    0 -0.38375466529E+03  0.11434271903E+03  0.14830269703E+04  0.15361350510E+04  0.00000000000E+00 0.  1.
<mgrwt>
<rscale>  0 0.22674852E+04</rscale>
<asrwt>0</asrwt>
<pdfrwt beam="1">  1        1 0.12654522E+00 0.22674852E+04</pdfrwt>
<pdfrwt beam="2">  1       -1 0.24041218E+00 0.22674852E+04</pdfrwt>
<totfact> 0.15435156E+00</totfact>
</mgrwt>
</event>
<event>
 6    1  0.1568961E-005  0.2480439E+04  0.7818608E-02  0.8409987E-01
          2   -1    0    0  501    0  0.00000000000E+00  0.00000000000E+00  0.19315987975E+04  0.19315987975E+04  0.00000000000E+00 0. -1.
         -2   -1    0    0    0  501 -0.00000000000E+00 -0.00000000000E+00 -0.79630643637E+03  0.79630643637E+03  0.00000000000E+00 0.  1.
         23    2    1    2    0    0  0.83723792741E+03 -0.89553465111E+03  0.37506182828E+03  0.12853726965E+04  0.92530726634E+02 0.  0.
         13    1    3    3    0    0  0.38237605276E+02 -0.74344815057E+02  0.29190162090E+02  0.88551293305E+02  0.00000000000E+00 0.  1.
        -13    1    3    3    0    0  0.79900032214E+03 -0.82118983605E+03  0.34587166619E+03  0.11968214032E+04  0.00000000000E+00 0. -1.
         22    1    1    2    0    0 -0.83723792741E+03  0.89553465111E+03  0.76023053289E+03  0.14425325374E+04  0.00000000000E+00 0. -1.
<mgrwt>
<rscale>  0 0.24804391E+04</rscale>
<asrwt>0</asrwt>
<pdfrwt beam="1">  1        2 0.29716904E+00 0.24804391E+04</pdfrwt>
<pdfrwt beam="2">  1       -2 0.12250868E+00 0.24804391E+04</pdfrwt>
<totfact> 0.32854483E+00</totfact>
</mgrwt>
</event>
<event>
 6    1  0.1568961E-005  0.5845058E+04  0.7818608E-02  0.7709915E-01
          1   -1    0    0  501    0  0.00000000000E+00  0.00000000000E+00  0.27070352819E+04  0.27070352819E+04  0.00000000000E+00 0. -1.
         -1   -1    0    0    0  501 -0.00000000000E+00 -0.00000000000E+00 -0.31551771091E+04  0.31551771091E+04  0.00000000000E+00 0.  1.
         23    2    1    2    0    0 -0.27190131588E+04  0.67125839886E+03  0.61109508438E+03  0.28679506739E+04  0.89908121062E+02 0.  0.
         13    1    3    3    0    0 -0.15339159397E+04  0.37502101633E+03  0.29902497936E+03  0.16071573697E+04  0.00000000000E+00 0.  1.
        -13    1    3    3    0    0 -0.11850972191E+04  0.29623738253E+03  0.31207010502E+03  0.12607933042E+04  0.00000000000E+00 0. -1.
         22    1    1    2    0    0  0.27190131588E+04 -0.67125839886E+03 -0.10592369115E+04  0.29942617171E+04  0.00000000000E+00 0.  1.
<mgrwt>
<rscale>  0 0.58450580E+04</rscale>
<asrwt>0</asrwt>
<pdfrwt beam="1">  1        1 0.41646697E+00 0.58450580E+04</pdfrwt>
<pdfrwt beam="2">  1       -1 0.48541186E+00 0.58450580E+04</pdfrwt>
<totfact> 0.12279744E-03</totfact>
</mgrwt>
</event>
<event>
 6    1  0.1568961E-005  0.2310337E+04  0.7818608E-02  0.8473856E-01
          2   -1    0    0  501    0  0.00000000000E+00  0.00000000000E+00  0.18846087418E+04  0.18846087418E+04  0.00000000000E+00 0. -1.
         -2   -1    0    0    0  501 -0.00000000000E+00 -0.00000000000E+00 -0.70805907993E+03  0.70805907993E+03  0.00000000000E+00 0.  1.
         23    2    1    2    0    0 -0.24286345838E+03  0.60100296833E+03 -0.48127511178E+03  0.81262001129E+03  0.92403041963E+02 0.  0.
         11    1    3    3    0    0 -0.12495813153E+03  0.41356517960E+03 -0.29362126430E+03  0.52236399116E+03  0.00000000000E+00 0. -1.
        -11    1    3    3    0    0 -0.11790532686E+03  0.18743778874E+03 -0.18765384748E+03  0.29025602013E+03  0.00000000000E+00 0.  1.
         22    1    1    2    0    0  0.24286345838E+03 -0.60100296833E+03  0.16578247736E+04  0.17800478104E+04  0.00000000000E+00 0. -1.
<mgrwt>
<rscale>  0 0.23103371E+04</rscale>
<asrwt>0</asrwt>
<pdfrwt beam="1">  1        2 0.28993980E+00 0.23103371E+04</pdfrwt>
<pdfrwt beam="2">  1       -2 0.10893217E+00 0.23103371E+04</pdfrwt>
<totfact> 0.47193253E+00</totfact>
</mgrwt>
</event>
<event>
 6    1  0.1568961E-005  0.1439168E+04  0.7818608E-02  0.8925945E-01
         -1   -1    0    0    0  501 -0.00000000000E+00  0.00000000000E+00  0.29402914861E+03  0.29402914861E+03  0.00000000000E+00 0.  1.
          1   -1    0    0  501    0  0.00000000000E+00 -0.00000000000E+00 -0.17610530279E+04  0.17610530279E+04  0.00000000000E+00 0. -1.
         23    2    1    2    0    0 -0.45863356549E+02  0.41334752027E+03  0.10038063326E+03  0.43344210364E+03  0.69542545856E+02 0.  0.
         13    1    3    3    0    0 -0.42392210815E+02  0.34960863527E+03  0.58238161051E+02  0.35695235087E+03  0.00000000000E+00 0. -1.
        -13    1    3    3    0    0 -0.34711457334E+01  0.63738885003E+02  0.42142472206E+02  0.76489752764E+02  0.00000000000E+00 0.  1.
         22    1    1    2    0    0  0.45863356549E+02 -0.41334752027E+03 -0.15674045126E+04  0.16216400729E+04  0.00000000000E+00 0. -1.
<mgrwt>
<rscale>  0 0.14391677E+04</rscale>
<asrwt>0</asrwt>
<pdfrwt beam="1">  1        1 0.27093123E+00 0.14391677E+04</pdfrwt>
<pdfrwt beam="2">  1       -1 0.45235254E-01 0.14391677E+04</pdfrwt>
<totfact> 0.20419422E+01</totfact>
</mgrwt>
</event>
<event>
 6    1  0.1568961E-005  0.3484983E+04  0.7818608E-02  0.8117358E-01
          2   -1    0    0  501    0  0.00000000000E+00  0.00000000000E+00  0.17895180725E+04  0.17895180725E+04  0.00000000000E+00 0. -1.
         -2   -1    0    0    0  501 -0.00000000000E+00 -0.00000000000E+00 -0.16967010834E+04  0.16967010834E+04  0.00000000000E+00 0.  1.
         23    2    1    2    0    0  0.63671785758E+03 -0.10770497617E+04 -0.11650364111E+04  0.17120599196E+04  0.91616099625E+02 0.  0.
         11    1    3    3    0    0  0.34860677485E+03 -0.66140801496E+03 -0.65895005182E+03  0.99659541266E+03  0.00000000000E+00 0. -1.
        -11    1    3    3    0    0  0.28811108273E+03 -0.41564174672E+03 -0.50608635931E+03  0.71546450694E+03  0.00000000000E+00 0.  1.
         22    1    1    2    0    0 -0.63671785758E+03  0.10770497617E+04  0.12578534002E+04  0.17741592363E+04  0.00000000000E+00 0. -1.
<mgrwt>
<rscale>  0 0.34849834E+04</rscale>
<asrwt>0</asrwt>
<pdfrwt beam="1">  1        2 0.27531047E+00 0.34849834E+04</pdfrwt>
<pdfrwt beam="2">  1       -2 0.26103094E+00 0.34849834E+04</pdfrwt>
<totfact> 0.39564658E-01</totfact>
</mgrwt>
</event>
<event>
 6    1  0.1568961E-005  0.2070287E+04  0.7818608E-02  0.8574446E-01
          2   -1    0    0  501    0  0.00000000000E+00  0.00000000000E+00  0.27840275172E+04  0.27840275172E+04  0.00000000000E+00 0.  1.
         -2   -1    0    0    0  501 -0.00000000000E+00 -0.00000000000E+00 -0.38488184444E+03  0.38488184444E+03  0.00000000000E+00 0. -1.
         23    2    1    2    0    0 -0.30808590420E+03 -0.52803645591E+03 -0.72895540039E+02  0.62239661262E+03  0.91237933510E+02 0.  0.
         13    1    3    3    0    0 -0.11787032842E+03 -0.22123946999E+03  0.14120683664E+02  0.25107710192E+03  0.00000000000E+00 0.  1.
        -13    1    3    3    0    0 -0.19021557578E+03 -0.30679698592E+03 -0.87016223703E+02  0.37131951070E+03  0.00000000000E+00 0. -1.
         22    1    1    2    0    0  0.30808590420E+03  0.52803645591E+03  0.24720412127E+04  0.25465127490E+04  0.00000000000E+00 0.  1.
<mgrwt>
<rscale>  0 0.20702866E+04</rscale>
<asrwt>0</asrwt>
<pdfrwt beam="1">  1        2 0.42831191E+00 0.20702866E+04</pdfrwt>
<pdfrwt beam="2">  1       -2 0.59212593E-01 0.20702866E+04</pdfrwt>
<totfact> 0.58238026E+00</totfact>
</mgrwt>
</event>
<event>
 6    1  0.1568961E-005  0.1354206E+04  0.7818608E-02  0.8987650E-01
          2   -1    0    0  501    0  0.00000000000E+00  0.00000000000E+00  0.12974445201E+04  0.12974445201E+04  0.00000000000E+00 0. -1.
         -2   -1    0    0    0  501 -0.00000000000E+00 -0.00000000000E+00 -0.35336290732E+03  0.35336290732E+03  0.00000000000E+00 0.  1.
         23    2    1    2    0    0  0.45936718741E+03 -0.39759645183E+03  0.11802625614E+03  0.62539599603E+03  0.89937774777E+02 0.  0.
         13    1    3    3    0    0  0.23442394978E+03 -0.14378178883E+03  0.54089811051E+02  0.28027397077E+03  0.00000000000E+00 0. -1.
        -13    1    3    3    0    0  0.22494323763E+03 -0.25381466300E+03  0.63936445084E+02  0.34512202526E+03  0.00000000000E+00 0.  1.
         22    1    1    2    0    0 -0.45936718741E+03  0.39759645183E+03  0.82605535667E+03  0.10254114314E+04  0.00000000000E+00 0. -1.
<mgrwt>
<rscale>  0 0.13542064E+04</rscale>
<asrwt>0</asrwt>
<pdfrwt beam="1">  1        2 0.19960685E+00 0.13542064E+04</pdfrwt>
<pdfrwt beam="2">  1       -2 0.54363525E-01 0.13542064E+04</pdfrwt>
<totfact> 0.51585662E+01</totfact>
</mgrwt>
</event>
<event>
 6    1  0.1568961E-005  0.1368301E+04  0.7818608E-02  0.8977089E-01
          2   -1    0    0  501    0  0.00000000000E+00  0.00000000000E+00  0.25943565346E+03  0.25943565346E+03  0.00000000000E+00 0.  1.
         -2   -1    0    0    0  501 -0.00000000000E+00 -0.00000000000E+00 -0.18041548868E+04  0.18041548868E+04  0.00000000000E+00 0. -1.
         23    2    1    2    0    0 -0.46408622561E+03 -0.45941790560E+03 -0.48590017627E+03  0.81958948223E+03  0.95849367664E+02 0.  0.
         13    1    3    3    0    0 -0.19122661288E+03 -0.23158829454E+03 -0.26887325088E+03  0.40310492516E+03  0.00000000000E+00 0.  1.
        -13    1    3    3    0    0 -0.27285961273E+03 -0.22782961106E+03 -0.21702692539E+03  0.41648455707E+03  0.00000000000E+00 0. -1.
         22    1    1    2    0    0  0.46408622561E+03  0.45941790560E+03 -0.10588190570E+04  0.12440010580E+04  0.00000000000E+00 0. -1.
<mgrwt>
<rscale>  0 0.13683013E+04</rscale>
<asrwt>0</asrwt>
<pdfrwt beam="1">  1        2 0.39913176E-01 0.13683013E+04</pdfrwt>
<pdfrwt beam="2">  1       -2 0.27756230E+00 0.13683013E+04</pdfrwt>
<totfact> 0.55078692E+00</totfact>
</mgrwt>
</event>
<event>
 6    1  0.1568961E-005  0.2364144E+04  0.7818608E-02  0.8453051E-01
          1   -1    0    0  501    0  0.00000000000E+00  0.00000000000E+00  0.16761880793E+04  0.16761880793E+04  0.00000000000E+00 0. -1.
         -1   -1    0    0    0  501 -0.00000000000E+00 -0.00000000000E+00 -0.83361389863E+03  0.83361389863E+03  0.00000000000E+00 0.  1.
         23    2    1    2    0    0 -0.45375151038E+03  0.67033668061E+03  0.13349323414E+04  0.15623536906E+04  0.60522723450E+02 0.  0.
         11    1    3    3    0    0 -0.82001022645E+02  0.11526219574E+03  0.19176417159E+03  0.23829191969E+03  0.00000000000E+00 0.  1.
        -11    1    3    3    0    0 -0.37175048774E+03  0.55507448487E+03  0.11431681698E+04  0.13240617710E+04  0.00000000000E+00 0. -1.
         22    1    1    2    0    0  0.45375151038E+03 -0.67033668061E+03 -0.49235816076E+03  0.94744828725E+03  0.00000000000E+00 0.  1.
<mgrwt>
<rscale>  0 0.23641435E+04</rscale>
<asrwt>0</asrwt>
<pdfrwt beam="1">  1        1 0.25787509E+00 0.23641435E+04</pdfrwt>
<pdfrwt beam="2">  1       -1 0.12824829E+00 0.23641435E+04</pdfrwt>
<totfact> 0.23340547E+00</totfact>
</mgrwt>
</event>
<event>
 6    1  0.1568961E-005  0.1545448E+04  0.7818608E-02  0.8854781E-01
         -2   -1    0    0    0  501 -0.00000000000E+00  0.00000000000E+00  0.77512422710E+03  0.77512422710E+03  0.00000000000E+00 0.  1.
          2   -1    0    0  501    0  0.00000000000E+00 -0.00000000000E+00 -0.77033107535E+03  0.77033107535E+03  0.00000000000E+00 0. -1.
         23    2    1    2    0    0 -0.58973752863E+03  0.41223820826E+03  0.27700585479E+03  0.77615012977E+03  0.89140828622E+02 0.  0.
         13    1    3    3    0    0 -0.19848787664E+03  0.14308245663E+03  0.49774726654E+02  0.24969491381E+03  0.00000000000E+00 0. -1.
        -13    1    3    3    0    0 -0.39124965200E+03  0.26915575163E+03  0.22723112813E+03  0.52645521596E+03  0.00000000000E+00 0.  1.
         22    1    1    2    0    0  0.58973752863E+03 -0.41223820826E+03 -0.27221270303E+03  0.76930517268E+03  0.00000000000E+00 0. -1.
<mgrwt>
<rscale>  0 0.15454479E+04</rscale>
<asrwt>0</asrwt>
<pdfrwt beam="1">  1        2 0.11851247E+00 0.15454479E+04</pdfrwt>
<pdfrwt beam="2">  1       -2 0.11924988E+00 0.15454479E+04</pdfrwt>
<totfact> 0.18805178E+01</totfact>
</mgrwt>
</event>
<event>
 6    1  0.1568961E-005  0.1223344E+04  0.7818608E-02  0.9092665E-01
          2   -1    0    0  501    0  0.00000000000E+00  0.00000000000E+00  0.14821673380E+04  0.14821673380E+04  0.00000000000E+00 0. -1.
         -2   -1    0    0    0  501 -0.00000000000E+00 -0.00000000000E+00 -0.25242960914E+03  0.25242960914E+03  0.00000000000E+00 0.  1.
         23    2    1    2    0    0  0.31401613500E+03  0.49747716899E+03  0.83335543237E+03  0.10252249773E+04  0.10254418873E+03 0.  0.
         11    1    3    3    0    0  0.93800972142E+02  0.23230271618E+03  0.39202828250E+03  0.46524117251E+03  0.00000000000E+00 0.  1.
        -11    1    3    3    0    0  0.22021516286E+03  0.26517445281E+03  0.44132714987E+03  0.55998380475E+03  0.00000000000E+00 0. -1.
         22    1    1    2    0    0 -0.31401613500E+03 -0.49747716899E+03  0.39638229651E+03  0.70937196991E+03  0.00000000000E+00 0. -1.
<mgrwt>
<rscale>  0 0.12233445E+04</rscale>
<asrwt>0</asrwt>
<pdfrwt beam="1">  1        2 0.22802574E+00 0.12233445E+04</pdfrwt>
<pdfrwt beam="2">  1       -2 0.38835325E-01 0.12233445E+04</pdfrwt>
<totfact> 0.80165635E+01</totfact>
</mgrwt>
</event>
<event>
 6    1  0.1568961E-005  0.4134539E+04  0.7818608E-02  0.7977942E-01
          1   -1    0    0  501    0  0.00000000000E+00  0.00000000000E+00  0.22805558405E+04  0.22805558405E+04  0.00000000000E+00 0. -1.
         -1   -1    0    0    0  501 -0.00000000000E+00 -0.00000000000E+00 -0.18739302791E+04  0.18739302791E+04  0.00000000000E+00 0.  1.
         23    2    1    2    0    0 -0.22101266702E+03 -0.19216351815E+04 -0.52666886225E+03  0.20067973966E+04  0.91254210720E+02 0.  0.
         13    1    3    3    0    0 -0.12253411440E+03 -0.10811275649E+04 -0.34305627723E+03  0.11408501348E+04  0.00000000000E+00 0. -1.
        -13    1    3    3    0    0 -0.98478552621E+02 -0.84050761657E+03 -0.18361258502E+03  0.86594726180E+03  0.00000000000E+00 0.  1.
         22    1    1    2    0    0  0.22101266702E+03  0.19216351815E+04  0.93329442361E+03  0.21476887230E+04  0.00000000000E+00 0. -1.
<mgrwt>
<rscale>  0 0.41345387E+04</rscale>
<asrwt>0</asrwt>
<pdfrwt beam="1">  1        1 0.35085474E+00 0.41345387E+04</pdfrwt>
<pdfrwt beam="2">  1       -1 0.28829697E+00 0.41345387E+04</pdfrwt>
<totfact> 0.58427511E-02</totfact>
</mgrwt>
</event>
<event>
 6    1  0.1568961E-005  0.1515022E+04  0.7818608E-02  0.8874524E-01
         -1   -1    0    0    0  501 -0.00000000000E+00  0.00000000000E+00  0.35923570608E+03  0.35923570608E+03  0.00000000000E+00 0. -1.
          1   -1    0    0  501    0  0.00000000000E+00 -0.00000000000E+00 -0.15973447796E+04  0.15973447796E+04  0.00000000000E+00 0.  1.
         23    2    1    2    0    0 -0.77424327848E+02 -0.64039322112E+03 -0.11575039336E+03  0.66205856190E+03  0.93943502299E+02 0.  0.
         11    1    3    3    0    0 -0.96060778947E+02 -0.52450669972E+03 -0.11053832820E+03  0.54456741852E+03  0.00000000000E+00 0.  1.
        -11    1    3    3    0    0  0.18636451098E+02 -0.11588652140E+03 -0.52120651592E+01  0.11749114339E+03  0.00000000000E+00 0. -1.
         22    1    1    2    0    0  0.77424327848E+02  0.64039322112E+03 -0.11223586801E+04  0.12945219237E+04  0.00000000000E+00 0.  1.
<mgrwt>
<rscale>  0 0.15150225E+04</rscale>
<asrwt>0</asrwt>
<pdfrwt beam="1">  1        1 0.24574535E+00 0.15150225E+04</pdfrwt>
<pdfrwt beam="2">  1       -1 0.55267033E-01 0.15150225E+04</pdfrwt>
<totfact> 0.17918835E+01</totfact>
</mgrwt>
</event>
<event>
 6    1  0.1568961E-005  0.2217113E+04  0.7818608E-02  0.8511339E-01
          2   -1    0    0  501    0  0.00000000000E+00  0.00000000000E+00  0.11243988367E+04  0.11243988367E+04  0.00000000000E+00 0. -1.
         -2   -1    0    0    0  501 -0.00000000000E+00 -0.00000000000E+00 -0.10929375966E+04  0.10929375966E+04  0.00000000000E+00 0.  1.
         23    2    1    2    0    0 -0.20334719520E+03 -0.42537969704E+03  0.10170138728E+04  0.11248109369E+04  0.92652349104E+02 0.  0.
         11    1    3    3    0    0 -0.14883994675E+03 -0.36660458269E+03  0.78012138593E+03  0.87472374301E+03  0.00000000000E+00 0. -1.
        -11    1    3    3    0    0 -0.54507248450E+02 -0.58775114352E+02  0.23689248686E+03  0.25008719386E+03  0.00000000000E+00 0.  1.
         22    1    1    2    0    0  0.20334719520E+03  0.42537969704E+03 -0.98555263267E+03  0.10925254964E+04  0.00000000000E+00 0.  1.
<mgrwt>
<rscale>  0 0.22171132E+04</rscale>
<asrwt>0</asrwt>
<pdfrwt beam="1">  1        2 0.17298444E+00 0.22171132E+04</pdfrwt>
<pdfrwt beam="2">  1       -2 0.16814425E+00 0.22171132E+04</pdfrwt>
<totfact> 0.42210357E+00</totfact>
</mgrwt>
</event>
<event>
 6    1  0.1568961E-005  0.2660405E+04  0.7818608E-02  0.8347968E-01
         -2   -1    0    0    0  501 -0.00000000000E+00  0.00000000000E+00  0.14373131438E+04  0.14373131438E+04  0.00000000000E+00 0.  1.
          2   -1    0    0  501    0  0.00000000000E+00 -0.00000000000E+00 -0.12310736812E+04  0.12310736812E+04  0.00000000000E+00 0. -1.
         23    2    1    2    0    0  0.11952125342E+04 -0.40943340278E+03 -0.30903529292E+03  0.13039540539E+04  0.92868988914E+02 0.  0.
         13    1    3    3    0    0  0.99905854875E+03 -0.30779014273E+03 -0.26872084495E+03  0.10793811413E+04  0.00000000000E+00 0. -1.
        -13    1    3    3    0    0  0.19615398550E+03 -0.10164326005E+03 -0.40314447964E+02  0.22457291256E+03  0.00000000000E+00 0.  1.
         22    1    1    2    0    0 -0.11952125342E+04  0.40943340278E+03  0.51527475550E+03  0.13644327711E+04  0.00000000000E+00 0.  1.
<mgrwt>
<rscale>  0 0.26604048E+04</rscale>
<asrwt>0</asrwt>
<pdfrwt beam="1">  1        2 0.18939595E+00 0.26604048E+04</pdfrwt>
<pdfrwt beam="2">  1       -2 0.22112510E+00 0.26604048E+04</pdfrwt>
<totfact> 0.15531727E+00</totfact>
</mgrwt>
</event>
<event>
 6    1  0.1568961E-005  0.2524003E+04  0.7818608E-02  0.8394484E-01
         -1   -1    0    0    0  501 -0.00000000000E+00  0.00000000000E+00  0.72232469509E+03  0.72232469509E+03  0.00000000000E+00 0.  1.
          1   -1    0    0  501    0  0.00000000000E+00 -0.00000000000E+00 -0.22048916677E+04  0.22048916677E+04  0.00000000000E+00 0. -1.
         23    2    1    2    0    0 -0.17780595483E+03 -0.45289048797E+03 -0.20906530913E+04  0.21484394503E+04  0.90757763377E+02 0.  0.
         11    1    3    3    0    0 -0.98362088324E+02 -0.35571155732E+03 -0.15238559036E+04  0.15679102740E+04  0.00000000000E+00 0.  1.
        -11    1    3    3    0    0 -0.79443866501E+02 -0.97178930652E+02 -0.56679718774E+03  0.58052917628E+03  0.00000000000E+00 0. -1.
         22    1    1    2    0    0  0.17780595483E+03  0.45289048797E+03  0.60808611872E+03  0.77877691250E+03  0.00000000000E+00 0.  1.
<mgrwt>
<rscale>  0 0.25240029E+04</rscale>
<asrwt>0</asrwt>
<pdfrwt beam="1">  1        1 0.33921410E+00 0.25240029E+04</pdfrwt>
<pdfrwt beam="2">  1       -1 0.11112688E+00 0.25240029E+04</pdfrwt>
<totfact> 0.14273918E+00</totfact>
</mgrwt>
</event>
<event>
 6    1  0.1568961E-005  0.2881832E+04  0.7818608E-02  0.8278304E-01
          1   -1    0    0  501    0  0.00000000000E+00  0.00000000000E+00  0.11823806963E+04  0.11823806963E+04  0.00000000000E+00 0. -1.
         -1   -1    0    0    0  501 -0.00000000000E+00 -0.00000000000E+00 -0.17559818583E+04  0.17559818583E+04  0.00000000000E+00 0.  1.
         23    2    1    2    0    0  0.10971414161E+04  0.89927399378E+03 -0.53634029715E+03  0.15192778584E+04  0.90173687531E+02 0.  0.
         13    1    3    3    0    0  0.89515313796E+03  0.75415346951E+03 -0.47434336092E+03  0.12629521844E+04  0.00000000000E+00 0.  1.
        -13    1    3    3    0    0  0.20198827815E+03  0.14512052426E+03 -0.61996936227E+02  0.25632567404E+03  0.00000000000E+00 0. -1.
         22    1    1    2    0    0 -0.10971414161E+04 -0.89927399378E+03 -0.37260864816E+02  0.14190846962E+04  0.00000000000E+00 0. -1.
<mgrwt>
<rscale>  0 0.28818321E+04</rscale>
<asrwt>0</asrwt>
<pdfrwt beam="1">  1        1 0.18190472E+00 0.28818321E+04</pdfrwt>
<pdfrwt beam="2">  1       -1 0.27015106E+00 0.28818321E+04</pdfrwt>
<totfact> 0.48786522E-01</totfact>
</mgrwt>
</event>
<event>
 6    1  0.1568961E-005  0.2114123E+04  0.7818608E-02  0.8555047E-01
          2   -1    0    0  501    0  0.00000000000E+00  0.00000000000E+00  0.14484108211E+04  0.14484108211E+04  0.00000000000E+00 0. -1.
         -2   -1    0    0    0  501 -0.00000000000E+00 -0.00000000000E+00 -0.77145189009E+03  0.77145189009E+03  0.00000000000E+00 0.  1.
         23    2    1    2    0    0 -0.75385231027E+03 -0.10516162382E+03  0.11063340660E+04  0.13459546614E+04  0.90920912559E+02 0.  0.
         13    1    3    3    0    0 -0.32636724979E+03 -0.85170134180E+02  0.44875941457E+03  0.56138627134E+03  0.00000000000E+00 0. -1.
        -13    1    3    3    0    0 -0.42748506048E+03 -0.19991489640E+02  0.65757465138E+03  0.78456839009E+03  0.00000000000E+00 0.  1.
         22    1    1    2    0    0  0.75385231027E+03  0.10516162382E+03 -0.42937513498E+03  0.87390804972E+03  0.00000000000E+00 0.  1.
<mgrwt>
<rscale>  0 0.21141232E+04</rscale>
<asrwt>0</asrwt>
<pdfrwt beam="1">  1        2 0.22283243E+00 0.21141232E+04</pdfrwt>
<pdfrwt beam="2">  1       -2 0.11868491E+00 0.21141232E+04</pdfrwt>
<totfact> 0.68222352E+00</totfact>
</mgrwt>
</event>
<event>
 6    1  0.1568961E-005  0.2926655E+04  0.7818608E-02  0.8264991E-01
          2   -1    0    0  501    0  0.00000000000E+00  0.00000000000E+00  0.22302026124E+04  0.22302026124E+04  0.00000000000E+00 0. -1.
         -2   -1    0    0    0  501 -0.00000000000E+00 -0.00000000000E+00 -0.96014935175E+03  0.96014935175E+03  0.00000000000E+00 0.  1.
         23    2    1    2    0    0 -0.86162605618E+03 -0.44147509552E+03  0.18297324345E+04  0.20720762833E+04  0.90992424599E+02 0.  0.
         11    1    3    3    0    0 -0.41265593557E+03 -0.16842094754E+03  0.78812229848E+03  0.90542105901E+03  0.00000000000E+00 0. -1.
        -11    1    3    3    0    0 -0.44897012061E+03 -0.27305414798E+03  0.10416101360E+04  0.11666552243E+04  0.00000000000E+00 0.  1.
         22    1    1    2    0    0  0.86162605618E+03  0.44147509552E+03 -0.55967917387E+03  0.11182756808E+04  0.00000000000E+00 0.  1.
<mgrwt>
<rscale>  0 0.29266552E+04</rscale>
<asrwt>0</asrwt>
<pdfrwt beam="1">  1        2 0.34310809E+00 0.29266552E+04</pdfrwt>
<pdfrwt beam="2">  1       -2 0.14771529E+00 0.29266552E+04</pdfrwt>
<totfact> 0.13342571E+00</totfact>
</mgrwt>
</event>
<event>
 6    1  0.1568961E-005  0.1152362E+04  0.7818608E-02  0.9155607E-01
          1   -1    0    0  501    0  0.00000000000E+00  0.00000000000E+00  0.87584723158E+03  0.87584723158E+03  0.00000000000E+00 0. -1.
         -1   -1    0    0    0  501 -0.00000000000E+00 -0.00000000000E+00 -0.37904403826E+03  0.37904403826E+03  0.00000000000E+00 0.  1.
         23    2    1    2    0    0  0.53855614978E+02 -0.20904339887E+03  0.82738470779E+03  0.86007016149E+03  0.92496800615E+02 0.  0.
         11    1    3    3    0    0  0.16797447242E+02 -0.10691931560E+03  0.57805196415E+03  0.58809690318E+03  0.00000000000E+00 0. -1.
        -11    1    3    3    0    0  0.37058167736E+02 -0.10212408327E+03  0.24933274365E+03  0.27197325831E+03  0.00000000000E+00 0.  1.
         22    1    1    2    0    0 -0.53855614978E+02  0.20904339887E+03 -0.33058151448E+03  0.39482110834E+03  0.00000000000E+00 0.  1.
<mgrwt>
<rscale>  0 0.11523622E+04</rscale>
<asrwt>0</asrwt>
<pdfrwt beam="1">  1        1 0.13474573E+00 0.11523622E+04</pdfrwt>
<pdfrwt beam="2">  1       -1 0.58314468E-01 0.11523622E+04</pdfrwt>
<totfact> 0.56374125E+01</totfact>
</mgrwt>
</event>
<event>
 6    1  0.1568961E-005  0.1877578E+04  0.7818608E-02  0.8666099E-01
          2   -1    0    0  501    0  0.00000000000E+00  0.00000000000E+00  0.10418432466E+04  0.10418432466E+04  0.00000000000E+00 0. -1.
         -2   -1    0    0    0  501 -0.00000000000E+00 -0.00000000000E+00 -0.84592795088E+03  0.84592795088E+03  0.00000000000E+00 0.  1.
         23    2    1    2    0    0 -0.21974025033E+03  0.62234933046E+03  0.76616693799E+03  0.10155376266E+04  0.93276081945E+02 0.  0.
         13    1    3    3    0    0 -0.17033049574E+03  0.40105787104E+03  0.44910783538E+03  0.62574574829E+03  0.00000000000E+00 0. -1.
        -13    1    3    3    0    0 -0.49409754593E+02  0.22129145942E+03  0.31705910262E+03  0.38979187833E+03  0.00000000000E+00 0.  1.
         22    1    1    2    0    0  0.21974025033E+03 -0.62234933046E+03 -0.57025164224E+03  0.87223357091E+03  0.00000000000E+00 0.  1.
<mgrwt>
<rscale>  0 0.18775775E+04</rscale>
<asrwt>0</asrwt>
<pdfrwt beam="1">  1        2 0.16028358E+00 0.18775775E+04</pdfrwt>
<pdfrwt beam="2">  1       -2 0.13014276E+00 0.18775775E+04</pdfrwt>
<totfact> 0.96257365E+00</totfact>
</mgrwt>
</event>
<event>
 6    1  0.1568961E-005  0.1096300E+04  0.7818608E-02  0.9208806E-01
          2   -1    0    0  501    0  0.00000000000E+00  0.00000000000E+00  0.34546659177E+04  0.34546659177E+04  0.00000000000E+00 0. -1.
         -2   -1    0    0    0  501 -0.00000000000E+00 -0.00000000000E+00 -0.86974659936E+02  0.86974659936E+02  0.00000000000E+00 0.  1.
         23    2    1    2    0    0 -0.10478323632E+03 -0.45103838148E+03  0.26193509087E+04  0.26616244265E+04  0.93969445876E+02 0.  0.
         11    1    3    3    0    0 -0.71408499796E+02 -0.18843198355E+03  0.13507781166E+04  0.13657259266E+04  0.00000000000E+00 0. -1.
        -11    1    3    3    0    0 -0.33374736528E+02 -0.26260639793E+03  0.12685727921E+04  0.12958984999E+04  0.00000000000E+00 0.  1.
         22    1    1    2    0    0  0.10478323632E+03  0.45103838148E+03  0.74834034905E+03  0.88001615110E+03  0.00000000000E+00 0.  1.
<mgrwt>
<rscale>  0 0.10962999E+04</rscale>
<asrwt>0</asrwt>
<pdfrwt beam="1">  1        2 0.53148696E+00 0.10962999E+04</pdfrwt>
<pdfrwt beam="2">  1       -2 0.13380720E-01 0.10962999E+04</pdfrwt>
<totfact> 0.38109373E+01</totfact>
</mgrwt>
</event>
<event>
 6    1  0.1568961E-005  0.1960563E+04  0.7818608E-02  0.8625284E-01
         -2   -1    0    0    0  501 -0.00000000000E+00  0.00000000000E+00  0.15214509163E+04  0.15214509163E+04  0.00000000000E+00 0.  1.
          2   -1    0    0  501    0  0.00000000000E+00 -0.00000000000E+00 -0.63160200985E+03  0.63160200985E+03  0.00000000000E+00 0. -1.
         23    2    1    2    0    0  0.59325009613E+03  0.11486694230E+03 -0.39898501125E+03  0.72959482757E+03  0.89327947530E+02 0.  0.
         13    1    3    3    0    0  0.42486686205E+03  0.66119444426E+02 -0.23729054869E+03  0.49111142920E+03  0.00000000000E+00 0. -1.
        -13    1    3    3    0    0  0.16838323409E+03  0.48747497873E+02 -0.16169446257E+03  0.23848339836E+03  0.00000000000E+00 0.  1.
         22    1    1    2    0    0 -0.59325009613E+03 -0.11486694230E+03  0.12888339177E+04  0.14234580986E+04  0.00000000000E+00 0.  1.
<mgrwt>
<rscale>  0 0.19605626E+04</rscale>
<asrwt>0</asrwt>
<pdfrwt beam="1">  1        2 0.97169540E-01 0.19605626E+04</pdfrwt>
<pdfrwt beam="2">  1       -2 0.23406937E+00 0.19605626E+04</pdfrwt>
<totfact> 0.34995360E+00</totfact>
</mgrwt>
</event>
<event>
 6    1  0.1568961E-005  0.2522301E+04  0.7818608E-02  0.8395084E-01
         -2   -1    0    0    0  501 -0.00000000000E+00  0.00000000000E+00  0.65968507852E+03  0.65968507852E+03  0.00000000000E+00 0.  1.
          2   -1    0    0  501    0  0.00000000000E+00 -0.00000000000E+00 -0.24109994649E+04  0.24109994649E+04  0.00000000000E+00 0. -1.
         23    2    1    2    0    0 -0.83638606261E+03 -0.53014289893E+03 -0.18243700292E+04  0.20777443307E+04  0.90013117282E+02 0.  0.
         11    1    3    3    0    0 -0.14789109400E+03 -0.13468629010E+03 -0.38850542627E+03  0.43697670266E+03  0.00000000000E+00 0.  1.
        -11    1    3    3    0    0 -0.68849496860E+03 -0.39545660883E+03 -0.14358646029E+04  0.16407676280E+04  0.00000000000E+00 0. -1.
         22    1    1    2    0    0  0.83638606261E+03  0.53014289893E+03  0.73055642866E+02  0.99294021268E+03  0.00000000000E+00 0.  1.
<mgrwt>
<rscale>  0 0.25223008E+04</rscale>
<asrwt>0</asrwt>
<pdfrwt beam="1">  1        2 0.37092299E+00 0.25223008E+04</pdfrwt>
<pdfrwt beam="2">  1       -2 0.10149001E+00 0.25223008E+04</pdfrwt>
<totfact> 0.27810060E+00</totfact>
</mgrwt>
</event>
<event>
 6    1  0.1568961E-005  0.1480723E+04  0.7818608E-02  0.8897374E-01
         -2   -1    0    0    0  501 -0.00000000000E+00  0.00000000000E+00  0.23534753330E+03  0.23534753330E+03  0.00000000000E+00 0.  1.
          2   -1    0    0  501    0  0.00000000000E+00 -0.00000000000E+00 -0.23290465947E+04  0.23290465947E+04  0.00000000000E+00 0. -1.
         23    2    1    2    0    0 -0.15563869863E+02  0.62274497470E+02 -0.23232691878E+04  0.23260188146E+04  0.93077709311E+02 0.  0.
         11    1    3    3    0    0  0.35674175005E+02  0.27722516955E+02 -0.13724216004E+04  0.13731650425E+04  0.00000000000E+00 0.  1.
        -11    1    3    3    0    0 -0.51238044868E+02  0.34551980515E+02 -0.95084758738E+03  0.95285377211E+03  0.00000000000E+00 0. -1.
         22    1    1    2    0    0  0.15563869863E+02 -0.62274497470E+02  0.22957012640E+03  0.23837531336E+03  0.00000000000E+00 0.  1.
<mgrwt>
<rscale>  0 0.14807233E+04</rscale>
<asrwt>0</asrwt>
<pdfrwt beam="1">  1        2 0.35831485E+00 0.14807233E+04</pdfrwt>
<pdfrwt beam="2">  1       -2 0.36207314E-01 0.14807233E+04</pdfrwt>
<totfact> 0.30366504E+01</totfact>
</mgrwt>
</event>
<event>
 6    1  0.1568961E-005  0.1081073E+04  0.7818608E-02  0.9223839E-01
          3   -1    0    0  501    0  0.00000000000E+00  0.00000000000E+00  0.60716620943E+03  0.60716620943E+03  0.00000000000E+00 0. -1.
         -3   -1    0    0    0  501 -0.00000000000E+00 -0.00000000000E+00 -0.48121826489E+03  0.48121826489E+03  0.00000000000E+00 0.  1.
         23    2    1    2    0    0  0.81179634014E+01 -0.18216628374E+03 -0.44480097162E+03  0.48921439698E+03  0.90732384502E+02 0.  0.
         13    1    3    3    0    0  0.58412258180E+01 -0.63132056566E+02 -0.63395911146E+02  0.89659455917E+02  0.00000000000E+00 0. -1.
        -13    1    3    3    0    0  0.22767375834E+01 -0.11903422718E+03 -0.38140506048E+03  0.39955494107E+03  0.00000000000E+00 0.  1.
         22    1    1    2    0    0 -0.81179634014E+01  0.18216628374E+03  0.57074891616E+03  0.59917007733E+03  0.00000000000E+00 0. -1.
<mgrwt>
<rscale>  0 0.10810726E+04</rscale>
<asrwt>0</asrwt>
<pdfrwt beam="1">  1        3 0.93410186E-01 0.10810726E+04</pdfrwt>
<pdfrwt beam="2">  1       -3 0.74033579E-01 0.10810726E+04</pdfrwt>
<totfact> 0.46091113E+00</totfact>
</mgrwt>
</event>
<event>
 6    1  0.1568961E-005  0.1657107E+04  0.7818608E-02  0.8786213E-01
         -1   -1    0    0    0  501 -0.00000000000E+00  0.00000000000E+00  0.13314002849E+04  0.13314002849E+04  0.00000000000E+00 0.  1.
          1   -1    0    0  501    0  0.00000000000E+00 -0.00000000000E+00 -0.51562296524E+03  0.51562296524E+03  0.00000000000E+00 0. -1.
         23    2    1    2    0    0 -0.56302249064E+03 -0.78821437225E+01  0.10827820349E+04  0.12238475357E+04  0.91265559814E+02 0.  0.
         11    1    3    3    0    0 -0.18288896160E+03 -0.45120806474E+02  0.34690735003E+03  0.39475178145E+03  0.00000000000E+00 0.  1.
        -11    1    3    3    0    0 -0.38013352903E+03  0.37238662752E+02  0.73587468483E+03  0.82909575423E+03  0.00000000000E+00 0. -1.
         22    1    1    2    0    0  0.56302249064E+03  0.78821437225E+01 -0.26700471521E+03  0.62317571446E+03  0.00000000000E+00 0. -1.
<mgrwt>
<rscale>  0 0.16571066E+04</rscale>
<asrwt>0</asrwt>
<pdfrwt beam="1">  1        1 0.79326611E-01 0.16571066E+04</pdfrwt>
<pdfrwt beam="2">  1       -1 0.20483081E+00 0.16571066E+04</pdfrwt>
<totfact> 0.56538723E+00</totfact>
</mgrwt>
</event>
<event>
 6    1  0.1568961E-005  0.2515076E+04  0.7818608E-02  0.8397634E-01
         -2   -1    0    0    0  501 -0.00000000000E+00  0.00000000000E+00  0.11812974756E+04  0.11812974756E+04  0.00000000000E+00 0.  1.
          2   -1    0    0  501    0  0.00000000000E+00 -0.00000000000E+00 -0.13386993696E+04  0.13386993696E+04  0.00000000000E+00 0. -1.
         23    2    1    2    0    0  0.11216363851E+04 -0.41982810691E+02 -0.64326480849E+03  0.12969295909E+04  0.91684311315E+02 0.  0.
         11    1    3    3    0    0  0.72636744302E+03 -0.69287685513E+02 -0.40291776793E+03  0.83351855010E+03  0.00000000000E+00 0. -1.
        -11    1    3    3    0    0  0.39526894211E+03  0.27304874822E+02 -0.24034704056E+03  0.46341104076E+03  0.00000000000E+00 0.  1.
         22    1    1    2    0    0 -0.11216363851E+04  0.41982810691E+02  0.48586291451E+03  0.12230672543E+04  0.00000000000E+00 0.  1.
<mgrwt>
<rscale>  0 0.25150763E+04</rscale>
<asrwt>0</asrwt>
<pdfrwt beam="1">  1        2 0.20595375E+00 0.25150763E+04</pdfrwt>
<pdfrwt beam="2">  1       -2 0.18173807E+00 0.25150763E+04</pdfrwt>
<totfact> 0.24665115E+00</totfact>
</mgrwt>
</event>
<event>
 6    1  0.1568961E-005  0.1009920E+04  0.7818608E-02  0.9297731E-01
         -2   -1    0    0    0  501 -0.00000000000E+00  0.00000000000E+00  0.12127028438E+03  0.12127028438E+03  0.00000000000E+00 0. -1.
          2   -1    0    0  501    0  0.00000000000E+00 -0.00000000000E+00 -0.21026151406E+04  0.21026151406E+04  0.00000000000E+00 0.  1.
         23    2    1    2    0    0  0.25033611246E+03  0.41995942035E+03 -0.12402477650E+04  0.13360459222E+04  0.88148192988E+02 0.  0.
         11    1    3    3    0    0  0.90246980897E+02  0.23722221317E+03 -0.64235873648E+03  0.69068346029E+03  0.00000000000E+00 0. -1.
        -11    1    3    3    0    0  0.16008913156E+03  0.18273720718E+03 -0.59788902848E+03  0.64536246196E+03  0.00000000000E+00 0.  1.
         22    1    1    2    0    0 -0.25033611246E+03 -0.41995942035E+03 -0.74109709121E+03  0.88783950269E+03  0.00000000000E+00 0. -1.
<mgrwt>
<rscale>  0 0.10099203E+04</rscale>
<asrwt>0</asrwt>
<pdfrwt beam="1">  1        2 0.32347923E+00 0.10099203E+04</pdfrwt>
<pdfrwt beam="2">  1       -2 0.18656968E-01 0.10099203E+04</pdfrwt>
<totfact> 0.14176780E+02</totfact>
</mgrwt>
</event>
<event>
 6    1  0.1568961E-005  0.1177960E+04  0.7818608E-02  0.9132370E-01
         -2   -1    0    0    0  501 -0.00000000000E+00  0.00000000000E+00  0.20707582256E+03  0.20707582256E+03  0.00000000000E+00 0.  1.
          2   -1    0    0  501    0  0.00000000000E+00 -0.00000000000E+00 -0.16752189201E+04  0.16752189201E+04  0.00000000000E+00 0. -1.
         23    2    1    2    0    0  0.25960216563E+03  0.31901207945E+03 -0.72555167541E+02  0.42736255812E+03  0.90622913854E+02 0.  0.
         13    1    3    3    0    0  0.43070223454E+02  0.78592989296E+02  0.17923478085E+02  0.91395586225E+02  0.00000000000E+00 0.  1.
        -13    1    3    3    0    0  0.21653194217E+03  0.24041909016E+03 -0.90478645627E+02  0.33596697190E+03  0.00000000000E+00 0. -1.
         22    1    1    2    0    0 -0.25960216563E+03 -0.31901207945E+03 -0.13955879300E+04  0.14549321846E+04  0.00000000000E+00 0. -1.
<mgrwt>
<rscale>  0 0.11779598E+04</rscale>
<asrwt>0</asrwt>
<pdfrwt beam="1">  1        2 0.25772598E+00 0.11779598E+04</pdfrwt>
<pdfrwt beam="2">  1       -2 0.31857820E-01 0.11779598E+04</pdfrwt>
<totfact> 0.91618809E+01</totfact>
</mgrwt>
</event>
<event>
 6    1  0.1756058E-005  0.2683309E+04  0.7818608E-02  0.8340441E-01
          2   -1    0    0  501    0  0.00000000000E+00  0.00000000000E+00  0.17743283058E+04  0.17743283058E+04  0.00000000000E+00 0. -1.
         -2   -1    0    0    0  501 -0.00000000000E+00 -0.00000000000E+00 -0.10144893553E+04  0.10144893553E+04  0.00000000000E+00 0.  1.
         23    2    1    2    0    0 -0.29130276812E+03  0.12958247023E+04  0.56485740416E+03  0.14464180317E+04  0.95090870983E+02 0.  0.
         13    1    3    3    0    0 -0.23016512460E+03  0.94071906271E+03  0.36969852363E+03  0.10366317272E+04  0.00000000000E+00 0. -1.
        -13    1    3    3    0    0 -0.61137643517E+02  0.35510563954E+03  0.19515888053E+03  0.40978630447E+03  0.00000000000E+00 0.  1.
         22    1    1    2    0    0  0.29130276812E+03 -0.12958247023E+04  0.19498154639E+03  0.13423996294E+04  0.00000000000E+00 0.  1.
<mgrwt>
<rscale>  0 0.26833093E+04</rscale>
<asrwt>0</asrwt>
<pdfrwt beam="1">  1        2 0.27297359E+00 0.26833093E+04</pdfrwt>
<pdfrwt beam="2">  1       -2 0.15607529E+00 0.26833093E+04</pdfrwt>
<totfact> 0.21110289E+00</totfact>
</mgrwt>
</event>
<event>
 6    1  0.1568961E-005  0.2015232E+04  0.7818608E-02  0.8599532E-01
         -1   -1    0    0    0  501 -0.00000000000E+00  0.00000000000E+00  0.37317120196E+03  0.37317120196E+03  0.00000000000E+00 0.  1.
          1   -1    0    0  501    0  0.00000000000E+00 -0.00000000000E+00 -0.27207096319E+04  0.27207096319E+04  0.00000000000E+00 0. -1.
         23    2    1    2    0    0 -0.58047753246E+03  0.81864628540E+03 -0.10823962697E+04  0.14790370049E+04  0.93983354602E+02 0.  0.
         13    1    3    3    0    0 -0.23011177276E+03  0.34056529878E+03 -0.37760127123E+03  0.55813875580E+03  0.00000000000E+00 0. -1.
        -13    1    3    3    0    0 -0.35036575970E+03  0.47808098662E+03 -0.70479499848E+03  0.92089824911E+03  0.00000000000E+00 0.  1.
         22    1    1    2    0    0  0.58047753246E+03 -0.81864628540E+03 -0.12651421603E+04  0.16148438290E+04  0.00000000000E+00 0. -1.
<mgrwt>
<rscale>  0 0.20152325E+04</rscale>
<asrwt>0</asrwt>
<pdfrwt beam="1">  1        1 0.41857072E+00 0.20152325E+04</pdfrwt>
<pdfrwt beam="2">  1       -1 0.57410953E-01 0.20152325E+04</pdfrwt>
<totfact> 0.27034731E+00</totfact>
</mgrwt>
</event>
<event>
 6    1  0.1568961E-005  0.2460078E+04  0.7818608E-02  0.8417348E-01
         -2   -1    0    0    0  501 -0.00000000000E+00  0.00000000000E+00  0.99958509539E+03  0.99958509539E+03  0.00000000000E+00 0.  1.
          2   -1    0    0  501    0  0.00000000000E+00 -0.00000000000E+00 -0.15136238286E+04  0.15136238286E+04  0.00000000000E+00 0. -1.
         23    2    1    2    0    0  0.10411263177E+03  0.63973373401E+03  0.80850306459E+03  0.10403832393E+04  0.92851433070E+02 0.  0.
         13    1    3    3    0    0  0.68685861838E+02  0.32146421291E+03  0.34029421748E+03  0.47313543753E+03  0.00000000000E+00 0. -1.
        -13    1    3    3    0    0  0.35426769933E+02  0.31826952111E+03  0.46820884712E+03  0.56724780177E+03  0.00000000000E+00 0.  1.
         22    1    1    2    0    0 -0.10411263177E+03 -0.63973373401E+03 -0.13225417978E+04  0.14728256847E+04  0.00000000000E+00 0. -1.
<mgrwt>
<rscale>  0 0.24600779E+04</rscale>
<asrwt>0</asrwt>
<pdfrwt beam="1">  1        2 0.23286520E+00 0.24600779E+04</pdfrwt>
<pdfrwt beam="2">  1       -2 0.15378232E+00 0.24600779E+04</pdfrwt>
<totfact> 0.31293592E+00</totfact>
</mgrwt>
</event>
<event>
 6    1  0.1568961E-005  0.1754653E+04  0.7818608E-02  0.8730793E-01
          2   -1    0    0  501    0  0.00000000000E+00  0.00000000000E+00  0.28752957821E+03  0.28752957821E+03  0.00000000000E+00 0. -1.
         -2   -1    0    0    0  501 -0.00000000000E+00 -0.00000000000E+00 -0.26769471927E+04  0.26769471927E+04  0.00000000000E+00 0.  1.
         23    2    1    2    0    0 -0.43947371245E+03  0.44884516672E+03 -0.22268805956E+04  0.23156182269E+04  0.92149108266E+02 0.  0.
         11    1    3    3    0    0 -0.45661819262E+02  0.13003392297E+02 -0.17012245247E+03  0.17662315472E+03  0.00000000000E+00 0. -1.
        -11    1    3    3    0    0 -0.39381189318E+03  0.43584177443E+03 -0.20567581431E+04  0.21389950722E+04  0.00000000000E+00 0.  1.
         22    1    1    2    0    0  0.43947371245E+03 -0.44884516672E+03 -0.16253701890E+03  0.64885854401E+03  0.00000000000E+00 0. -1.
<mgrwt>
<rscale>  0 0.17546527E+04</rscale>
<asrwt>0</asrwt>
<pdfrwt beam="1">  1        2 0.44235317E-01 0.17546527E+04</pdfrwt>
<pdfrwt beam="2">  1       -2 0.41183806E+00 0.17546527E+04</pdfrwt>
<totfact> 0.68056637E-01</totfact>
</mgrwt>
</event>
<event>
 6    1  0.1568961E-005  0.3060174E+04  0.7818608E-02  0.8226754E-01
         -3   -1    0    0    0  501 -0.00000000000E+00  0.00000000000E+00  0.30527334485E+04  0.30527334485E+04  0.00000000000E+00 0.  1.
          3   -1    0    0  501    0  0.00000000000E+00 -0.00000000000E+00 -0.76690823804E+03  0.76690823804E+03  0.00000000000E+00 0. -1.
         23    2    1    2    0    0 -0.31657449470E+03  0.14039173668E+04  0.17861187263E+04  0.22961883877E+04  0.10515523727E+03 0.  0.
         13    1    3    3    0    0 -0.24466284881E+03  0.94478690103E+03  0.11480285803E+04  0.15068018513E+04  0.00000000000E+00 0.  1.
        -13    1    3    3    0    0 -0.71911645885E+02  0.45913046576E+03  0.63809014609E+03  0.78938653646E+03  0.00000000000E+00 0. -1.
         22    1    1    2    0    0  0.31657449470E+03 -0.14039173668E+04  0.49970648416E+03  0.15234532988E+04  0.00000000000E+00 0.  1.
<mgrwt>
<rscale>  0 0.30601741E+04</rscale>
<asrwt>0</asrwt>
<pdfrwt beam="1">  1        3 0.11798588E+00 0.30601741E+04</pdfrwt>
<pdfrwt beam="2">  1       -3 0.46965129E+00 0.30601741E+04</pdfrwt>
<totfact> 0.57492880E-03</totfact>
</mgrwt>
</event>
<event>
 6    1  0.1568961E-005  0.4710196E+04  0.7818608E-02  0.7874837E-01
         -2   -1    0    0    0  501 -0.00000000000E+00  0.00000000000E+00  0.17230027897E+04  0.17230027897E+04  0.00000000000E+00 0.  1.
          2   -1    0    0  501    0  0.00000000000E+00 -0.00000000000E+00 -0.32190812594E+04  0.32190812594E+04  0.00000000000E+00 0. -1.
         23    2    1    2    0    0  0.99316511471E+03  0.11605041000E+04 -0.26279456819E+04  0.30409606714E+04  0.90535004063E+02 0.  0.
         13    1    3    3    0    0  0.30784174643E+03  0.37982846774E+03 -0.76268807184E+03  0.90594111325E+03  0.00000000000E+00 0.  1.
        -13    1    3    3    0    0  0.68532336828E+03  0.78067563229E+03 -0.18652576100E+04  0.21350195582E+04  0.00000000000E+00 0. -1.
         22    1    1    2    0    0 -0.99316511471E+03 -0.11605041000E+04  0.11318672122E+04  0.19011233777E+04  0.00000000000E+00 0.  1.
<mgrwt>
<rscale>  0 0.47101957E+04</rscale>
<asrwt>0</asrwt>
<pdfrwt beam="1">  1        2 0.49524327E+00 0.47101957E+04</pdfrwt>
<pdfrwt beam="2">  1       -2 0.26507735E+00 0.47101957E+04</pdfrwt>
<totfact> 0.48707333E-02</totfact>
</mgrwt>
</event>
<event>
 6    1  0.1568961E-005  0.3837648E+04  0.7818608E-02  0.8038124E-01
         -1   -1    0    0    0  501 -0.00000000000E+00  0.00000000000E+00  0.12987522320E+04  0.12987522320E+04  0.00000000000E+00 0.  1.
          1   -1    0    0  501    0  0.00000000000E+00 -0.00000000000E+00 -0.28349401011E+04  0.28349401011E+04  0.00000000000E+00 0. -1.
         23    2    1    2    0    0 -0.57828504216E+03 -0.66380447686E+03  0.10666607665E+04  0.13859894755E+04  0.90286554521E+02 0.  0.
         11    1    3    3    0    0 -0.57243521056E+02 -0.30407854968E+02  0.77920003890E+02  0.10135573666E+03  0.00000000000E+00 0.  1.
        -11    1    3    3    0    0 -0.52104152110E+03 -0.63339662189E+03  0.98874076262E+03  0.12846337389E+04  0.00000000000E+00 0. -1.
         22    1    1    2    0    0  0.57828504216E+03  0.66380447686E+03 -0.26028486356E+04  0.27477028576E+04  0.00000000000E+00 0. -1.
<mgrwt>
<rscale>  0 0.38376476E+04</rscale>
<asrwt>0</asrwt>
<pdfrwt beam="1">  1        1 0.43614463E+00 0.38376476E+04</pdfrwt>
<pdfrwt beam="2">  1       -1 0.19980804E+00 0.38376476E+04</pdfrwt>
<totfact> 0.94180195E-02</totfact>
</mgrwt>
</event>
<event>
 6    1  0.1568961E-005  0.3322369E+04  0.7818608E-02  0.8157227E-01
          1   -1    0    0  501    0  0.00000000000E+00  0.00000000000E+00  0.22446958807E+04  0.22446958807E+04  0.00000000000E+00 0. -1.
         -1   -1    0    0    0  501 -0.00000000000E+00 -0.00000000000E+00 -0.12293578523E+04  0.12293578523E+04  0.00000000000E+00 0.  1.
         23    2    1    2    0    0  0.83521514697E+03  0.33814397510E+03 -0.94964950671E+03  0.13123179251E+04  0.91752173962E+02 0.  0.
         13    1    3    3    0    0  0.39176380572E+03  0.19420287233E+03 -0.50581139879E+03  0.66860960675E+03  0.00000000000E+00 0.  1.
        -13    1    3    3    0    0  0.44345134125E+03  0.14394110277E+03 -0.44383810793E+03  0.64370831839E+03  0.00000000000E+00 0. -1.
         22    1    1    2    0    0 -0.83521514697E+03 -0.33814397510E+03  0.19649875352E+04  0.21617358079E+04  0.00000000000E+00 0. -1.
<mgrwt>
<rscale>  0 0.33223693E+04</rscale>
<asrwt>0</asrwt>
<pdfrwt beam="1">  1        1 0.34533783E+00 0.33223693E+04</pdfrwt>
<pdfrwt beam="2">  1       -1 0.18913198E+00 0.33223693E+04</pdfrwt>
<totfact> 0.30131669E-01</totfact>
</mgrwt>
</event>
<event>
 6    1  0.1568961E-005  0.2088440E+04  0.7818608E-02  0.8566353E-01
          1   -1    0    0  501    0  0.00000000000E+00  0.00000000000E+00  0.10613635079E+04  0.10613635079E+04  0.00000000000E+00 0. -1.
         -1   -1    0    0    0  501 -0.00000000000E+00 -0.00000000000E+00 -0.10273537074E+04  0.10273537074E+04  0.00000000000E+00 0.  1.
         23    2    1    2    0    0  0.50896737022E+03  0.88009716966E+03  0.24695327966E+03  0.10499854225E+04  0.88682879988E+02 0.  0.
         13    1    3    3    0    0  0.23745838749E+03  0.38007396607E+03  0.66423890524E+02  0.45305059177E+03  0.00000000000E+00 0.  1.
        -13    1    3    3    0    0  0.27150898273E+03  0.50002320360E+03  0.18052938914E+03  0.59693483076E+03  0.00000000000E+00 0. -1.
         22    1    1    2    0    0 -0.50896737022E+03 -0.88009716966E+03 -0.21294347908E+03  0.10387317928E+04  0.00000000000E+00 0. -1.
<mgrwt>
<rscale>  0 0.20884403E+04</rscale>
<asrwt>0</asrwt>
<pdfrwt beam="1">  1        1 0.16328669E+00 0.20884403E+04</pdfrwt>
<pdfrwt beam="2">  1       -1 0.15805442E+00 0.20884403E+04</pdfrwt>
<totfact> 0.37761426E+00</totfact>
</mgrwt>
</event>
<event>
 6    1  0.1568961E-005  0.3823043E+03  0.7818608E-02  0.1050085E+00
          1   -1    0    0  501    0  0.00000000000E+00  0.00000000000E+00  0.10997695443E+03  0.10997695443E+03  0.00000000000E+00 0. -1.
         -1   -1    0    0    0  501 -0.00000000000E+00 -0.00000000000E+00 -0.33224368627E+03  0.33224368627E+03  0.00000000000E+00 0.  1.
         23    2    1    2    0    0 -0.10073959340E+03 -0.91945011871E+02 -0.25274071894E+03  0.30246723367E+03  0.94901030268E+02 0.  0.
         11    1    3    3    0    0 -0.90463333551E+02 -0.29748415831E+02 -0.19486428009E+03  0.21688861338E+03  0.00000000000E+00 0. -1.
        -11    1    3    3    0    0 -0.10276259851E+02 -0.62196596040E+02 -0.57876438850E+02  0.85578620282E+02  0.00000000000E+00 0.  1.
         22    1    1    2    0    0  0.10073959340E+03  0.91945011871E+02  0.30473987103E+02  0.13975340703E+03  0.00000000000E+00 0. -1.
<mgrwt>
<rscale>  0 0.38230432E+03</rscale>
<asrwt>0</asrwt>
<pdfrwt beam="1">  1        1 0.16919532E-01 0.38230432E+03</pdfrwt>
<pdfrwt beam="2">  1       -1 0.51114413E-01 0.38230432E+03</pdfrwt>
<totfact> 0.12586026E+03</totfact>
</mgrwt>
</event>
<event>
 6    1  0.1568961E-005  0.1563781E+04  0.7818608E-02  0.8843113E-01
          2   -1    0    0  501    0  0.00000000000E+00  0.00000000000E+00  0.14227987715E+04  0.14227987715E+04  0.00000000000E+00 0. -1.
         -2   -1    0    0    0  501 -0.00000000000E+00 -0.00000000000E+00 -0.42968294525E+03  0.42968294525E+03  0.00000000000E+00 0.  1.
         23    2    1    2    0    0 -0.47959991368E+03  0.25325653723E+03  0.11610784378E+04  0.12847085317E+04  0.90652753932E+02 0.  0.
         11    1    3    3    0    0 -0.55970877050E+02  0.62715051358E+02  0.14775748554E+03  0.16999468015E+03  0.00000000000E+00 0.  1.
        -11    1    3    3    0    0 -0.42362903663E+03  0.19054148587E+03  0.10133209522E+04  0.11147138515E+04  0.00000000000E+00 0. -1.
         22    1    1    2    0    0  0.47959991368E+03 -0.25325653723E+03 -0.16796261152E+03  0.56777318510E+03  0.00000000000E+00 0.  1.
<mgrwt>
<rscale>  0 0.15637805E+04</rscale>
<asrwt>0</asrwt>
<pdfrwt beam="1">  1        2 0.21889212E+00 0.15637805E+04</pdfrwt>
<pdfrwt beam="2">  1       -2 0.66105069E-01 0.15637805E+04</pdfrwt>
<totfact> 0.28424732E+01</totfact>
</mgrwt>
</event>
<event>
 6    1  0.1568961E-005  0.2302582E+04  0.7818608E-02  0.8476904E-01
          3   -1    0    0  501    0  0.00000000000E+00  0.00000000000E+00  0.13619859879E+04  0.13619859879E+04  0.00000000000E+00 0.  1.
         -3   -1    0    0    0  501 -0.00000000000E+00 -0.00000000000E+00 -0.97319007252E+03  0.97319007252E+03  0.00000000000E+00 0. -1.
         23    2    1    2    0    0 -0.11127724572E+04 -0.27328871996E+03  0.28753504639E+03  0.11848704360E+04  0.91061963782E+02 0.  0.
         13    1    3    3    0    0 -0.47123470894E+03 -0.69544362611E+02  0.11924055611E+03  0.49103653581E+03  0.00000000000E+00 0. -1.
        -13    1    3    3    0    0 -0.64153774825E+03 -0.20374435734E+03  0.16829449028E+03  0.69383390018E+03  0.00000000000E+00 0.  1.
         22    1    1    2    0    0  0.11127724572E+04  0.27328871996E+03  0.10126086894E+03  0.11503056244E+04  0.00000000000E+00 0. -1.
<mgrwt>
<rscale>  0 0.23025822E+04</rscale>
<asrwt>0</asrwt>
<pdfrwt beam="1">  1        3 0.20953631E+00 0.23025822E+04</pdfrwt>
<pdfrwt beam="2">  1       -3 0.14972155E+00 0.23025822E+04</pdfrwt>
<totfact> 0.98410119E-02</totfact>
</mgrwt>
</event>
<event>
 6    1  0.1568961E-005  0.1207197E+04  0.7818608E-02  0.9106580E-01
          1   -1    0    0  501    0  0.00000000000E+00  0.00000000000E+00  0.34893361557E+03  0.34893361557E+03  0.00000000000E+00 0. -1.
         -1   -1    0    0    0  501 -0.00000000000E+00 -0.00000000000E+00 -0.10441275677E+04  0.10441275677E+04  0.00000000000E+00 0.  1.
         23    2    1    2    0    0 -0.19856520588E+03  0.92572248718E+02  0.29530417687E+03  0.37862325723E+03  0.90295358791E+02 0.  0.
         13    1    3    3    0    0 -0.17539341275E+03  0.10264563364E+03  0.28770192992E+03  0.35223766952E+03  0.00000000000E+00 0.  1.
        -13    1    3    3    0    0 -0.23171793126E+02 -0.10073384924E+02  0.76022469504E+01  0.26385587718E+02  0.00000000000E+00 0. -1.
         22    1    1    2    0    0  0.19856520588E+03 -0.92572248718E+02 -0.99049812904E+03  0.10144379261E+04  0.00000000000E+00 0.  1.
<mgrwt>
<rscale>  0 0.12071971E+04</rscale>
<asrwt>0</asrwt>
<pdfrwt beam="1">  1        1 0.53682095E-01 0.12071971E+04</pdfrwt>
<pdfrwt beam="2">  1       -1 0.16063501E+00 0.12071971E+04</pdfrwt>
<totfact> 0.20558863E+01</totfact>
</mgrwt>
</event>
<event>
 6    1  0.1568961E-005  0.7708818E+04  0.7818608E-02  0.7508447E-01
          2   -1    0    0  501    0  0.00000000000E+00  0.00000000000E+00  0.39553243880E+04  0.39553243880E+04  0.00000000000E+00 0. -1.
         -2   -1    0    0    0  501 -0.00000000000E+00 -0.00000000000E+00 -0.37560686448E+04  0.37560686448E+04  0.00000000000E+00 0.  1.
         23    2    1    2    0    0  0.59254609658E+03  0.18458156872E+04 -0.32322606917E+04  0.37701430445E+04  0.91230311854E+02 0.  0.
         13    1    3    3    0    0  0.14049504471E+03  0.52504716438E+03 -0.96705395447E+03  0.11093271534E+04  0.00000000000E+00 0. -1.
        -13    1    3    3    0    0  0.45205105187E+03  0.13207685228E+04 -0.22652067372E+04  0.26608158912E+04  0.00000000000E+00 0.  1.
         22    1    1    2    0    0 -0.59254609658E+03 -0.18458156872E+04  0.34315164349E+04  0.39412499883E+04  0.00000000000E+00 0. -1.
<mgrwt>
<rscale>  0 0.77088183E+04</rscale>
<asrwt>0</asrwt>
<pdfrwt beam="1">  1        2 0.60851145E+00 0.77088183E+04</pdfrwt>
<pdfrwt beam="2">  1       -2 0.57785671E+00 0.77088183E+04</pdfrwt>
<totfact> 0.14181704E-04</totfact>
</mgrwt>
</event>
<event>
 6    1  0.1568961E-005  0.3544704E+04  0.7818608E-02  0.8103277E-01
         -1   -1    0    0    0  501 -0.00000000000E+00  0.00000000000E+00  0.10419615427E+04  0.10419615427E+04  0.00000000000E+00 0.  1.
          1   -1    0    0  501    0  0.00000000000E+00 -0.00000000000E+00 -0.30147288714E+04  0.30147288714E+04  0.00000000000E+00 0. -1.
         23    2    1    2    0    0  0.15027274534E+04 -0.93742406874E+03 -0.96922339814E+03  0.20209954212E+04  0.89859964674E+02 0.  0.
         11    1    3    3    0    0  0.49353653998E+03 -0.27264853587E+03 -0.34195636336E+03  0.65943134203E+03  0.00000000000E+00 0.  1.
        -11    1    3    3    0    0  0.10091909134E+04 -0.66477553287E+03 -0.62726703478E+03  0.13615640792E+04  0.00000000000E+00 0. -1.
         22    1    1    2    0    0 -0.15027274534E+04  0.93742406874E+03 -0.10035439306E+04  0.20356949929E+04  0.00000000000E+00 0. -1.
<mgrwt>
<rscale>  0 0.35447040E+04</rscale>
<asrwt>0</asrwt>
<pdfrwt beam="1">  1        1 0.46380444E+00 0.35447040E+04</pdfrwt>
<pdfrwt beam="2">  1       -1 0.16030177E+00 0.35447040E+04</pdfrwt>
<totfact> 0.13767355E-01</totfact>
</mgrwt>
</event>
<event>
 6    1  0.1568961E-005  0.1727099E+04  0.7818608E-02  0.8746058E-01
         -1   -1    0    0    0  501 -0.00000000000E+00  0.00000000000E+00  0.54223619890E+03  0.54223619890E+03  0.00000000000E+00 0.  1.
          1   -1    0    0  501    0  0.00000000000E+00 -0.00000000000E+00 -0.13752630481E+04  0.13752630481E+04  0.00000000000E+00 0. -1.
         23    2    1    2    0    0  0.15994161934E+03 -0.36818604836E+02 -0.13561455324E+04  0.13692382800E+04  0.93519148473E+02 0.  0.
         11    1    3    3    0    0  0.57295188760E+02 -0.26286123700E+02 -0.86905821294E+03  0.87134142357E+03  0.00000000000E+00 0. -1.
        -11    1    3    3    0    0  0.10264643058E+03 -0.10532481136E+02 -0.48708731945E+03  0.49789685643E+03  0.00000000000E+00 0.  1.
         22    1    1    2    0    0 -0.15994161934E+03  0.36818604836E+02  0.52311868318E+03  0.54826096701E+03  0.00000000000E+00 0.  1.
<mgrwt>
<rscale>  0 0.17270986E+04</rscale>
<asrwt>0</asrwt>
<pdfrwt beam="1">  1        1 0.21157893E+00 0.17270986E+04</pdfrwt>
<pdfrwt beam="2">  1       -1 0.83420954E-01 0.17270986E+04</pdfrwt>
<totfact> 0.10826710E+01</totfact>
</mgrwt>
</event>
<event>
 6    1  0.1568961E-005  0.2498463E+04  0.7818608E-02  0.8403533E-01
          2   -1    0    0  501    0  0.00000000000E+00  0.00000000000E+00  0.11979689916E+04  0.11979689916E+04  0.00000000000E+00 0. -1.
         -2   -1    0    0    0  501 -0.00000000000E+00 -0.00000000000E+00 -0.13026880206E+04  0.13026880206E+04  0.00000000000E+00 0.  1.
         23    2    1    2    0    0  0.40780001898E+03  0.85862091460E+03  0.75623838383E+03  0.12181678711E+04  0.92226560854E+02 0.  0.
         11    1    3    3    0    0  0.15107943516E+03  0.38348812667E+03  0.28162420220E+03  0.49919968979E+03  0.00000000000E+00 0. -1.
        -11    1    3    3    0    0  0.25672058382E+03  0.47513278794E+03  0.47461418163E+03  0.71896818131E+03  0.00000000000E+00 0.  1.
         22    1    1    2    0    0 -0.40780001898E+03 -0.85862091460E+03 -0.86095741280E+03  0.12824891411E+04  0.00000000000E+00 0.  1.
<mgrwt>
<rscale>  0 0.24984634E+04</rscale>
<asrwt>0</asrwt>
<pdfrwt beam="1">  1        2 0.18430292E+00 0.24984634E+04</pdfrwt>
<pdfrwt beam="2">  1       -2 0.20041354E+00 0.24984634E+04</pdfrwt>
<totfact> 0.22392221E+00</totfact>
</mgrwt>
</event>
<event>
 6    1  0.1568961E-005  0.1633078E+04  0.7818608E-02  0.8800481E-01
         -1   -1    0    0    0  501 -0.00000000000E+00  0.00000000000E+00  0.43612013344E+03  0.43612013344E+03  0.00000000000E+00 0.  1.
          1   -1    0    0  501    0  0.00000000000E+00 -0.00000000000E+00 -0.15287899522E+04  0.15287899522E+04  0.00000000000E+00 0. -1.
         23    2    1    2    0    0 -0.71994569437E+03  0.39875198287E+02 -0.93819163213E+02  0.73299512657E+03  0.92563415631E+02 0.  0.
         13    1    3    3    0    0 -0.49639147302E+03  0.54066350370E+02 -0.98463684172E+02  0.50894278837E+03  0.00000000000E+00 0. -1.
        -13    1    3    3    0    0 -0.22355422135E+03 -0.14191152084E+02  0.46445209591E+01  0.22405233821E+03  0.00000000000E+00 0.  1.
         22    1    1    2    0    0  0.71994569437E+03 -0.39875198287E+02 -0.99885065550E+03  0.12319149590E+04  0.00000000000E+00 0. -1.
<mgrwt>
<rscale>  0 0.16330782E+04</rscale>
<asrwt>0</asrwt>
<pdfrwt beam="1">  1        1 0.23519845E+00 0.16330782E+04</pdfrwt>
<pdfrwt beam="2">  1       -1 0.67095406E-01 0.16330782E+04</pdfrwt>
<totfact> 0.13452773E+01</totfact>
</mgrwt>
</event>
<event>
 6    1  0.1568961E-005  0.1738943E+04  0.7818608E-02  0.8739460E-01
          2   -1    0    0  501    0  0.00000000000E+00  0.00000000000E+00  0.45397686632E+03  0.45397686632E+03  0.00000000000E+00 0. -1.
         -2   -1    0    0    0  501 -0.00000000000E+00 -0.00000000000E+00 -0.16652400627E+04  0.16652400627E+04  0.00000000000E+00 0.  1.
         23    2    1    2    0    0 -0.86550292059E+03  0.18384152869E+02 -0.54457734299E+03  0.10265581032E+04  0.88452100152E+02 0.  0.
         11    1    3    3    0    0 -0.62190467917E+03  0.40352401995E+02 -0.42477574755E+03  0.75420698884E+03  0.00000000000E+00 0.  1.
        -11    1    3    3    0    0 -0.24359824143E+03 -0.21968249126E+02 -0.11980159545E+03  0.27235111431E+03  0.00000000000E+00 0. -1.
         22    1    1    2    0    0  0.86550292059E+03 -0.18384152869E+02 -0.66668585339E+03  0.10926588259E+04  0.00000000000E+00 0.  1.
<mgrwt>
<rscale>  0 0.17389427E+04</rscale>
<asrwt>0</asrwt>
<pdfrwt beam="1">  1        2 0.69842596E-01 0.17389427E+04</pdfrwt>
<pdfrwt beam="2">  1       -2 0.25619078E+00 0.17389427E+04</pdfrwt>
<totfact> 0.38460759E+00</totfact>
</mgrwt>
</event>
<event>
 6    1  0.1568961E-005  0.2956296E+04  0.7818608E-02  0.8256322E-01
         -2   -1    0    0    0  501 -0.00000000000E+00  0.00000000000E+00  0.79726873859E+03  0.79726873859E+03  0.00000000000E+00 0.  1.
          2   -1    0    0  501    0  0.00000000000E+00 -0.00000000000E+00 -0.27405076571E+04  0.27405076571E+04  0.00000000000E+00 0. -1.
         23    2    1    2    0    0 -0.29227065334E+02  0.81960496852E+03  0.49705575913E+03  0.96335517152E+03  0.91554535787E+02 0.  0.
         13    1    3    3    0    0 -0.32793998875E+02  0.12757982668E+03  0.59062917528E+02  0.14436234538E+03  0.00000000000E+00 0. -1.
        -13    1    3    3    0    0  0.35669335414E+01  0.69202514185E+03  0.43799284160E+03  0.81899282614E+03  0.00000000000E+00 0.  1.
         22    1    1    2    0    0  0.29227065334E+02 -0.81960496852E+03 -0.24402946776E+04  0.25744212241E+04  0.00000000000E+00 0. -1.
<mgrwt>
<rscale>  0 0.29562957E+04</rscale>
<asrwt>0</asrwt>
<pdfrwt beam="1">  1        2 0.42161657E+00 0.29562957E+04</pdfrwt>
<pdfrwt beam="2">  1       -2 0.12265673E+00 0.29562957E+04</pdfrwt>
<totfact> 0.10843372E+00</totfact>
</mgrwt>
</event>
<event>
 6    1  0.1568961E-005  0.2322004E+04  0.7818608E-02  0.8469295E-01
          3   -1    0    0  501    0  0.00000000000E+00  0.00000000000E+00  0.98265185438E+03  0.98265185438E+03  0.00000000000E+00 0. -1.
         -3   -1    0    0    0  501 -0.00000000000E+00 -0.00000000000E+00 -0.13717228100E+04  0.13717228100E+04  0.00000000000E+00 0.  1.
         23    2    1    2    0    0  0.12092262918E+03  0.91860811056E+03  0.51135084510E+03  0.10623907007E+04  0.93440736332E+02 0.  0.
         11    1    3    3    0    0  0.11380355316E+03  0.58899615145E+03  0.36001416444E+03  0.69962698185E+03  0.00000000000E+00 0. -1.
        -11    1    3    3    0    0  0.71190760164E+01  0.32961195911E+03  0.15133668066E+03  0.36276371890E+03  0.00000000000E+00 0.  1.
         22    1    1    2    0    0 -0.12092262918E+03 -0.91860811056E+03 -0.90042180069E+03  0.12919839636E+04  0.00000000000E+00 0.  1.
<mgrwt>
<rscale>  0 0.23220043E+04</rscale>
<asrwt>0</asrwt>
<pdfrwt beam="1">  1        3 0.15117721E+00 0.23220043E+04</pdfrwt>
<pdfrwt beam="2">  1       -3 0.21103428E+00 0.23220043E+04</pdfrwt>
<totfact> 0.93455266E-02</totfact>
</mgrwt>
</event>
<event>
 6    1  0.1568961E-005  0.1867081E+04  0.7818608E-02  0.8671418E-01
         -2   -1    0    0    0  501 -0.00000000000E+00  0.00000000000E+00  0.66818801574E+03  0.66818801574E+03  0.00000000000E+00 0.  1.
          2   -1    0    0  501    0  0.00000000000E+00 -0.00000000000E+00 -0.13042700514E+04  0.13042700514E+04  0.00000000000E+00 0. -1.
         23    2    1    2    0    0  0.72619014252E+03 -0.31643293243E+03  0.19926723844E+03  0.82124551788E+03  0.85175375019E+02 0.  0.
         11    1    3    3    0    0  0.23496202064E+03 -0.10282411547E+03  0.10603324688E+03  0.27753017730E+03  0.00000000000E+00 0.  1.
        -11    1    3    3    0    0  0.49122812188E+03 -0.21360881696E+03  0.93233991555E+02  0.54371534059E+03  0.00000000000E+00 0. -1.
         22    1    1    2    0    0 -0.72619014252E+03  0.31643293243E+03 -0.83534927406E+03  0.11512125492E+04  0.00000000000E+00 0. -1.
<mgrwt>
<rscale>  0 0.18670807E+04</rscale>
<asrwt>0</asrwt>
<pdfrwt beam="1">  1        2 0.20065693E+00 0.18670807E+04</pdfrwt>
<pdfrwt beam="2">  1       -2 0.10279816E+00 0.18670807E+04</pdfrwt>
<totfact> 0.11939108E+01</totfact>
</mgrwt>
</event>
<event>
 6    1  0.1568961E-005  0.1849883E+04  0.7818608E-02  0.8680213E-01
         -2   -1    0    0    0  501 -0.00000000000E+00  0.00000000000E+00  0.12201966497E+04  0.12201966497E+04  0.00000000000E+00 0. -1.
          2   -1    0    0  501    0  0.00000000000E+00 -0.00000000000E+00 -0.70113039279E+03  0.70113039279E+03  0.00000000000E+00 0.  1.
         23    2    1    2    0    0  0.18427606878E+02 -0.35508805072E+03 -0.62423949253E+03  0.72400706139E+03  0.89912070693E+02 0.  0.
         11    1    3    3    0    0 -0.21194155941E+02 -0.25618560641E+02 -0.79171138656E+02  0.85869506179E+02  0.00000000000E+00 0.  1.
        -11    1    3    3    0    0  0.39621762819E+02 -0.32946949008E+03 -0.54506835387E+03  0.63813755521E+03  0.00000000000E+00 0. -1.
         22    1    1    2    0    0 -0.18427606878E+02  0.35508805072E+03  0.11433057494E+04  0.11973199811E+04  0.00000000000E+00 0. -1.
<mgrwt>
<rscale>  0 0.18498832E+04</rscale>
<asrwt>0</asrwt>
<pdfrwt beam="1">  1        2 0.10786621E+00 0.18498832E+04</pdfrwt>
<pdfrwt beam="2">  1       -2 0.18772256E+00 0.18498832E+04</pdfrwt>
<totfact> 0.61694972E+00</totfact>
</mgrwt>
</event>
<event>
 6    1  0.1568961E-005  0.4263481E+04  0.7818608E-02  0.7953405E-01
          2   -1    0    0  501    0  0.00000000000E+00  0.00000000000E+00  0.28240823131E+04  0.28240823131E+04  0.00000000000E+00 0. -1.
         -2   -1    0    0    0  501 -0.00000000000E+00 -0.00000000000E+00 -0.16091307827E+04  0.16091307827E+04  0.00000000000E+00 0.  1.
         23    2    1    2    0    0 -0.62410586317E+03  0.71213679339E+03 -0.13770118577E+04  0.16736984382E+04  0.91966650297E+02 0.  0.
         11    1    3    3    0    0 -0.33821972994E+03  0.45370147061E+03 -0.83055819914E+03  0.10050196676E+04  0.00000000000E+00 0.  1.
        -11    1    3    3    0    0 -0.28588613323E+03  0.25843532278E+03 -0.54645365854E+03  0.66867877054E+03  0.00000000000E+00 0. -1.
         22    1    1    2    0    0  0.62410586317E+03 -0.71213679339E+03  0.25919633881E+04  0.27595146577E+04  0.00000000000E+00 0. -1.
<mgrwt>
<rscale>  0 0.42634811E+04</rscale>
<asrwt>0</asrwt>
<pdfrwt beam="1">  1        2 0.43447420E+00 0.42634811E+04</pdfrwt>
<pdfrwt beam="2">  1       -2 0.24755858E+00 0.42634811E+04</pdfrwt>
<totfact> 0.11484543E-01</totfact>
</mgrwt>
</event>
<event>
 6    1  0.1568961E-005  0.4063493E+04  0.7818608E-02  0.7991859E-01
          1   -1    0    0  501    0  0.00000000000E+00  0.00000000000E+00  0.28850340342E+04  0.28850340342E+04  0.00000000000E+00 0. -1.
         -1   -1    0    0    0  501 -0.00000000000E+00 -0.00000000000E+00 -0.14308303931E+04  0.14308303931E+04  0.00000000000E+00 0.  1.
         23    2    1    2    0    0  0.89653204440E+03 -0.13524268030E+04 -0.56927823207E+03  0.17221591906E+04  0.94480729033E+02 0.  0.
         11    1    3    3    0    0  0.10286412708E+03 -0.15765812401E+03 -0.34678745780E+02  0.19141506762E+03  0.00000000000E+00 0. -1.
        -11    1    3    3    0    0  0.79366791732E+03 -0.11947686790E+04 -0.53459948629E+03  0.15307441230E+04  0.00000000000E+00 0.  1.
         22    1    1    2    0    0 -0.89653204440E+03  0.13524268030E+04  0.20234818731E+04  0.25937052367E+04  0.00000000000E+00 0. -1.
<mgrwt>
<rscale>  0 0.40634933E+04</rscale>
<asrwt>0</asrwt>
<pdfrwt beam="1">  1        1 0.44385139E+00 0.40634933E+04</pdfrwt>
<pdfrwt beam="2">  1       -1 0.22012775E+00 0.40634933E+04</pdfrwt>
<totfact> 0.61916396E-02</totfact>
</mgrwt>
</event>
<event>
 6    1  0.1568961E-005  0.4871579E+04  0.7818608E-02  0.7848628E-01
         -2   -1    0    0    0  501 -0.00000000000E+00  0.00000000000E+00  0.28069598202E+04  0.28069598202E+04  0.00000000000E+00 0.  1.
          2   -1    0    0  501    0  0.00000000000E+00 -0.00000000000E+00 -0.21137001774E+04  0.21137001774E+04  0.00000000000E+00 0. -1.
         23    2    1    2    0    0  0.70063432630E+03  0.12125432759E+02  0.27021786508E+04  0.27930343100E+04  0.90750816118E+02 0.  0.
         13    1    3    3    0    0  0.44036633918E+03 -0.12056466101E+02  0.18464393524E+04  0.18982639840E+04  0.00000000000E+00 0.  1.
        -13    1    3    3    0    0  0.26026798713E+03  0.24181898860E+02  0.85573929846E+03  0.89477032600E+03  0.00000000000E+00 0. -1.
         22    1    1    2    0    0 -0.70063432630E+03 -0.12125432759E+02 -0.20089190081E+04  0.21276256876E+04  0.00000000000E+00 0. -1.
<mgrwt>
<rscale>  0 0.48715794E+04</rscale>
<asrwt>0</asrwt>
<pdfrwt beam="1">  1        2 0.32518464E+00 0.48715794E+04</pdfrwt>
<pdfrwt beam="2">  1       -2 0.43183998E+00 0.48715794E+04</pdfrwt>
<totfact> 0.19468435E-02</totfact>
</mgrwt>
</event>
<event>
 6    1  0.1568961E-005  0.1242645E+04  0.7818608E-02  0.9076327E-01
         -2   -1    0    0    0  501 -0.00000000000E+00  0.00000000000E+00  0.21478610945E+03  0.21478610945E+03  0.00000000000E+00 0. -1.
          2   -1    0    0  501    0  0.00000000000E+00 -0.00000000000E+00 -0.17973301107E+04  0.17973301107E+04  0.00000000000E+00 0.  1.
         23    2    1    2    0    0  0.17369974912E+03 -0.42329766871E+03 -0.12318929944E+03  0.48271481276E+03  0.92116598854E+02 0.  0.
         13    1    3    3    0    0  0.12869651540E+02 -0.10650278525E+03 -0.18821311944E+01  0.10729405209E+03  0.00000000000E+00 0.  1.
        -13    1    3    3    0    0  0.16083009758E+03 -0.31679488346E+03 -0.12130716824E+03  0.37542076067E+03  0.00000000000E+00 0. -1.
         22    1    1    2    0    0 -0.17369974912E+03  0.42329766871E+03 -0.14593547018E+04  0.15294014073E+04  0.00000000000E+00 0.  1.
<mgrwt>
<rscale>  0 0.12426448E+04</rscale>
<asrwt>0</asrwt>
<pdfrwt beam="1">  1        2 0.27651233E+00 0.12426448E+04</pdfrwt>
<pdfrwt beam="2">  1       -2 0.33044016E-01 0.12426448E+04</pdfrwt>
<totfact> 0.72840546E+01</totfact>
</mgrwt>
</event>
<event>
 6    1  0.1568961E-005  0.4582772E+04  0.7818608E-02  0.7896304E-01
         -2   -1    0    0    0  501 -0.00000000000E+00  0.00000000000E+00  0.15645744211E+04  0.15645744211E+04  0.00000000000E+00 0.  1.
          2   -1    0    0  501    0  0.00000000000E+00 -0.00000000000E+00 -0.33558323311E+04  0.33558323311E+04  0.00000000000E+00 0. -1.
         23    2    1    2    0    0 -0.52010108149E+03 -0.20870208539E+04 -0.17414515436E+04  0.27689788883E+04  0.91811904570E+02 0.  0.
         11    1    3    3    0    0 -0.10679810859E+03 -0.58816297584E+03 -0.46547617731E+03  0.75763420844E+03  0.00000000000E+00 0.  1.
        -11    1    3    3    0    0 -0.41330297290E+03 -0.14988578780E+04 -0.12759753663E+04  0.20113446799E+04  0.00000000000E+00 0. -1.
         22    1    1    2    0    0  0.52010108149E+03  0.20870208539E+04 -0.49806366372E+02  0.21514278639E+04  0.00000000000E+00 0.  1.
<mgrwt>
<rscale>  0 0.45827718E+04</rscale>
<asrwt>0</asrwt>
<pdfrwt beam="1">  1        2 0.51628189E+00 0.45827718E+04</pdfrwt>
<pdfrwt beam="2">  1       -2 0.24070376E+00 0.45827718E+04</pdfrwt>
<totfact> 0.56312348E-02</totfact>
</mgrwt>
</event>
<event>
 6    1  0.2748566E-005  0.3109086E+04  0.7818608E-02  0.8213249E-01
          1   -1    0    0  501    0  0.00000000000E+00  0.00000000000E+00  0.21813789287E+04  0.21813789287E+04  0.00000000000E+00 0. -1.
         -1   -1    0    0    0  501 -0.00000000000E+00 -0.00000000000E+00 -0.11078330315E+04  0.11078330315E+04  0.00000000000E+00 0.  1.
         23    2    1    2    0    0  0.28698029783E+03 -0.97733466783E+03 -0.70317884524E+03  0.12412149986E+04  0.92808620180E+02 0.  0.
         13    1    3    3    0    0  0.16735187123E+03 -0.54901933878E+03 -0.45124071071E+03  0.73010072056E+03  0.00000000000E+00 0. -1.
        -13    1    3    3    0    0  0.11962842661E+03 -0.42831532905E+03 -0.25193813454E+03  0.51111427801E+03  0.00000000000E+00 0.  1.
         22    1    1    2    0    0 -0.28698029783E+03  0.97733466783E+03  0.17767247425E+04  0.20479969616E+04  0.00000000000E+00 0. -1.
<mgrwt>
<rscale>  0 0.31090858E+04</rscale>
<asrwt>0</asrwt>
<pdfrwt beam="1">  1        1 0.33559676E+00 0.31090858E+04</pdfrwt>
<pdfrwt beam="2">  1       -1 0.17043585E+00 0.31090858E+04</pdfrwt>
<totfact> 0.46193645E-01</totfact>
</mgrwt>
</event>
<event>
 6    1  0.1568961E-005  0.2923953E+04  0.7818608E-02  0.8265786E-01
          2   -1    0    0  501    0  0.00000000000E+00  0.00000000000E+00  0.23809975260E+04  0.23809975260E+04  0.00000000000E+00 0. -1.
         -2   -1    0    0    0  501 -0.00000000000E+00 -0.00000000000E+00 -0.89768059164E+03  0.89768059164E+03  0.00000000000E+00 0.  1.
         23    2    1    2    0    0  0.99965899389E+03  0.67036078716E+03 -0.18543801599E+03  0.12211444549E+04  0.90026845364E+02 0.  0.
         13    1    3    3    0    0  0.56718938070E+03  0.43346341656E+03 -0.10614558248E+03  0.72170715097E+03  0.00000000000E+00 0.  1.
        -13    1    3    3    0    0  0.43246961319E+03  0.23689737059E+03 -0.79292433518E+02  0.49943730392E+03  0.00000000000E+00 0. -1.
         22    1    1    2    0    0 -0.99965899389E+03 -0.67036078716E+03  0.16687549503E+04  0.20575336627E+04  0.00000000000E+00 0.  1.
<mgrwt>
<rscale>  0 0.29239530E+04</rscale>
<asrwt>0</asrwt>
<pdfrwt beam="1">  1        2 0.36630731E+00 0.29239530E+04</pdfrwt>
<pdfrwt beam="2">  1       -2 0.13810471E+00 0.29239530E+04</pdfrwt>
<totfact> 0.13063614E+00</totfact>
</mgrwt>
</event>
<event>
 6    1  0.1568961E-005  0.1763439E+04  0.7818608E-02  0.8725988E-01
          1   -1    0    0  501    0  0.00000000000E+00  0.00000000000E+00  0.34569879294E+04  0.34569879294E+04  0.00000000000E+00 0. -1.
         -1   -1    0    0    0  501 -0.00000000000E+00 -0.00000000000E+00 -0.22488620038E+03  0.22488620038E+03  0.00000000000E+00 0.  1.
         23    2    1    2    0    0 -0.53325104649E+03  0.17107206973E+03  0.30359820294E+04  0.30885063954E+04  0.89791648321E+02 0.  0.
         11    1    3    3    0    0 -0.28318325233E+03  0.10234494333E+03  0.13920471076E+04  0.14242409879E+04  0.00000000000E+00 0.  1.
        -11    1    3    3    0    0 -0.25006779416E+03  0.68727126401E+02  0.16439349218E+04  0.16642654075E+04  0.00000000000E+00 0. -1.
         22    1    1    2    0    0  0.53325104649E+03 -0.17107206973E+03  0.19611969965E+03  0.59336773439E+03  0.00000000000E+00 0.  1.
<mgrwt>
<rscale>  0 0.17634386E+04</rscale>
<asrwt>0</asrwt>
<pdfrwt beam="1">  1        1 0.53184426E+00 0.17634386E+04</pdfrwt>
<pdfrwt beam="2">  1       -1 0.34597880E-01 0.17634386E+04</pdfrwt>
<totfact> 0.20392295E+00</totfact>
</mgrwt>
</event>
<event>
 6    1  0.1568961E-005  0.1138526E+04  0.7818608E-02  0.9168435E-01
         -2   -1    0    0    0  501 -0.00000000000E+00  0.00000000000E+00  0.43638696870E+03  0.43638696870E+03  0.00000000000E+00 0.  1.
          2   -1    0    0  501    0  0.00000000000E+00 -0.00000000000E+00 -0.74259847304E+03  0.74259847304E+03  0.00000000000E+00 0. -1.
         23    2    1    2    0    0 -0.93760490915E+02  0.37217302945E+01 -0.73161095252E+03  0.74335994726E+03  0.92328459340E+02 0.  0.
         13    1    3    3    0    0  0.11569146102E+01  0.80360602097E+01 -0.35013584075E+03  0.35022995831E+03  0.00000000000E+00 0.  1.
        -13    1    3    3    0    0 -0.94917405525E+02 -0.43143299152E+01 -0.38147511177E+03  0.39312998895E+03  0.00000000000E+00 0. -1.
         22    1    1    2    0    0  0.93760490915E+02 -0.37217302945E+01  0.42539944817E+03  0.43562549448E+03  0.00000000000E+00 0.  1.
<mgrwt>
<rscale>  0 0.11385259E+04</rscale>
<asrwt>0</asrwt>
<pdfrwt beam="1">  1        2 0.11424592E+00 0.11385259E+04</pdfrwt>
<pdfrwt beam="2">  1       -2 0.67136457E-01 0.11385259E+04</pdfrwt>
<totfact> 0.76642549E+01</totfact>
</mgrwt>
</event>
<event>
 6    1  0.1568961E-005  0.2392483E+04  0.7818608E-02  0.8442323E-01
          1   -1    0    0  501    0  0.00000000000E+00  0.00000000000E+00  0.40957286620E+04  0.40957286620E+04  0.00000000000E+00 0. -1.
         -1   -1    0    0    0  501 -0.00000000000E+00 -0.00000000000E+00 -0.34938684314E+03  0.34938684314E+03  0.00000000000E+00 0.  1.
         23    2    1    2    0    0 -0.22890219060E+03 -0.22779099015E+03  0.40121936926E+04  0.40268307136E+04  0.11568241643E+03 0.  0.
         11    1    3    3    0    0 -0.75313010627E+02 -0.91955920721E+02  0.21718863011E+04  0.21751363281E+04  0.00000000000E+00 0.  1.
        -11    1    3    3    0    0 -0.15358917997E+03 -0.13583506943E+03  0.18403073915E+04  0.18516943856E+04  0.00000000000E+00 0. -1.
         22    1    1    2    0    0  0.22890219060E+03  0.22779099015E+03 -0.26585187371E+03  0.41828479151E+03  0.00000000000E+00 0.  1.
<mgrwt>
<rscale>  0 0.23924830E+04</rscale>
<asrwt>0</asrwt>
<pdfrwt beam="1">  1        1 0.63011207E+00 0.23924830E+04</pdfrwt>
<pdfrwt beam="2">  1       -1 0.53751825E-01 0.23924830E+04</pdfrwt>
<totfact> 0.24791526E-01</totfact>
</mgrwt>
</event>
<event>
 6    1  0.1568961E-005  0.2043673E+04  0.7818608E-02  0.8586470E-01
          2   -1    0    0  501    0  0.00000000000E+00  0.00000000000E+00  0.15610752948E+04  0.15610752948E+04  0.00000000000E+00 0. -1.
         -2   -1    0    0    0  501 -0.00000000000E+00 -0.00000000000E+00 -0.66886598233E+03  0.66886598233E+03  0.00000000000E+00 0.  1.
         23    2    1    2    0    0 -0.37500578359E+03 -0.11805904574E+03 -0.57980267350E+03  0.70633156240E+03  0.90365147299E+02 0.  0.
         11    1    3    3    0    0 -0.20528160146E+03 -0.98623067531E+02 -0.27639461127E+03  0.35813548622E+03  0.00000000000E+00 0. -1.
        -11    1    3    3    0    0 -0.16972418212E+03 -0.19435978205E+02 -0.30340806222E+03  0.34819607618E+03  0.00000000000E+00 0.  1.
         22    1    1    2    0    0  0.37500578359E+03  0.11805904574E+03  0.14720119860E+04  0.15236097147E+04  0.00000000000E+00 0. -1.
<mgrwt>
<rscale>  0 0.20436733E+04</rscale>
<asrwt>0</asrwt>
<pdfrwt beam="1">  1        2 0.24016543E+00 0.20436733E+04</pdfrwt>
<pdfrwt beam="2">  1       -2 0.10290246E+00 0.20436733E+04</pdfrwt>
<totfact> 0.83768712E+00</totfact>
</mgrwt>
</event>
<event>
 6    1  0.1568961E-005  0.4990290E+04  0.7818608E-02  0.7830007E-01
         -2   -1    0    0    0  501 -0.00000000000E+00  0.00000000000E+00  0.22822373665E+04  0.22822373665E+04  0.00000000000E+00 0. -1.
          2   -1    0    0  501    0  0.00000000000E+00 -0.00000000000E+00 -0.27279140308E+04  0.27279140308E+04  0.00000000000E+00 0.  1.
         23    2    1    2    0    0 -0.24105351536E+04 -0.25426771444E+03  0.36790769039E+03  0.24533464966E+04  0.90670648471E+02 0.  0.
         11    1    3    3    0    0 -0.45108407807E+03 -0.80581578079E+02  0.83175157371E+02  0.46571272585E+03  0.00000000000E+00 0.  1.
        -11    1    3    3    0    0 -0.19594510756E+04 -0.17368613636E+03  0.28473253302E+03  0.19876337708E+04  0.00000000000E+00 0. -1.
         22    1    1    2    0    0  0.24105351536E+04  0.25426771444E+03 -0.81358435472E+03  0.25568049006E+04  0.00000000000E+00 0.  1.
<mgrwt>
<rscale>  0 0.49902895E+04</rscale>
<asrwt>0</asrwt>
<pdfrwt beam="1">  1        2 0.41967908E+00 0.49902895E+04</pdfrwt>
<pdfrwt beam="2">  1       -2 0.35111344E+00 0.49902895E+04</pdfrwt>
<totfact> 0.28501973E-02</totfact>
</mgrwt>
</event>
<event>
 6    1  0.1568961E-005  0.4271001E+04  0.7818608E-02  0.7952002E-01
          1   -1    0    0  501    0  0.00000000000E+00  0.00000000000E+00  0.18286358786E+04  0.18286358786E+04  0.00000000000E+00 0. -1.
         -1   -1    0    0    0  501 -0.00000000000E+00 -0.00000000000E+00 -0.24938607772E+04  0.24938607772E+04  0.00000000000E+00 0.  1.
         23    2    1    2    0    0 -0.16222969071E+03  0.17520264132E+04  0.89025047230E+03  0.19740038084E+04  0.90719936839E+02 0.  0.
         11    1    3    3    0    0  0.70274272961E+01  0.19123963121E+03  0.81556580446E+02  0.20802273216E+03  0.00000000000E+00 0.  1.
        -11    1    3    3    0    0 -0.16925711800E+03  0.15607867820E+04  0.80869389186E+03  0.17659810762E+04  0.00000000000E+00 0. -1.
         22    1    1    2    0    0  0.16222969071E+03 -0.17520264132E+04 -0.15554753709E+04  0.23484928474E+04  0.00000000000E+00 0.  1.
<mgrwt>
<rscale>  0 0.42710014E+04</rscale>
<asrwt>0</asrwt>
<pdfrwt beam="1">  1        1 0.28132860E+00 0.42710014E+04</pdfrwt>
<pdfrwt beam="2">  1       -1 0.38367089E+00 0.42710014E+04</pdfrwt>
<totfact> 0.27543991E-02</totfact>
</mgrwt>
</event>
<event>
 6    1  0.1568961E-005  0.4404697E+04  0.7818608E-02  0.7927537E-01
          1   -1    0    0  501    0  0.00000000000E+00  0.00000000000E+00  0.23803626039E+04  0.23803626039E+04  0.00000000000E+00 0. -1.
         -1   -1    0    0    0  501 -0.00000000000E+00 -0.00000000000E+00 -0.20376469233E+04  0.20376469233E+04  0.00000000000E+00 0.  1.
         23    2    1    2    0    0 -0.30574288267E+03 -0.77257754294E+03 -0.18732253060E+04  0.20514193164E+04  0.94833509019E+02 0.  0.
         13    1    3    3    0    0 -0.10770120506E+03 -0.17016822662E+03 -0.41507665924E+03  0.46135171830E+03  0.00000000000E+00 0.  1.
        -13    1    3    3    0    0 -0.19804167760E+03 -0.60240931631E+03 -0.14581486467E+04  0.15900675981E+04  0.00000000000E+00 0. -1.
         22    1    1    2    0    0  0.30574288267E+03  0.77257754294E+03  0.22159409866E+04  0.23665902109E+04  0.00000000000E+00 0. -1.
<mgrwt>
<rscale>  0 0.44046968E+04</rscale>
<asrwt>0</asrwt>
<pdfrwt beam="1">  1        1 0.36620963E+00 0.44046968E+04</pdfrwt>
<pdfrwt beam="2">  1       -1 0.31348414E+00 0.44046968E+04</pdfrwt>
<totfact> 0.33499796E-02</totfact>
</mgrwt>
</event>
<event>
 6    1  0.1568961E-005  0.2155443E+04  0.7818608E-02  0.8537206E-01
          1   -1    0    0  501    0  0.00000000000E+00  0.00000000000E+00  0.26355949139E+04  0.26355949139E+04  0.00000000000E+00 0. -1.
         -1   -1    0    0    0  501 -0.00000000000E+00 -0.00000000000E+00 -0.44069136228E+03  0.44069136228E+03  0.00000000000E+00 0.  1.
         23    2    1    2    0    0  0.88140114017E+03  0.11681031145E+03  0.19640196093E+04  0.21576895129E+04  0.87968116837E+02 0.  0.
         13    1    3    3    0    0  0.65963363926E+03  0.81197960793E+02  0.15545751631E+04  0.16906843539E+04  0.00000000000E+00 0.  1.
        -13    1    3    3    0    0  0.22176750092E+03  0.35612350660E+02  0.40944444622E+03  0.46700515899E+03  0.00000000000E+00 0. -1.
         22    1    1    2    0    0 -0.88140114017E+03 -0.11681031145E+03  0.23088394238E+03  0.91859676334E+03  0.00000000000E+00 0.  1.
<mgrwt>
<rscale>  0 0.21554433E+04</rscale>
<asrwt>0</asrwt>
<pdfrwt beam="1">  1        1 0.40547613E+00 0.21554433E+04</pdfrwt>
<pdfrwt beam="2">  1       -1 0.67798673E-01 0.21554433E+04</pdfrwt>
<totfact> 0.21971468E+00</totfact>
</mgrwt>
</event>
<event>
 6    1  0.4993048E-005  0.2518886E+04  0.7818608E-02  0.8396288E-01
         -1   -1    0    0    0  501 -0.00000000000E+00  0.00000000000E+00  0.11105234971E+04  0.11105234971E+04  0.00000000000E+00 0.  1.
          1   -1    0    0  501    0  0.00000000000E+00 -0.00000000000E+00 -0.14283322718E+04  0.14283322718E+04  0.00000000000E+00 0. -1.
         23    2    1    2    0    0 -0.90483813546E+03  0.53548580660E+03 -0.85474053117E+03  0.13582742124E+04  0.94076351494E+02 0.  0.
         11    1    3    3    0    0 -0.29992589250E+03  0.21576328019E+03 -0.26093043506E+03  0.45232071145E+03  0.00000000000E+00 0. -1.
        -11    1    3    3    0    0 -0.60491224296E+03  0.31972252641E+03 -0.59381009611E+03  0.90595350091E+03  0.00000000000E+00 0.  1.
         22    1    1    2    0    0  0.90483813546E+03 -0.53548580660E+03  0.53693175650E+03  0.11805815565E+04  0.00000000000E+00 0.  1.
<mgrwt>
<rscale>  0 0.25188859E+04</rscale>
<asrwt>0</asrwt>
<pdfrwt beam="1">  1        1 0.21974342E+00 0.25188859E+04</pdfrwt>
<pdfrwt beam="2">  1       -1 0.17084977E+00 0.25188859E+04</pdfrwt>
<totfact> 0.15789497E+00</totfact>
</mgrwt>
</event>
<event>
 6    1  0.1568961E-005  0.1612963E+04  0.7818608E-02  0.8812623E-01
          1   -1    0    0  501    0  0.00000000000E+00  0.00000000000E+00  0.71791414153E+03  0.71791414153E+03  0.00000000000E+00 0. -1.
         -1   -1    0    0    0  501 -0.00000000000E+00 -0.00000000000E+00 -0.90597565749E+03  0.90597565749E+03  0.00000000000E+00 0.  1.
         23    2    1    2    0    0 -0.74280328510E+03 -0.30671921776E+03 -0.11508012743E+03  0.81694514047E+03  0.91227890001E+02 0.  0.
         13    1    3    3    0    0 -0.18038737503E+03 -0.10255951812E+03  0.77944501252E+00  0.20750582489E+03  0.00000000000E+00 0. -1.
        -13    1    3    3    0    0 -0.56241591006E+03 -0.20415969964E+03 -0.11585957244E+03  0.60943931558E+03  0.00000000000E+00 0.  1.
         22    1    1    2    0    0  0.74280328510E+03  0.30671921776E+03 -0.72981388532E+02  0.80694465855E+03  0.00000000000E+00 0.  1.
<mgrwt>
<rscale>  0 0.16129634E+04</rscale>
<asrwt>0</asrwt>
<pdfrwt beam="1">  1        1 0.11044833E+00 0.16129634E+04</pdfrwt>
<pdfrwt beam="2">  1       -1 0.13938087E+00 0.16129634E+04</pdfrwt>
<totfact> 0.10655087E+01</totfact>
</mgrwt>
</event>
<event>
 6    1  0.1568961E-005  0.1054253E+04  0.7818608E-02  0.9250964E-01
         -2   -1    0    0    0  501 -0.00000000000E+00  0.00000000000E+00  0.58248436042E+03  0.58248436042E+03  0.00000000000E+00 0.  1.
          2   -1    0    0  501    0  0.00000000000E+00 -0.00000000000E+00 -0.47703003972E+03  0.47703003972E+03  0.00000000000E+00 0. -1.
         23    2    1    2    0    0  0.42010951914E+03  0.30083645789E+03 -0.29498066183E+02  0.52546690302E+03  0.90833626992E+02 0.  0.
         13    1    3    3    0    0  0.27075549720E+03  0.13880195002E+03 -0.15487128670E+02  0.30465451211E+03  0.00000000000E+00 0.  1.
        -13    1    3    3    0    0  0.14935402194E+03  0.16203450786E+03 -0.14010937513E+02  0.22081239091E+03  0.00000000000E+00 0. -1.
         22    1    1    2    0    0 -0.42010951914E+03 -0.30083645789E+03  0.13495238688E+03  0.53404749713E+03  0.00000000000E+00 0.  1.
<mgrwt>
<rscale>  0 0.10542534E+04</rscale>
<asrwt>0</asrwt>
<pdfrwt beam="1">  1        2 0.73389237E-01 0.10542534E+04</pdfrwt>
<pdfrwt beam="2">  1       -2 0.89612978E-01 0.10542534E+04</pdfrwt>
<totfact> 0.69137595E+01</totfact>
</mgrwt>
</event>
<event>
 6    1  0.1568961E-005  0.2623958E+04  0.7818608E-02  0.8360109E-01
          2   -1    0    0  501    0  0.00000000000E+00  0.00000000000E+00  0.11525988662E+04  0.11525988662E+04  0.00000000000E+00 0. -1.
         -2   -1    0    0    0  501 -0.00000000000E+00 -0.00000000000E+00 -0.14933979335E+04  0.14933979335E+04  0.00000000000E+00 0.  1.
         23    2    1    2    0    0 -0.93833480632E+03  0.71663452172E+02 -0.10902279426E+04  0.14429791364E+04  0.89353020297E+02 0.  0.
         11    1    3    3    0    0 -0.34273330656E+03  0.66620754349E+02 -0.37976647665E+03  0.51587500533E+03  0.00000000000E+00 0.  1.
        -11    1    3    3    0    0 -0.59560149976E+03  0.50426978226E+01 -0.71046146594E+03  0.92710413110E+03  0.00000000000E+00 0. -1.
         22    1    1    2    0    0  0.93833480632E+03 -0.71663452172E+02  0.74942887526E+03  0.12030176633E+04  0.00000000000E+00 0. -1.
<mgrwt>
<rscale>  0 0.26239579E+04</rscale>
<asrwt>0</asrwt>
<pdfrwt beam="1">  1        2 0.17732290E+00 0.26239579E+04</pdfrwt>
<pdfrwt beam="2">  1       -2 0.22975353E+00 0.26239579E+04</pdfrwt>
<totfact> 0.15322078E+00</totfact>
</mgrwt>
</event>
<event>
 6    1  0.2763047E-005  0.4344363E+04  0.7818608E-02  0.7938465E-01
          2   -1    0    0  501    0  0.00000000000E+00  0.00000000000E+00  0.18234365787E+04  0.18234365787E+04  0.00000000000E+00 0. -1.
         -2   -1    0    0    0  501 -0.00000000000E+00 -0.00000000000E+00 -0.25876264814E+04  0.25876264814E+04  0.00000000000E+00 0.  1.
         23    2    1    2    0    0 -0.19243122789E+04  0.45605624873E+03 -0.12922584850E+04  0.23641577187E+04  0.91349209264E+02 0.  0.
         13    1    3    3    0    0 -0.84049586403E+03  0.19211655440E+03 -0.61700528370E+03  0.10602063894E+04  0.00000000000E+00 0. -1.
        -13    1    3    3    0    0 -0.10838164149E+04  0.26393969433E+03 -0.67525320134E+03  0.13039513294E+04  0.00000000000E+00 0.  1.
         22    1    1    2    0    0  0.19243122789E+04 -0.45605624873E+03  0.52806858233E+03  0.20469053414E+04  0.00000000000E+00 0. -1.
<mgrwt>
<rscale>  0 0.43443631E+04</rscale>
<asrwt>0</asrwt>
<pdfrwt beam="1">  1        2 0.28052871E+00 0.43443631E+04</pdfrwt>
<pdfrwt beam="2">  1       -2 0.39809638E+00 0.43443631E+04</pdfrwt>
<totfact> 0.49073630E-02</totfact>
</mgrwt>
</event>
<event>
 6    1  0.1568961E-005  0.1221216E+04  0.7818608E-02  0.9094486E-01
          2   -1    0    0  501    0  0.00000000000E+00  0.00000000000E+00  0.17599934655E+04  0.17599934655E+04  0.00000000000E+00 0. -1.
         -2   -1    0    0    0  501 -0.00000000000E+00 -0.00000000000E+00 -0.21184292537E+03  0.21184292537E+03  0.00000000000E+00 0.  1.
         23    2    1    2    0    0  0.18581877867E+03 -0.50387555404E+03  0.12356294206E+04  0.13504760746E+04  0.92662670312E+02 0.  0.
         13    1    3    3    0    0  0.84371563824E+02 -0.33896210863E+03  0.84984033006E+03  0.91882667487E+03  0.00000000000E+00 0.  1.
        -13    1    3    3    0    0  0.10144721485E+03 -0.16491344541E+03  0.38578909059E+03  0.43164939974E+03  0.00000000000E+00 0. -1.
         22    1    1    2    0    0 -0.18581877867E+03  0.50387555404E+03  0.31252111945E+03  0.62136031622E+03  0.00000000000E+00 0.  1.
<mgrwt>
<rscale>  0 0.12212161E+04</rscale>
<asrwt>0</asrwt>
<pdfrwt beam="1">  1        2 0.27076822E+00 0.12212161E+04</pdfrwt>
<pdfrwt beam="2">  1       -2 0.32591220E-01 0.12212161E+04</pdfrwt>
<totfact> 0.78530347E+01</totfact>
</mgrwt>
</event>
<event>
 6    1  0.1568961E-005  0.1446033E+04  0.7818608E-02  0.8921155E-01
          2   -1    0    0  501    0  0.00000000000E+00  0.00000000000E+00  0.23392467833E+04  0.23392467833E+04  0.00000000000E+00 0. -1.
         -2   -1    0    0    0  501 -0.00000000000E+00 -0.00000000000E+00 -0.22347072737E+03  0.22347072737E+03  0.00000000000E+00 0.  1.
         23    2    1    2    0    0 -0.36211913350E+03 -0.12388684922E+03  0.21432163659E+04  0.21790103452E+04  0.90727477390E+02 0.  0.
         13    1    3    3    0    0 -0.23031558767E+02 -0.25131054096E+02  0.10422279056E+03  0.10965588289E+03  0.00000000000E+00 0. -1.
        -13    1    3    3    0    0 -0.33908757473E+03 -0.98755795126E+02  0.20389935753E+04  0.20693544623E+04  0.00000000000E+00 0.  1.
         22    1    1    2    0    0  0.36211913350E+03  0.12388684922E+03 -0.27440309940E+02  0.38370716551E+03  0.00000000000E+00 0.  1.
<mgrwt>
<rscale>  0 0.14460334E+04</rscale>
<asrwt>0</asrwt>
<pdfrwt beam="1">  1        2 0.35988410E+00 0.14460334E+04</pdfrwt>
<pdfrwt beam="2">  1       -2 0.34380114E-01 0.14460334E+04</pdfrwt>
<totfact> 0.33186122E+01</totfact>
</mgrwt>
</event>
<event>
 6    1  0.1568961E-005  0.2119244E+04  0.7818608E-02  0.8552813E-01
          2   -1    0    0  501    0  0.00000000000E+00  0.00000000000E+00  0.17477765346E+04  0.17477765346E+04  0.00000000000E+00 0. -1.
         -2   -1    0    0    0  501 -0.00000000000E+00 -0.00000000000E+00 -0.64241560620E+03  0.64241560620E+03  0.00000000000E+00 0.  1.
         23    2    1    2    0    0 -0.12067526080E+03  0.86629436538E+03  0.12244481154E+04  0.15074633013E+04  0.90243955073E+02 0.  0.
         11    1    3    3    0    0 -0.61813519987E+02  0.44719393785E+03  0.55446488563E+03  0.71500674032E+03  0.00000000000E+00 0. -1.
        -11    1    3    3    0    0 -0.58861740816E+02  0.41910042753E+03  0.66998322972E+03  0.79245656095E+03  0.00000000000E+00 0.  1.
         22    1    1    2    0    0  0.12067526080E+03 -0.86629436538E+03 -0.11908718695E+03  0.88272883954E+03  0.00000000000E+00 0.  1.
<mgrwt>
<rscale>  0 0.21192441E+04</rscale>
<asrwt>0</asrwt>
<pdfrwt beam="1">  1        2 0.26888870E+00 0.21192441E+04</pdfrwt>
<pdfrwt beam="2">  1       -2 0.98833171E-01 0.21192441E+04</pdfrwt>
<totfact> 0.72085554E+00</totfact>
</mgrwt>
</event>
<event>
 6    1  0.1568961E-005  0.2374658E+04  0.7818608E-02  0.8449052E-01
          1   -1    0    0  501    0  0.00000000000E+00  0.00000000000E+00  0.24788104622E+04  0.24788104622E+04  0.00000000000E+00 0. -1.
         -1   -1    0    0    0  501 -0.00000000000E+00 -0.00000000000E+00 -0.56872059580E+03  0.56872059580E+03  0.00000000000E+00 0.  1.
         23    2    1    2    0    0 -0.83614062568E+03  0.17647025642E+03  0.20110621743E+04  0.21870263780E+04  0.91871715157E+02 0.  0.
         13    1    3    3    0    0 -0.41146704638E+03  0.54614714055E+02  0.88942727384E+03  0.98151351121E+03  0.00000000000E+00 0. -1.
        -13    1    3    3    0    0 -0.42467357930E+03  0.12185554236E+03  0.11216349004E+04  0.12055128668E+04  0.00000000000E+00 0.  1.
         22    1    1    2    0    0  0.83614062568E+03 -0.17647025642E+03 -0.10097230788E+03  0.86050467998E+03  0.00000000000E+00 0.  1.
<mgrwt>
<rscale>  0 0.23746583E+04</rscale>
<asrwt>0</asrwt>
<pdfrwt beam="1">  1        1 0.38135545E+00 0.23746583E+04</pdfrwt>
<pdfrwt beam="2">  1       -1 0.87495477E-01 0.23746583E+04</pdfrwt>
<totfact> 0.16173499E+00</totfact>
</mgrwt>
</event>
<event>
 6    1  0.1568961E-005  0.7364393E+03  0.7818608E-02  0.9656868E-01
         -3   -1    0    0    0  501 -0.00000000000E+00  0.00000000000E+00  0.14139057570E+03  0.14139057570E+03  0.00000000000E+00 0.  1.
          3   -1    0    0  501    0  0.00000000000E+00 -0.00000000000E+00 -0.95894447939E+03  0.95894447939E+03  0.00000000000E+00 0. -1.
         23    2    1    2    0    0 -0.90890585930E+02 -0.23867953450E+03 -0.30120506388E+02  0.27251842444E+03  0.90166667640E+02 0.  0.
         11    1    3    3    0    0 -0.67849129836E+02 -0.15594411560E+03 -0.61847096480E+02  0.18096169471E+03  0.00000000000E+00 0. -1.
        -11    1    3    3    0    0 -0.23041456094E+02 -0.82735418903E+02  0.31726590091E+02  0.91556729729E+02  0.00000000000E+00 0.  1.
         22    1    1    2    0    0  0.90890585930E+02  0.23867953450E+03 -0.78743339730E+03  0.82781663065E+03  0.00000000000E+00 0. -1.
<mgrwt>
<rscale>  0 0.73643930E+03</rscale>
<asrwt>0</asrwt>
<pdfrwt beam="1">  1        3 0.14752992E+00 0.73643930E+03</pdfrwt>
<pdfrwt beam="2">  1       -3 0.21752396E-01 0.73643930E+03</pdfrwt>
<totfact> 0.17597478E+01</totfact>
</mgrwt>
</event>
<event>
 6    1  0.1568961E-005  0.5318664E+03  0.7818608E-02  0.1005781E+00
          2   -1    0    0  501    0  0.00000000000E+00  0.00000000000E+00  0.72532283157E+02  0.72532283157E+02  0.00000000000E+00 0. -1.
         -2   -1    0    0    0  501 -0.00000000000E+00 -0.00000000000E+00 -0.97502037624E+03  0.97502037624E+03  0.00000000000E+00 0.  1.
         23    2    1    2    0    0  0.12944223169E+03 -0.77272530264E+02 -0.87673711389E+03  0.89461656748E+03  0.94575370311E+02 0.  0.
         13    1    3    3    0    0  0.58533949814E+02 -0.87698649920E+02 -0.47817892427E+03  0.48966555943E+03  0.00000000000E+00 0. -1.
        -13    1    3    3    0    0  0.70908281880E+02  0.10426119656E+02 -0.39855818962E+03  0.40495100805E+03  0.00000000000E+00 0.  1.
         22    1    1    2    0    0 -0.12944223169E+03  0.77272530264E+02 -0.25750979192E+02  0.15293609191E+03  0.00000000000E+00 0. -1.
<mgrwt>
<rscale>  0 0.53186635E+03</rscale>
<asrwt>0</asrwt>
<pdfrwt beam="1">  1        2 0.11158813E-01 0.53186635E+03</pdfrwt>
<pdfrwt beam="2">  1       -2 0.15000313E+00 0.53186635E+03</pdfrwt>
<totfact> 0.17637942E+02</totfact>
</mgrwt>
</event>
<event>
 6    1  0.1568961E-005  0.2004302E+04  0.7818608E-02  0.8604612E-01
         -2   -1    0    0    0  501 -0.00000000000E+00  0.00000000000E+00  0.70947337561E+03  0.70947337561E+03  0.00000000000E+00 0.  1.
          2   -1    0    0  501    0  0.00000000000E+00 -0.00000000000E+00 -0.14155665449E+04  0.14155665449E+04  0.00000000000E+00 0. -1.
         23    2    1    2    0    0  0.44163792670E+03 -0.37844132039E+03  0.50846683773E+03  0.77840786166E+03  0.95490223293E+02 0.  0.
         13    1    3    3    0    0  0.35775078246E+03 -0.32687027842E+03  0.37603245846E+03  0.61337607638E+03  0.00000000000E+00 0.  1.
        -13    1    3    3    0    0  0.83887144247E+02 -0.51571041967E+02  0.13243437927E+03  0.16503178528E+03  0.00000000000E+00 0. -1.
         22    1    1    2    0    0 -0.44163792670E+03  0.37844132039E+03 -0.12145600070E+04  0.13466320589E+04  0.00000000000E+00 0. -1.
<mgrwt>
<rscale>  0 0.20043021E+04</rscale>
<asrwt>0</asrwt>
<pdfrwt beam="1">  1        2 0.21777946E+00 0.20043021E+04</pdfrwt>
<pdfrwt beam="2">  1       -2 0.10914975E+00 0.20043021E+04</pdfrwt>
<totfact> 0.88161816E+00</totfact>
</mgrwt>
</event>
<event>
 6    1  0.1568961E-005  0.4348249E+04  0.7818608E-02  0.7937756E-01
         -2   -1    0    0    0  501 -0.00000000000E+00  0.00000000000E+00  0.34340340076E+04  0.34340340076E+04  0.00000000000E+00 0.  1.
          2   -1    0    0  501    0  0.00000000000E+00 -0.00000000000E+00 -0.13764619312E+04  0.13764619312E+04  0.00000000000E+00 0. -1.
         23    2    1    2    0    0 -0.96555021932E+03  0.16264064445E+04 -0.15313731356E+03  0.19010765543E+04  0.11469908334E+03 0.  0.
         13    1    3    3    0    0 -0.67978535574E+03  0.12403222274E+04 -0.12538161448E+03  0.14199394026E+04  0.00000000000E+00 0.  1.
        -13    1    3    3    0    0 -0.28576486357E+03  0.38608421706E+03 -0.27755699079E+02  0.48113715171E+03  0.00000000000E+00 0. -1.
         22    1    1    2    0    0  0.96555021932E+03 -0.16264064445E+04  0.22107093899E+04  0.29094193846E+04  0.00000000000E+00 0.  1.
<mgrwt>
<rscale>  0 0.43482489E+04</rscale>
<asrwt>0</asrwt>
<pdfrwt beam="1">  1        2 0.21176337E+00 0.43482489E+04</pdfrwt>
<pdfrwt beam="2">  1       -2 0.52831292E+00 0.43482489E+04</pdfrwt>
<totfact> 0.12862036E-02</totfact>
</mgrwt>
</event>
<event>
 6    1  0.1568961E-005  0.1149713E+04  0.7818608E-02  0.9158048E-01
          2   -1    0    0  501    0  0.00000000000E+00  0.00000000000E+00  0.30986170743E+03  0.30986170743E+03  0.00000000000E+00 0. -1.
         -2   -1    0    0    0  501 -0.00000000000E+00 -0.00000000000E+00 -0.10664754581E+04  0.10664754581E+04  0.00000000000E+00 0.  1.
         23    2    1    2    0    0 -0.46355068315E+03  0.98761417048E+02 -0.76235613420E+03  0.90234768432E+03  0.91713765028E+02 0.  0.
         11    1    3    3    0    0 -0.27300024297E+03  0.51583230218E+02 -0.36078110240E+03  0.45536025974E+03  0.00000000000E+00 0. -1.
        -11    1    3    3    0    0 -0.19055044018E+03  0.47178186829E+02 -0.40157503180E+03  0.44698742458E+03  0.00000000000E+00 0.  1.
         22    1    1    2    0    0  0.46355068315E+03 -0.98761417048E+02  0.57423835139E+01  0.47398948123E+03  0.00000000000E+00 0. -1.
<mgrwt>
<rscale>  0 0.11497128E+04</rscale>
<asrwt>0</asrwt>
<pdfrwt beam="1">  1        2 0.47671031E-01 0.11497128E+04</pdfrwt>
<pdfrwt beam="2">  1       -2 0.16407315E+00 0.11497128E+04</pdfrwt>
<totfact> 0.24619781E+01</totfact>
</mgrwt>
</event>
<event>
 6    1  0.1568961E-005  0.2096800E+04  0.7818608E-02  0.8562654E-01
          1   -1    0    0  501    0  0.00000000000E+00  0.00000000000E+00  0.83476092524E+03  0.83476092524E+03  0.00000000000E+00 0. -1.
         -1   -1    0    0    0  501 -0.00000000000E+00 -0.00000000000E+00 -0.13167156402E+04  0.13167156402E+04  0.00000000000E+00 0.  1.
         23    2    1    2    0    0 -0.12624977980E+03 -0.91858212127E+03  0.25591133860E+03  0.96649621395E+03  0.94298451447E+02 0.  0.
         11    1    3    3    0    0 -0.27487611042E+02 -0.48572194293E+03  0.10625137925E+03  0.49796659546E+03  0.00000000000E+00 0. -1.
        -11    1    3    3    0    0 -0.98762168757E+02 -0.43286017834E+03  0.14965995935E+03  0.46852961849E+03  0.00000000000E+00 0.  1.
         22    1    1    2    0    0  0.12624977980E+03  0.91858212127E+03 -0.73786605355E+03  0.11849803515E+04  0.00000000000E+00 0. -1.
<mgrwt>
<rscale>  0 0.20968002E+04</rscale>
<asrwt>0</asrwt>
<pdfrwt beam="1">  1        1 0.12842476E+00 0.20968002E+04</pdfrwt>
<pdfrwt beam="2">  1       -1 0.20257163E+00 0.20968002E+04</pdfrwt>
<totfact> 0.27423573E+00</totfact>
</mgrwt>
</event>
<event>
 6    1  0.1568961E-005  0.1091423E+04  0.7818608E-02  0.9213592E-01
          2   -1    0    0  501    0  0.00000000000E+00  0.00000000000E+00  0.11836300126E+04  0.11836300126E+04  0.00000000000E+00 0. -1.
         -2   -1    0    0    0  501 -0.00000000000E+00 -0.00000000000E+00 -0.25160000089E+03  0.25160000089E+03  0.00000000000E+00 0.  1.
         23    2    1    2    0    0 -0.13190316229E+03  0.50111085524E+03  0.67975106692E+03  0.85890094129E+03  0.84491304274E+02 0.  0.
         11    1    3    3    0    0  0.62936795560E+01  0.10831567900E+03  0.13292916929E+03  0.17158688985E+03  0.00000000000E+00 0. -1.
        -11    1    3    3    0    0 -0.13819684184E+03  0.39279517624E+03  0.54682189763E+03  0.68731405144E+03  0.00000000000E+00 0.  1.
         22    1    1    2    0    0  0.13190316229E+03 -0.50111085524E+03  0.25227894476E+03  0.57632907217E+03  0.00000000000E+00 0.  1.
<mgrwt>
<rscale>  0 0.10914235E+04</rscale>
<asrwt>0</asrwt>
<pdfrwt beam="1">  1        2 0.18209692E+00 0.10914235E+04</pdfrwt>
<pdfrwt beam="2">  1       -2 0.38707693E-01 0.10914235E+04</pdfrwt>
<totfact> 0.12126383E+02</totfact>
</mgrwt>
</event>
<event>
 6    1  0.1568961E-005  0.1041052E+04  0.7818608E-02  0.9264632E-01
         -2   -1    0    0    0  501 -0.00000000000E+00  0.00000000000E+00  0.35243669129E+03  0.35243669129E+03  0.00000000000E+00 0.  1.
          2   -1    0    0  501    0  0.00000000000E+00 -0.00000000000E+00 -0.76878223252E+03  0.76878223252E+03  0.00000000000E+00 0. -1.
         23    2    1    2    0    0  0.11995897609E+03  0.42589972358E+03  0.77185887662E+02  0.45838108407E+03  0.91514078114E+02 0.  0.
         13    1    3    3    0    0  0.95775019630E+02  0.20195123565E+03  0.65135479768E+02  0.23280847642E+03  0.00000000000E+00 0.  1.
        -13    1    3    3    0    0  0.24183956457E+02  0.22394848793E+03  0.12050407894E+02  0.22557260766E+03  0.00000000000E+00 0. -1.
         22    1    1    2    0    0 -0.11995897609E+03 -0.42589972358E+03 -0.49353142889E+03  0.66283783974E+03  0.00000000000E+00 0.  1.
<mgrwt>
<rscale>  0 0.10410515E+04</rscale>
<asrwt>0</asrwt>
<pdfrwt beam="1">  1        2 0.11827419E+00 0.10410515E+04</pdfrwt>
<pdfrwt beam="2">  1       -2 0.54221030E-01 0.10410515E+04</pdfrwt>
<totfact> 0.11586288E+02</totfact>
</mgrwt>
</event>
<event>
 6    1  0.1568961E-005  0.3785308E+04  0.7818608E-02  0.8049315E-01
          2   -1    0    0  501    0  0.00000000000E+00  0.00000000000E+00  0.15231773706E+04  0.15231773706E+04  0.00000000000E+00 0. -1.
         -2   -1    0    0    0  501 -0.00000000000E+00 -0.00000000000E+00 -0.23517540704E+04  0.23517540704E+04  0.00000000000E+00 0.  1.
         23    2    1    2    0    0 -0.11212366850E+04 -0.19197769667E+03  0.11325033257E+04  0.16078050647E+04  0.91903228685E+02 0.  0.
         13    1    3    3    0    0 -0.72639985639E+03 -0.11103094680E+03  0.78948862275E+03  0.10785531549E+04  0.00000000000E+00 0. -1.
        -13    1    3    3    0    0 -0.39483682866E+03 -0.80946749874E+02  0.34301470294E+03  0.52925190979E+03  0.00000000000E+00 0.  1.
         22    1    1    2    0    0  0.11212366850E+04  0.19197769667E+03 -0.19610800254E+04  0.22671263763E+04  0.00000000000E+00 0.  1.
<mgrwt>
<rscale>  0 0.37853077E+04</rscale>
<asrwt>0</asrwt>
<pdfrwt beam="1">  1        2 0.23433498E+00 0.37853077E+04</pdfrwt>
<pdfrwt beam="2">  1       -2 0.36180832E+00 0.37853077E+04</pdfrwt>
<totfact> 0.12943397E-01</totfact>
</mgrwt>
</event>
<event>
 6    1  0.1568961E-005  0.4087128E+03  0.7818608E-02  0.1040804E+00
          2   -1    0    0  501    0  0.00000000000E+00  0.00000000000E+00  0.12199061203E+04  0.12199061203E+04  0.00000000000E+00 0. -1.
         -2   -1    0    0    0  501 -0.00000000000E+00 -0.00000000000E+00 -0.34233400890E+02  0.34233400890E+02  0.00000000000E+00 0.  1.
         23    2    1    2    0    0  0.53994566882E+02 -0.84839666684E+02  0.11301207180E+04  0.11392517187E+04  0.10299737348E+03 0.  0.
         11    1    3    3    0    0  0.44716151794E+02 -0.24964006101E+02  0.89451384231E+03  0.89597865484E+03  0.00000000000E+00 0.  1.
        -11    1    3    3    0    0  0.92784150880E+01 -0.59875660583E+02  0.23560687573E+03  0.24327306388E+03  0.00000000000E+00 0. -1.
         22    1    1    2    0    0 -0.53994566882E+02  0.84839666684E+02  0.55552001314E+02  0.11488780242E+03  0.00000000000E+00 0.  1.
<mgrwt>
<rscale>  0 0.40871279E+03</rscale>
<asrwt>0</asrwt>
<pdfrwt beam="1">  1        2 0.18767783E+00 0.40871279E+03</pdfrwt>
<pdfrwt beam="2">  1       -2 0.52666780E-02 0.40871279E+03</pdfrwt>
<totfact> 0.35301678E+03</totfact>
</mgrwt>
</event>
<event>
 6    1  0.2365102E-005  0.3432323E+04  0.7818608E-02  0.8130018E-01
         -1   -1    0    0    0  501 -0.00000000000E+00  0.00000000000E+00  0.14966074554E+04  0.14966074554E+04  0.00000000000E+00 0.  1.
          1   -1    0    0  501    0  0.00000000000E+00 -0.00000000000E+00 -0.19679244709E+04  0.19679244709E+04  0.00000000000E+00 0. -1.
         23    2    1    2    0    0  0.67285432261E+03 -0.77835944564E+03 -0.16208755132E+04  0.19217872599E+04  0.86327730550E+02 0.  0.
         13    1    3    3    0    0  0.39330005117E+03 -0.50676177433E+03 -0.96200769176E+03  0.11562660702E+04  0.00000000000E+00 0.  1.
        -13    1    3    3    0    0  0.27955427144E+03 -0.27159767131E+03 -0.65886782142E+03  0.76552118968E+03  0.00000000000E+00 0. -1.
         22    1    1    2    0    0 -0.67285432261E+03  0.77835944564E+03  0.11495584977E+04  0.15427446664E+04  0.00000000000E+00 0.  1.
<mgrwt>
<rscale>  0 0.34323231E+04</rscale>
<asrwt>0</asrwt>
<pdfrwt beam="1">  1        1 0.30275761E+00 0.34323231E+04</pdfrwt>
<pdfrwt beam="2">  1       -1 0.23024730E+00 0.34323231E+04</pdfrwt>
<totfact> 0.24175859E-01</totfact>
</mgrwt>
</event>
<event>
 6    1  0.1568961E-005  0.1364726E+04  0.7818608E-02  0.8979755E-01
          2   -1    0    0  501    0  0.00000000000E+00  0.00000000000E+00  0.32993582236E+03  0.32993582236E+03  0.00000000000E+00 0. -1.
         -2   -1    0    0    0  501 -0.00000000000E+00 -0.00000000000E+00 -0.14112413790E+04  0.14112413790E+04  0.00000000000E+00 0.  1.
         23    2    1    2    0    0 -0.29188994699E+03  0.74292833428E+01 -0.13254314355E+04  0.13605824298E+04  0.95713752840E+02 0.  0.
         13    1    3    3    0    0 -0.21785600748E+03  0.45942938334E+02 -0.90886872042E+03  0.93574267004E+03  0.00000000000E+00 0.  1.
        -13    1    3    3    0    0 -0.74033939510E+02 -0.38513654991E+02 -0.41656271513E+03  0.42483975974E+03  0.00000000000E+00 0. -1.
         22    1    1    2    0    0  0.29188994699E+03 -0.74292833428E+01  0.24412587890E+03  0.38059477158E+03  0.00000000000E+00 0. -1.
<mgrwt>
<rscale>  0 0.13647257E+04</rscale>
<asrwt>0</asrwt>
<pdfrwt beam="1">  1        2 0.50759358E-01 0.13647257E+04</pdfrwt>
<pdfrwt beam="2">  1       -2 0.21711406E+00 0.13647257E+04</pdfrwt>
<totfact> 0.99275060E+00</totfact>
</mgrwt>
</event>
<event>
 6    1  0.1568961E-005  0.4149183E+04  0.7818608E-02  0.7975110E-01
          2   -1    0    0  501    0  0.00000000000E+00  0.00000000000E+00  0.17035397064E+04  0.17035397064E+04  0.00000000000E+00 0. -1.
         -2   -1    0    0    0  501 -0.00000000000E+00 -0.00000000000E+00 -0.25264631920E+04  0.25264631920E+04  0.00000000000E+00 0.  1.
         23    2    1    2    0    0  0.17601635503E+04  0.39174038508E+03  0.63212036769E+03  0.19129381889E+04  0.90111609598E+02 0.  0.
         13    1    3    3    0    0  0.33706375303E+03  0.76699876808E+02  0.84091132001E+02  0.35576138519E+03  0.00000000000E+00 0. -1.
        -13    1    3    3    0    0  0.14230997973E+04  0.31504050827E+03  0.54802923569E+03  0.15571768037E+04  0.00000000000E+00 0.  1.
         22    1    1    2    0    0 -0.17601635503E+04 -0.39174038508E+03 -0.14550438533E+04  0.23170647095E+04  0.00000000000E+00 0. -1.
<mgrwt>
<rscale>  0 0.41491832E+04</rscale>
<asrwt>0</asrwt>
<pdfrwt beam="1">  1        2 0.26208303E+00 0.41491832E+04</pdfrwt>
<pdfrwt beam="2">  1       -2 0.38868664E+00 0.41491832E+04</pdfrwt>
<totfact> 0.66911626E-02</totfact>
</mgrwt>
</event>
<event>
 6    1  0.1568961E-005  0.1911996E+04  0.7818608E-02  0.8648908E-01
         -1   -1    0    0    0  501 -0.00000000000E+00  0.00000000000E+00  0.75429796232E+03  0.75429796232E+03  0.00000000000E+00 0. -1.
          1   -1    0    0  501    0  0.00000000000E+00 -0.00000000000E+00 -0.12116326477E+04  0.12116326477E+04  0.00000000000E+00 0.  1.
         23    2    1    2    0    0 -0.33641563528E+03  0.65642458321E+03  0.39257060198E+03  0.84058279241E+03  0.91646277950E+02 0.  0.
         11    1    3    3    0    0 -0.16751148434E+03  0.29387007238E+03  0.22886006581E+03  0.40840745163E+03  0.00000000000E+00 0. -1.
        -11    1    3    3    0    0 -0.16890415093E+03  0.36255451083E+03  0.16371053618E+03  0.43217534078E+03  0.00000000000E+00 0.  1.
         22    1    1    2    0    0  0.33641563528E+03 -0.65642458321E+03 -0.84990528737E+03  0.11253478176E+04  0.00000000000E+00 0.  1.
<mgrwt>
<rscale>  0 0.19119959E+04</rscale>
<asrwt>0</asrwt>
<pdfrwt beam="1">  1        1 0.18640502E+00 0.19119959E+04</pdfrwt>
<pdfrwt beam="2">  1       -1 0.11604584E+00 0.19119959E+04</pdfrwt>
<totfact> 0.65782329E+00</totfact>
</mgrwt>
</event>
<event>
 6    1  0.1568961E-005  0.4269620E+04  0.7818608E-02  0.7952260E-01
         -2   -1    0    0    0  501 -0.00000000000E+00  0.00000000000E+00  0.12238791082E+04  0.12238791082E+04  0.00000000000E+00 0.  1.
          2   -1    0    0  501    0  0.00000000000E+00 -0.00000000000E+00 -0.37237455617E+04  0.37237455617E+04  0.00000000000E+00 0. -1.
         23    2    1    2    0    0 -0.12544147973E+04  0.17028930896E+04 -0.92309894034E+03  0.23095198295E+04  0.91481314676E+02 0.  0.
         11    1    3    3    0    0 -0.30375344823E+03  0.37630245703E+03 -0.17650209861E+03  0.51480354242E+03  0.00000000000E+00 0.  1.
        -11    1    3    3    0    0 -0.95066134903E+03  0.13265906326E+04 -0.74659684173E+03  0.17947162871E+04  0.00000000000E+00 0. -1.
         22    1    1    2    0    0  0.12544147973E+04 -0.17028930896E+04 -0.15767675132E+04  0.26381048404E+04  0.00000000000E+00 0. -1.
<mgrwt>
<rscale>  0 0.42696203E+04</rscale>
<asrwt>0</asrwt>
<pdfrwt beam="1">  1        2 0.57288393E+00 0.42696203E+04</pdfrwt>
<pdfrwt beam="2">  1       -2 0.18828909E+00 0.42696203E+04</pdfrwt>
<totfact> 0.68679971E-02</totfact>
</mgrwt>
</event>
<event>
 6    1  0.1568961E-005  0.1622848E+04  0.7818608E-02  0.8806633E-01
         -2   -1    0    0    0  501 -0.00000000000E+00  0.00000000000E+00  0.47474861050E+03  0.47474861050E+03  0.00000000000E+00 0.  1.
          2   -1    0    0  501    0  0.00000000000E+00 -0.00000000000E+00 -0.13868576020E+04  0.13868576020E+04  0.00000000000E+00 0. -1.
         23    2    1    2    0    0 -0.51282840192E+03 -0.58867094760E+03 -0.70050313577E+03  0.10527159279E+04  0.89329318830E+02 0.  0.
         11    1    3    3    0    0 -0.23125491320E+03 -0.26165463704E+03 -0.37320247895E+03  0.51109888892E+03  0.00000000000E+00 0. -1.
        -11    1    3    3    0    0 -0.28157348872E+03 -0.32701631056E+03 -0.32730065682E+03  0.54161703895E+03  0.00000000000E+00 0.  1.
         22    1    1    2    0    0  0.51282840192E+03  0.58867094760E+03 -0.21160585570E+03  0.80889028461E+03  0.00000000000E+00 0.  1.
<mgrwt>
<rscale>  0 0.16228478E+04</rscale>
<asrwt>0</asrwt>
<pdfrwt beam="1">  1        2 0.21336271E+00 0.16228478E+04</pdfrwt>
<pdfrwt beam="2">  1       -2 0.73038248E-01 0.16228478E+04</pdfrwt>
<totfact> 0.23866099E+01</totfact>
</mgrwt>
</event>
<event>
 6    1  0.1568961E-005  0.1960845E+04  0.7818608E-02  0.8625149E-01
         -1   -1    0    0    0  501 -0.00000000000E+00  0.00000000000E+00  0.76799308135E+03  0.76799308135E+03  0.00000000000E+00 0.  1.
          1   -1    0    0  501    0  0.00000000000E+00 -0.00000000000E+00 -0.12516111972E+04  0.12516111972E+04  0.00000000000E+00 0. -1.
         23    2    1    2    0    0  0.22639107584E+03 -0.40632770341E+03 -0.11287107368E+04  0.12243058368E+04  0.92637642285E+02 0.  0.
         11    1    3    3    0    0  0.13095135682E+03 -0.17460543154E+03 -0.61830348854E+03  0.65569392137E+03  0.00000000000E+00 0. -1.
        -11    1    3    3    0    0  0.95439719019E+02 -0.23172227187E+03 -0.51040724827E+03  0.56861191540E+03  0.00000000000E+00 0.  1.
         22    1    1    2    0    0 -0.22639107584E+03  0.40632770341E+03  0.64509262100E+03  0.79529844174E+03  0.00000000000E+00 0.  1.
<mgrwt>
<rscale>  0 0.19608455E+04</rscale>
<asrwt>0</asrwt>
<pdfrwt beam="1">  1        1 0.19255557E+00 0.19608455E+04</pdfrwt>
<pdfrwt beam="2">  1       -1 0.11815278E+00 0.19608455E+04</pdfrwt>
<totfact> 0.58660835E+00</totfact>
</mgrwt>
</event>
<event>
 6    1  0.1568961E-005  0.3511168E+04  0.7818608E-02  0.8111148E-01
          1   -1    0    0  501    0  0.00000000000E+00  0.00000000000E+00  0.27523759960E+04  0.27523759960E+04  0.00000000000E+00 0. -1.
         -1   -1    0    0    0  501 -0.00000000000E+00 -0.00000000000E+00 -0.11197873166E+04  0.11197873166E+04  0.00000000000E+00 0.  1.
         23    2    1    2    0    0 -0.12391885133E+04  0.13776506536E+03 -0.54429869620E+03  0.13634971270E+04  0.91082160495E+02 0.  0.
         11    1    3    3    0    0 -0.13266540762E+03 -0.62317872337E+01 -0.37909497639E+02  0.13811616691E+03  0.00000000000E+00 0. -1.
        -11    1    3    3    0    0 -0.11065231056E+04  0.14399685260E+03 -0.50638919856E+03  0.12253809601E+04  0.00000000000E+00 0.  1.
         22    1    1    2    0    0  0.12391885133E+04 -0.13776506536E+03  0.21768873756E+04  0.25086661856E+04  0.00000000000E+00 0. -1.
<mgrwt>
<rscale>  0 0.35111683E+04</rscale>
<asrwt>0</asrwt>
<pdfrwt beam="1">  1        1 0.42344246E+00 0.35111683E+04</pdfrwt>
<pdfrwt beam="2">  1       -1 0.17227497E+00 0.35111683E+04</pdfrwt>
<totfact> 0.17382764E-01</totfact>
</mgrwt>
</event>
<event>
 6    1  0.1568961E-005  0.6013626E+04  0.7818608E-02  0.7688715E-01
          2   -1    0    0  501    0  0.00000000000E+00  0.00000000000E+00  0.31523697221E+04  0.31523697221E+04  0.00000000000E+00 0. -1.
         -2   -1    0    0    0  501 -0.00000000000E+00 -0.00000000000E+00 -0.28679775633E+04  0.28679775633E+04  0.00000000000E+00 0.  1.
         23    2    1    2    0    0  0.96734986917E+03 -0.20392259216E+04 -0.18456269217E+04  0.29169315201E+04  0.89121435185E+02 0.  0.
         13    1    3    3    0    0  0.30610865081E+03 -0.59787380819E+03 -0.50397184402E+03  0.83972806085E+03  0.00000000000E+00 0. -1.
        -13    1    3    3    0    0  0.66124121836E+03 -0.14413521134E+04 -0.13416550777E+04  0.20772034593E+04  0.00000000000E+00 0.  1.
         22    1    1    2    0    0 -0.96734986917E+03  0.20392259216E+04  0.21300190806E+04  0.31034157653E+04  0.00000000000E+00 0. -1.
<mgrwt>
<rscale>  0 0.60136264E+04</rscale>
<asrwt>0</asrwt>
<pdfrwt beam="1">  1        2 0.48497996E+00 0.60136264E+04</pdfrwt>
<pdfrwt beam="2">  1       -2 0.44122732E+00 0.60136264E+04</pdfrwt>
<totfact> 0.37265541E-03</totfact>
</mgrwt>
</event>
<event>
 6    1  0.1568961E-005  0.6911203E+04  0.7818608E-02  0.7586663E-01
         -2   -1    0    0    0  501 -0.00000000000E+00  0.00000000000E+00  0.28330661028E+04  0.28330661028E+04  0.00000000000E+00 0.  1.
          2   -1    0    0  501    0  0.00000000000E+00 -0.00000000000E+00 -0.42149323701E+04  0.42149323701E+04  0.00000000000E+00 0. -1.
         23    2    1    2    0    0  0.94137867501E+03 -0.21206479629E+04  0.19196104270E+04  0.30127673823E+04  0.92312057133E+02 0.  0.
         11    1    3    3    0    0  0.52357942981E+03 -0.11425222941E+04  0.10960102885E+04  0.16675524472E+04  0.00000000000E+00 0. -1.
        -11    1    3    3    0    0  0.41779924520E+03 -0.97812566883E+03  0.82360013853E+03  0.13452149351E+04  0.00000000000E+00 0.  1.
         22    1    1    2    0    0 -0.94137867501E+03  0.21206479629E+04 -0.33014766942E+04  0.40352310906E+04  0.00000000000E+00 0. -1.
<mgrwt>
<rscale>  0 0.69112031E+04</rscale>
<asrwt>0</asrwt>
<pdfrwt beam="1">  1        2 0.64845113E+00 0.69112031E+04</pdfrwt>
<pdfrwt beam="2">  1       -2 0.43585633E+00 0.69112031E+04</pdfrwt>
<totfact> 0.60758200E-04</totfact>
</mgrwt>
</event>
<event>
 6    1  0.1568961E-005  0.2734373E+04  0.7818608E-02  0.8323938E-01
         -1   -1    0    0    0  501 -0.00000000000E+00  0.00000000000E+00  0.82887705067E+03  0.82887705067E+03  0.00000000000E+00 0.  1.
          1   -1    0    0  501    0  0.00000000000E+00 -0.00000000000E+00 -0.22550976017E+04  0.22550976017E+04  0.00000000000E+00 0. -1.
         23    2    1    2    0    0  0.21744105024E+02  0.83025238178E+03  0.50868131006E+03  0.97835430777E+03  0.92890541830E+02 0.  0.
         13    1    3    3    0    0 -0.21410747083E+02  0.56741630434E+03  0.31823303333E+03  0.65091623580E+03  0.00000000000E+00 0.  1.
        -13    1    3    3    0    0  0.43154852107E+02  0.26283607744E+03  0.19044827672E+03  0.32743807197E+03  0.00000000000E+00 0. -1.
         22    1    1    2    0    0 -0.21744105024E+02 -0.83025238178E+03 -0.19349018611E+04  0.21056203446E+04  0.00000000000E+00 0.  1.
<mgrwt>
<rscale>  0 0.27343728E+04</rscale>
<asrwt>0</asrwt>
<pdfrwt beam="1">  1        1 0.34693809E+00 0.27343728E+04</pdfrwt>
<pdfrwt beam="2">  1       -1 0.12751955E+00 0.27343728E+04</pdfrwt>
<totfact> 0.92562446E-01</totfact>
</mgrwt>
</event>
<event>
 6    1  0.1568961E-005  0.2654472E+04  0.7818608E-02  0.8349930E-01
          1   -1    0    0  501    0  0.00000000000E+00  0.00000000000E+00  0.26472646938E+04  0.26472646938E+04  0.00000000000E+00 0. -1.
         -1   -1    0    0    0  501 -0.00000000000E+00 -0.00000000000E+00 -0.66542451012E+03  0.66542451012E+03  0.00000000000E+00 0.  1.
         23    2    1    2    0    0 -0.10509567011E+04  0.65459822971E+03  0.40069363160E+03  0.13044478715E+04  0.89554638343E+02 0.  0.
         13    1    3    3    0    0 -0.55501409815E+03  0.29299445749E+03  0.20459082999E+03  0.66010893721E+03  0.00000000000E+00 0.  1.
        -13    1    3    3    0    0 -0.49594260293E+03  0.36160377221E+03  0.19610280160E+03  0.64433893432E+03  0.00000000000E+00 0. -1.
         22    1    1    2    0    0  0.10509567011E+04 -0.65459822971E+03  0.15811465520E+04  0.20082413323E+04  0.00000000000E+00 0. -1.
<mgrwt>
<rscale>  0 0.26544716E+04</rscale>
<asrwt>0</asrwt>
<pdfrwt beam="1">  1        1 0.40727149E+00 0.26544716E+04</pdfrwt>
<pdfrwt beam="2">  1       -1 0.10237300E+00 0.26544716E+04</pdfrwt>
<totfact> 0.84581231E-01</totfact>
</mgrwt>
</event>
<event>
 6    1  0.1568961E-005  0.2259705E+04  0.7818608E-02  0.8493980E-01
          1   -1    0    0  501    0  0.00000000000E+00  0.00000000000E+00  0.83100204055E+03  0.83100204055E+03  0.00000000000E+00 0. -1.
         -1   -1    0    0    0  501 -0.00000000000E+00 -0.00000000000E+00 -0.15361775759E+04  0.15361775759E+04  0.00000000000E+00 0.  1.
         23    2    1    2    0    0  0.78114920906E+03 -0.36797467201E+03 -0.11134903568E+04  0.14120249486E+04  0.91401503555E+02 0.  0.
         13    1    3    3    0    0  0.41946037608E+03 -0.15078916144E+03 -0.54414083514E+03  0.70340146913E+03  0.00000000000E+00 0. -1.
        -13    1    3    3    0    0  0.36168883298E+03 -0.21718551056E+03 -0.56934952164E+03  0.70862347949E+03  0.00000000000E+00 0.  1.
         22    1    1    2    0    0 -0.78114920906E+03  0.36797467201E+03  0.40831482143E+03  0.95515466782E+03  0.00000000000E+00 0. -1.
<mgrwt>
<rscale>  0 0.22597050E+04</rscale>
<asrwt>0</asrwt>
<pdfrwt beam="1">  1        1 0.12784647E+00 0.22597050E+04</pdfrwt>
<pdfrwt beam="2">  1       -1 0.23633501E+00 0.22597050E+04</pdfrwt>
<totfact> 0.16158149E+00</totfact>
</mgrwt>
</event>
<event>
 6    1  0.1568961E-005  0.2479733E+04  0.7818608E-02  0.8410241E-01
         -1   -1    0    0    0  501 -0.00000000000E+00  0.00000000000E+00  0.69902526478E+03  0.69902526478E+03  0.00000000000E+00 0.  1.
          1   -1    0    0  501    0  0.00000000000E+00 -0.00000000000E+00 -0.21991610192E+04  0.21991610192E+04  0.00000000000E+00 0. -1.
         23    2    1    2    0    0 -0.11609954657E+04  0.23927407393E+03 -0.11691018308E+04  0.16674361012E+04  0.91550569576E+02 0.  0.
         13    1    3    3    0    0 -0.86854016338E+03  0.15403418049E+03 -0.82354910524E+03  0.12067815349E+04  0.00000000000E+00 0. -1.
        -13    1    3    3    0    0 -0.29245530236E+03  0.85239893442E+02 -0.34555272558E+03  0.46065456632E+03  0.00000000000E+00 0.  1.
         22    1    1    2    0    0  0.11609954657E+04 -0.23927407393E+03 -0.33103392364E+03  0.12307501828E+04  0.00000000000E+00 0.  1.
<mgrwt>
<rscale>  0 0.24797331E+04</rscale>
<asrwt>0</asrwt>
<pdfrwt beam="1">  1        1 0.33833246E+00 0.24797331E+04</pdfrwt>
<pdfrwt beam="2">  1       -1 0.10754235E+00 0.24797331E+04</pdfrwt>
<totfact> 0.15623350E+00</totfact>
</mgrwt>
</event>
<event>
 6    1  0.1728735E-005  0.2500225E+04  0.7818608E-02  0.8402905E-01
         -2   -1    0    0    0  501 -0.00000000000E+00  0.00000000000E+00  0.99009152270E+03  0.99009152270E+03  0.00000000000E+00 0.  1.
          2   -1    0    0  501    0  0.00000000000E+00 -0.00000000000E+00 -0.15784208138E+04  0.15784208138E+04  0.00000000000E+00 0. -1.
         23    2    1    2    0    0  0.41552042876E+03  0.11689954866E+04 -0.43772734532E+03  0.13187569122E+04  0.91142142280E+02 0.  0.
         11    1    3    3    0    0  0.23698296202E+03  0.59615518169E+03 -0.18487706421E+03  0.66763871504E+03  0.00000000000E+00 0. -1.
        -11    1    3    3    0    0  0.17853746674E+03  0.57284030494E+03 -0.25285028111E+03  0.65111819714E+03  0.00000000000E+00 0.  1.
         22    1    1    2    0    0 -0.41552042876E+03 -0.11689954866E+04 -0.15060194577E+03  0.12497554243E+04  0.00000000000E+00 0.  1.
<mgrwt>
<rscale>  0 0.25002248E+04</rscale>
<asrwt>0</asrwt>
<pdfrwt beam="1">  1        2 0.24283397E+00 0.25002248E+04</pdfrwt>
<pdfrwt beam="2">  1       -2 0.15232177E+00 0.25002248E+04</pdfrwt>
<totfact> 0.29419646E+00</totfact>
</mgrwt>
</event>
<event>
 6    1  0.1568961E-005  0.1021442E+04  0.7818608E-02  0.9285336E-01
         -1   -1    0    0    0  501 -0.00000000000E+00  0.00000000000E+00  0.44815524970E+03  0.44815524970E+03  0.00000000000E+00 0.  1.
          1   -1    0    0  501    0  0.00000000000E+00 -0.00000000000E+00 -0.58202098576E+03  0.58202098576E+03  0.00000000000E+00 0. -1.
         23    2    1    2    0    0  0.21272175223E+03  0.28086770311E+03 -0.43477188476E+03  0.56683864703E+03  0.90234413947E+02 0.  0.
         11    1    3    3    0    0  0.10169107433E+02  0.57799173116E+02 -0.43781243137E+02  0.73218525043E+02  0.00000000000E+00 0.  1.
        -11    1    3    3    0    0  0.20255264480E+03  0.22306853000E+03 -0.39099064163E+03  0.49362012198E+03  0.00000000000E+00 0. -1.
         22    1    1    2    0    0 -0.21272175223E+03 -0.28086770311E+03  0.30090614870E+03  0.46333758843E+03  0.00000000000E+00 0.  1.
<mgrwt>
<rscale>  0 0.10214416E+04</rscale>
<asrwt>0</asrwt>
<pdfrwt beam="1">  1        1 0.89541690E-01 0.10214416E+04</pdfrwt>
<pdfrwt beam="2">  1       -1 0.68946961E-01 0.10214416E+04</pdfrwt>
<totfact> 0.76302169E+01</totfact>
</mgrwt>
</event>
<event>
 6    1  0.1568961E-005  0.1337085E+04  0.7818608E-02  0.9000663E-01
         -2   -1    0    0    0  501 -0.00000000000E+00  0.00000000000E+00  0.24155408130E+03  0.24155408130E+03  0.00000000000E+00 0.  1.
          2   -1    0    0  501    0  0.00000000000E+00 -0.00000000000E+00 -0.18503058280E+04  0.18503058280E+04  0.00000000000E+00 0. -1.
         23    2    1    2    0    0  0.13829258214E+03 -0.39391114015E+03 -0.16189070931E+04  0.16742548857E+04  0.89322011423E+02 0.  0.
         11    1    3    3    0    0  0.29857698033E+02 -0.15073911737E+03 -0.74521741606E+03  0.76089602499E+03  0.00000000000E+00 0.  1.
        -11    1    3    3    0    0  0.10843488411E+03 -0.24317202278E+03 -0.87368967703E+03  0.91335886075E+03  0.00000000000E+00 0. -1.
         22    1    1    2    0    0 -0.13829258214E+03  0.39391114015E+03  0.10155346427E+02  0.41760502353E+03  0.00000000000E+00 0.  1.
<mgrwt>
<rscale>  0 0.13370848E+04</rscale>
<asrwt>0</asrwt>
<pdfrwt beam="1">  1        2 0.28466243E+00 0.13370848E+04</pdfrwt>
<pdfrwt beam="2">  1       -2 0.37162168E-01 0.13370848E+04</pdfrwt>
<totfact> 0.54007578E+01</totfact>
</mgrwt>
</event>
<event>
 6    1  0.1568961E-005  0.1896208E+04  0.7818608E-02  0.8656746E-01
         -3   -1    0    0    0  501 -0.00000000000E+00  0.00000000000E+00  0.19237374074E+04  0.19237374074E+04  0.00000000000E+00 0.  1.
          3   -1    0    0  501    0  0.00000000000E+00 -0.00000000000E+00 -0.46726806134E+03  0.46726806134E+03  0.00000000000E+00 0. -1.
         23    2    1    2    0    0 -0.32359095553E+03  0.70867985492E+02  0.18471281899E+04  0.18788065717E+04  0.91094490130E+02 0.  0.
         11    1    3    3    0    0 -0.22270738291E+03  0.13209125224E+02  0.10672160754E+04  0.10902858392E+04  0.00000000000E+00 0. -1.
        -11    1    3    3    0    0 -0.10088357262E+03  0.57658860268E+02  0.77991211446E+03  0.78852073256E+03  0.00000000000E+00 0.  1.
         22    1    1    2    0    0  0.32359095553E+03 -0.70867985492E+02 -0.39065884383E+03  0.51219889704E+03  0.00000000000E+00 0. -1.
<mgrwt>
<rscale>  0 0.18962078E+04</rscale>
<asrwt>0</asrwt>
<pdfrwt beam="1">  1        3 0.71887395E-01 0.18962078E+04</pdfrwt>
<pdfrwt beam="2">  1       -3 0.29595960E+00 0.18962078E+04</pdfrwt>
<totfact> 0.18091029E-01</totfact>
</mgrwt>
</event>
<event>
 6    1  0.1568961E-005  0.1769868E+04  0.7818608E-02  0.8722490E-01
          2   -1    0    0  501    0  0.00000000000E+00  0.00000000000E+00  0.58578717167E+03  0.58578717167E+03  0.00000000000E+00 0. -1.
         -2   -1    0    0    0  501 -0.00000000000E+00 -0.00000000000E+00 -0.13368474361E+04  0.13368474361E+04  0.00000000000E+00 0.  1.
         23    2    1    2    0    0  0.58591433393E+03  0.31277681484E+03 -0.10086697188E+04  0.12102529871E+04  0.78566841280E+02 0.  0.
         13    1    3    3    0    0  0.21956689693E+03  0.89331252669E+02 -0.41158072519E+03  0.47496145979E+03  0.00000000000E+00 0.  1.
        -13    1    3    3    0    0  0.36634743700E+03  0.22344556217E+03 -0.59708899358E+03  0.73529152729E+03  0.00000000000E+00 0. -1.
         22    1    1    2    0    0 -0.58591433393E+03 -0.31277681484E+03  0.25760945431E+03  0.71238162073E+03  0.00000000000E+00 0. -1.
<mgrwt>
<rscale>  0 0.17698679E+04</rscale>
<asrwt>0</asrwt>
<pdfrwt beam="1">  1        2 0.90121103E-01 0.17698679E+04</pdfrwt>
<pdfrwt beam="2">  1       -2 0.20566884E+00 0.17698679E+04</pdfrwt>
<totfact> 0.58958401E+00</totfact>
</mgrwt>
</event>
<event>
 6    1  0.1568961E-005  0.5582851E+04  0.7818608E-02  0.7744391E-01
         -2   -1    0    0    0  501 -0.00000000000E+00  0.00000000000E+00  0.30913537529E+04  0.30913537529E+04  0.00000000000E+00 0.  1.
          2   -1    0    0  501    0  0.00000000000E+00 -0.00000000000E+00 -0.25205964920E+04  0.25205964920E+04  0.00000000000E+00 0. -1.
         23    2    1    2    0    0  0.41470657815E+03  0.17023942954E+04 -0.18978996588E+04  0.25846750889E+04  0.91620509461E+02 0.  0.
         13    1    3    3    0    0  0.16497114592E+03  0.50019939018E+03 -0.57369478759E+03  0.77880717654E+03  0.00000000000E+00 0.  1.
        -13    1    3    3    0    0  0.24973543223E+03  0.12021949052E+04 -0.13242048712E+04  0.18058679124E+04  0.00000000000E+00 0. -1.
         22    1    1    2    0    0 -0.41470657815E+03 -0.17023942954E+04  0.24686569196E+04  0.30272751559E+04  0.00000000000E+00 0.  1.
<mgrwt>
<rscale>  0 0.55828507E+04</rscale>
<asrwt>0</asrwt>
<pdfrwt beam="1">  1        2 0.38778407E+00 0.55828507E+04</pdfrwt>
<pdfrwt beam="2">  1       -2 0.47559289E+00 0.55828507E+04</pdfrwt>
<totfact> 0.55890794E-03</totfact>
</mgrwt>
</event>
<event>
 6    1  0.1568961E-005  0.3091296E+04  0.7818608E-02  0.8218131E-01
          2   -1    0    0  501    0  0.00000000000E+00  0.00000000000E+00  0.25240331779E+04  0.25240331779E+04  0.00000000000E+00 0. -1.
         -2   -1    0    0    0  501 -0.00000000000E+00 -0.00000000000E+00 -0.94651217502E+03  0.94651217502E+03  0.00000000000E+00 0.  1.
         23    2    1    2    0    0  0.10173443035E+04  0.88719253675E+03  0.16316678625E+04  0.21196079334E+04  0.91091977908E+02 0.  0.
         11    1    3    3    0    0  0.76653170026E+03  0.67893104441E+03  0.12956665537E+04  0.16514448307E+04  0.00000000000E+00 0.  1.
        -11    1    3    3    0    0  0.25081260323E+03  0.20826149234E+03  0.33600130886E+03  0.46816310266E+03  0.00000000000E+00 0. -1.
         22    1    1    2    0    0 -0.10173443035E+04 -0.88719253675E+03 -0.54146859673E+02  0.13509374195E+04  0.00000000000E+00 0.  1.
<mgrwt>
<rscale>  0 0.30912963E+04</rscale>
<asrwt>0</asrwt>
<pdfrwt beam="1">  1        2 0.38831279E+00 0.30912963E+04</pdfrwt>
<pdfrwt beam="2">  1       -2 0.14561726E+00 0.30912963E+04</pdfrwt>
<totfact> 0.92785614E-01</totfact>
</mgrwt>
</event>
<event>
 6    1  0.1568961E-005  0.6582785E+03  0.7818608E-02  0.9791368E-01
         -1   -1    0    0    0  501 -0.00000000000E+00  0.00000000000E+00  0.72274232062E+02  0.72274232062E+02  0.00000000000E+00 0.  1.
          1   -1    0    0  501    0  0.00000000000E+00 -0.00000000000E+00 -0.14989108653E+04  0.14989108653E+04  0.00000000000E+00 0. -1.
         23    2    1    2    0    0  0.20890880064E+02  0.67932056883E+02 -0.14786174278E+04  0.14831328617E+04  0.91227158648E+02 0.  0.
         13    1    3    3    0    0 -0.23119272637E+02  0.34171837878E+02 -0.25994729798E+03  0.26320108852E+03  0.00000000000E+00 0.  1.
        -13    1    3    3    0    0  0.44010152701E+02  0.33760219005E+02 -0.12186701298E+04  0.12199317731E+04  0.00000000000E+00 0. -1.
         22    1    1    2    0    0 -0.20890880064E+02 -0.67932056883E+02  0.51980794481E+02  0.88052235730E+02  0.00000000000E+00 0.  1.
<mgrwt>
<rscale>  0 0.65827846E+03</rscale>
<asrwt>0</asrwt>
<pdfrwt beam="1">  1        1 0.23060167E+00 0.65827846E+03</pdfrwt>
<pdfrwt beam="2">  1       -1 0.11119113E-01 0.65827846E+03</pdfrwt>
<totfact> 0.35759554E+02</totfact>
</mgrwt>
</event>
<event>
 6    1  0.1568961E-005  0.2855314E+04  0.7818608E-02  0.8286298E-01
         -1   -1    0    0    0  501 -0.00000000000E+00  0.00000000000E+00  0.19950376478E+04  0.19950376478E+04  0.00000000000E+00 0.  1.
          1   -1    0    0  501    0  0.00000000000E+00 -0.00000000000E+00 -0.10216373386E+04  0.10216373386E+04  0.00000000000E+00 0. -1.
         23    2    1    2    0    0  0.64940557300E+03 -0.83510673338E+03  0.14980246240E+04  0.18358441238E+04  0.84350569115E+02 0.  0.
         11    1    3    3    0    0  0.47177293322E+03 -0.65072805861E+03  0.11764292025E+04  0.14247815184E+04  0.00000000000E+00 0. -1.
        -11    1    3    3    0    0  0.17763263978E+03 -0.18437867477E+03  0.32159542154E+03  0.41106260543E+03  0.00000000000E+00 0.  1.
         22    1    1    2    0    0 -0.64940557300E+03  0.83510673338E+03 -0.52462431479E+03  0.11808308626E+04  0.00000000000E+00 0. -1.
<mgrwt>
<rscale>  0 0.28553143E+04</rscale>
<asrwt>0</asrwt>
<pdfrwt beam="1">  1        1 0.15717498E+00 0.28553143E+04</pdfrwt>
<pdfrwt beam="2">  1       -1 0.30692887E+00 0.28553143E+04</pdfrwt>
<totfact> 0.37337047E-01</totfact>
</mgrwt>
</event>
<event>
 6    1  0.1568961E-005  0.1508328E+04  0.7818608E-02  0.8878934E-01
         -2   -1    0    0    0  501 -0.00000000000E+00  0.00000000000E+00  0.17907730397E+04  0.17907730397E+04  0.00000000000E+00 0.  1.
          2   -1    0    0  501    0  0.00000000000E+00 -0.00000000000E+00 -0.31760762806E+03  0.31760762806E+03  0.00000000000E+00 0. -1.
         23    2    1    2    0    0 -0.34229785738E+03  0.27740310983E+03  0.15902221054E+04  0.16525050508E+04  0.88579285590E+02 0.  0.
         11    1    3    3    0    0 -0.10931828683E+03  0.42196347567E+02  0.46999627789E+03  0.48438365044E+03  0.00000000000E+00 0. -1.
        -11    1    3    3    0    0 -0.23297957055E+03  0.23520676227E+03  0.11202258275E+04  0.11681214004E+04  0.00000000000E+00 0.  1.
         22    1    1    2    0    0  0.34229785738E+03 -0.27740310983E+03 -0.11705669384E+03  0.45587561690E+03  0.00000000000E+00 0. -1.
<mgrwt>
<rscale>  0 0.15083278E+04</rscale>
<asrwt>0</asrwt>
<pdfrwt beam="1">  1        2 0.48862713E-01 0.15083278E+04</pdfrwt>
<pdfrwt beam="2">  1       -2 0.27550354E+00 0.15083278E+04</pdfrwt>
<totfact> 0.44712016E+00</totfact>
</mgrwt>
</event>
<event>
 6    1  0.1568961E-005  0.1499493E+04  0.7818608E-02  0.8884790E-01
         -2   -1    0    0    0  501 -0.00000000000E+00  0.00000000000E+00  0.39536822487E+04  0.39536822487E+04  0.00000000000E+00 0.  1.
          2   -1    0    0  501    0  0.00000000000E+00 -0.00000000000E+00 -0.14217632398E+03  0.14217632398E+03  0.00000000000E+00 0. -1.
         23    2    1    2    0    0 -0.44532816494E+02 -0.73793066400E+03  0.22047539256E+04  0.23271933067E+04  0.91454783148E+02 0.  0.
         11    1    3    3    0    0 -0.38543440564E+02 -0.30175148902E+03  0.78270483499E+03  0.83974187501E+03  0.00000000000E+00 0.  1.
        -11    1    3    3    0    0 -0.59893759299E+01 -0.43617917498E+03  0.14220490907E+04  0.14874514317E+04  0.00000000000E+00 0. -1.
         22    1    1    2    0    0  0.44532816494E+02  0.73793066400E+03  0.16067519991E+04  0.17686652660E+04  0.00000000000E+00 0. -1.
<mgrwt>
<rscale>  0 0.14994933E+04</rscale>
<asrwt>0</asrwt>
<pdfrwt beam="1">  1        2 0.21873284E-01 0.14994933E+04</pdfrwt>
<pdfrwt beam="2">  1       -2 0.60825872E+00 0.14994933E+04</pdfrwt>
<totfact> 0.11446770E-01</totfact>
</mgrwt>
</event>
<event>
 6    1  0.1568961E-005  0.2237746E+04  0.7818608E-02  0.8502880E-01
          1   -1    0    0  501    0  0.00000000000E+00  0.00000000000E+00  0.84139394990E+03  0.84139394990E+03  0.00000000000E+00 0. -1.
         -1   -1    0    0    0  501 -0.00000000000E+00 -0.00000000000E+00 -0.14878602399E+04  0.14878602399E+04  0.00000000000E+00 0.  1.
         23    2    1    2    0    0 -0.72446340436E+03  0.80642921303E+03 -0.60444873439E+03  0.12443851770E+04  0.89223855757E+02 0.  0.
         13    1    3    3    0    0 -0.18516301185E+03  0.26688337306E+03 -0.17595733307E+03  0.36942260195E+03  0.00000000000E+00 0.  1.
        -13    1    3    3    0    0 -0.53930039251E+03  0.53954583998E+03 -0.42849140132E+03  0.87496257508E+03  0.00000000000E+00 0. -1.
         22    1    1    2    0    0  0.72446340436E+03 -0.80642921303E+03 -0.42017555627E+02  0.10848690128E+04  0.00000000000E+00 0. -1.
<mgrwt>
<rscale>  0 0.22377458E+04</rscale>
<asrwt>0</asrwt>
<pdfrwt beam="1">  1        1 0.12944522E+00 0.22377458E+04</pdfrwt>
<pdfrwt beam="2">  1       -1 0.22890157E+00 0.22377458E+04</pdfrwt>
<totfact> 0.17764867E+00</totfact>
</mgrwt>
</event>
<event>
 6    1  0.1568961E-005  0.1350694E+04  0.7818608E-02  0.8990303E-01
          2   -1    0    0  501    0  0.00000000000E+00  0.00000000000E+00  0.43947010522E+03  0.43947010522E+03  0.00000000000E+00 0.  1.
         -2   -1    0    0    0  501 -0.00000000000E+00 -0.00000000000E+00 -0.10378256565E+04  0.10378256565E+04  0.00000000000E+00 0. -1.
         23    2    1    2    0    0  0.28580219944E+03 -0.27357727543E+03  0.29420223657E+03  0.50098288795E+03  0.88890242308E+02 0.  0.
         11    1    3    3    0    0  0.51947269555E+02 -0.97295395279E+02  0.57214554421E+02  0.12425143055E+03  0.00000000000E+00 0. -1.
        -11    1    3    3    0    0  0.23385492989E+03 -0.17628188015E+03  0.23698768215E+03  0.37673145740E+03  0.00000000000E+00 0.  1.
         22    1    1    2    0    0 -0.28580219944E+03  0.27357727543E+03 -0.89255778786E+03  0.97631287378E+03  0.00000000000E+00 0. -1.
<mgrwt>
<rscale>  0 0.13506937E+04</rscale>
<asrwt>0</asrwt>
<pdfrwt beam="1">  1        2 0.67610786E-01 0.13506937E+04</pdfrwt>
<pdfrwt beam="2">  1       -2 0.15966548E+00 0.13506937E+04</pdfrwt>
<totfact> 0.17661930E+01</totfact>
</mgrwt>
</event>
<event>
 6    1  0.1568961E-005  0.3997248E+03  0.7818608E-02  0.1043875E+00
          2   -1    0    0  501    0  0.00000000000E+00  0.00000000000E+00  0.13852986722E+03  0.13852986722E+03  0.00000000000E+00 0. -1.
         -2   -1    0    0    0  501 -0.00000000000E+00 -0.00000000000E+00 -0.28834927111E+03  0.28834927111E+03  0.00000000000E+00 0.  1.
         23    2    1    2    0    0 -0.11405196147E+03  0.20981399580E+02 -0.23882587760E+03  0.28069356651E+03  0.91120850674E+02 0.  0.
         13    1    3    3    0    0 -0.84661040451E+02  0.55543403740E+02 -0.17839159873E+03  0.20512465471E+03  0.00000000000E+00 0.  1.
        -13    1    3    3    0    0 -0.29390921023E+02 -0.34562004159E+02 -0.60434278861E+02  0.75568911805E+02  0.00000000000E+00 0. -1.
         22    1    1    2    0    0  0.11405196147E+03 -0.20981399580E+02  0.89006473708E+02  0.14618557181E+03  0.00000000000E+00 0. -1.
<mgrwt>
<rscale>  0 0.39972484E+03</rscale>
<asrwt>0</asrwt>
<pdfrwt beam="1">  1        2 0.21312288E-01 0.39972484E+03</pdfrwt>
<pdfrwt beam="2">  1       -2 0.44361426E-01 0.39972484E+03</pdfrwt>
<totfact> 0.12661303E+03</totfact>
</mgrwt>
</event>
<event>
 6    1  0.1568961E-005  0.1363054E+04  0.7818608E-02  0.8981005E-01
         -4   -1    0    0    0  501 -0.00000000000E+00  0.00000000000E+00  0.35647325668E+03  0.35647325668E+03  0.00000000000E+00 0.  1.
          4   -1    0    0  501    0  0.00000000000E+00 -0.00000000000E+00 -0.13029834869E+04  0.13029834869E+04  0.00000000000E+00 0. -1.
         23    2    1    2    0    0 -0.67640396452E+03 -0.22756103941E+02 -0.41823977816E+03  0.80090573518E+03  0.92115802772E+02 0.  0.
         11    1    3    3    0    0 -0.38859798797E+03  0.26894675184E+02 -0.26463891905E+03  0.47091982044E+03  0.00000000000E+00 0.  1.
        -11    1    3    3    0    0 -0.28780597655E+03 -0.49650779125E+02 -0.15360085911E+03  0.32998591474E+03  0.00000000000E+00 0. -1.
         22    1    1    2    0    0  0.67640396452E+03  0.22756103941E+02 -0.52827045203E+03  0.85855100837E+03  0.00000000000E+00 0.  1.
<mgrwt>
<rscale>  0 0.13630536E+04</rscale>
<asrwt>0</asrwt>
<pdfrwt beam="1">  1        4 0.20045900E+00 0.13630536E+04</pdfrwt>
<pdfrwt beam="2">  1       -4 0.54842039E-01 0.13630536E+04</pdfrwt>
<totfact> 0.80997662E-01</totfact>
</mgrwt>
</event>
<event>
 6    1  0.1568961E-005  0.3200826E+04  0.7818608E-02  0.8188599E-01
         -1   -1    0    0    0  501 -0.00000000000E+00  0.00000000000E+00  0.11785274702E+04  0.11785274702E+04  0.00000000000E+00 0.  1.
          1   -1    0    0  501    0  0.00000000000E+00 -0.00000000000E+00 -0.21733243585E+04  0.21733243585E+04  0.00000000000E+00 0. -1.
         23    2    1    2    0    0  0.52283406169E+03 -0.13306312935E+04 -0.12479334444E+04  0.18999519659E+04  0.92436442062E+02 0.  0.
         11    1    3    3    0    0  0.20950913799E+03 -0.41526671732E+03 -0.40976287442E+03  0.61987590586E+03  0.00000000000E+00 0.  1.
        -11    1    3    3    0    0  0.31332492370E+03 -0.91536457619E+03 -0.83817057001E+03  0.12800760601E+04  0.00000000000E+00 0. -1.
         22    1    1    2    0    0 -0.52283406169E+03  0.13306312935E+04  0.25313655614E+03  0.14518998627E+04  0.00000000000E+00 0.  1.
<mgrwt>
<rscale>  0 0.32008264E+04</rscale>
<asrwt>0</asrwt>
<pdfrwt beam="1">  1        1 0.33435759E+00 0.32008264E+04</pdfrwt>
<pdfrwt beam="2">  1       -1 0.18131192E+00 0.32008264E+04</pdfrwt>
<totfact> 0.38701310E-01</totfact>
</mgrwt>
</event>
<event>
 6    1  0.1568961E-005  0.2116033E+04  0.7818608E-02  0.8554213E-01
         -1   -1    0    0    0  501 -0.00000000000E+00  0.00000000000E+00  0.59675975463E+03  0.59675975463E+03  0.00000000000E+00 0.  1.
          1   -1    0    0  501    0  0.00000000000E+00 -0.00000000000E+00 -0.18757954141E+04  0.18757954141E+04  0.00000000000E+00 0. -1.
         23    2    1    2    0    0  0.83187717572E+03 -0.59157700357E+03 -0.95613881409E+03  0.14019266807E+04  0.95989581086E+02 0.  0.
         13    1    3    3    0    0  0.34512765134E+03 -0.21112596851E+03 -0.32737368990E+03  0.52044289133E+03  0.00000000000E+00 0. -1.
        -13    1    3    3    0    0  0.48674952438E+03 -0.38045103506E+03 -0.62876512419E+03  0.88148378939E+03  0.00000000000E+00 0.  1.
         22    1    1    2    0    0 -0.83187717572E+03  0.59157700357E+03 -0.32289684542E+03  0.10706284880E+04  0.00000000000E+00 0.  1.
<mgrwt>
<rscale>  0 0.21160333E+04</rscale>
<asrwt>0</asrwt>
<pdfrwt beam="1">  1        1 0.28858391E+00 0.21160333E+04</pdfrwt>
<pdfrwt beam="2">  1       -1 0.91809194E-01 0.21160333E+04</pdfrwt>
<totfact> 0.38403961E+00</totfact>
</mgrwt>
</event>
<event>
 6    1  0.1568961E-005  0.2182617E+04  0.7818608E-02  0.8525698E-01
          1   -1    0    0  501    0  0.00000000000E+00  0.00000000000E+00  0.27056883334E+04  0.27056883334E+04  0.00000000000E+00 0. -1.
         -1   -1    0    0    0  501 -0.00000000000E+00 -0.00000000000E+00 -0.44016692752E+03  0.44016692752E+03  0.00000000000E+00 0.  1.
         23    2    1    2    0    0 -0.69261842286E+03  0.53372902144E+03  0.19781942784E+03  0.90086563555E+03  0.88540495130E+02 0.  0.
         11    1    3    3    0    0 -0.39837867980E+03  0.26894171793E+03  0.75481295669E+02  0.48655179186E+03  0.00000000000E+00 0. -1.
        -11    1    3    3    0    0 -0.29423974306E+03  0.26478730351E+03  0.12233813217E+03  0.41431384370E+03  0.00000000000E+00 0.  1.
         22    1    1    2    0    0  0.69261842286E+03 -0.53372902144E+03  0.20677019781E+04  0.22449896254E+04  0.00000000000E+00 0. -1.
<mgrwt>
<rscale>  0 0.21826173E+04</rscale>
<asrwt>0</asrwt>
<pdfrwt beam="1">  1        1 0.41625973E+00 0.21826173E+04</pdfrwt>
<pdfrwt beam="2">  1       -1 0.67717990E-01 0.21826173E+04</pdfrwt>
<totfact> 0.19612361E+00</totfact>
</mgrwt>
</event>
<event>
 6    1  0.1568961E-005  0.4894608E+04  0.7818608E-02  0.7844974E-01
         -2   -1    0    0    0  501 -0.00000000000E+00  0.00000000000E+00  0.25690356265E+04  0.25690356265E+04  0.00000000000E+00 0.  1.
          2   -1    0    0  501    0  0.00000000000E+00 -0.00000000000E+00 -0.23313402009E+04  0.23313402009E+04  0.00000000000E+00 0. -1.
         23    2    1    2    0    0  0.90358314056E+03  0.20869910289E+04  0.10217132582E+04  0.24948243297E+04  0.90864774569E+02 0.  0.
         13    1    3    3    0    0  0.31957444043E+03  0.81041746484E+03  0.42813094653E+03  0.97067007663E+03  0.00000000000E+00 0.  1.
        -13    1    3    3    0    0  0.58400870012E+03  0.12765735641E+04  0.59358231163E+03  0.15241542530E+04  0.00000000000E+00 0. -1.
         22    1    1    2    0    0 -0.90358314056E+03 -0.20869910289E+04 -0.78401783257E+03  0.24055514978E+04  0.00000000000E+00 0. -1.
<mgrwt>
<rscale>  0 0.48946077E+04</rscale>
<asrwt>0</asrwt>
<pdfrwt beam="1">  1        2 0.35866772E+00 0.48946077E+04</pdfrwt>
<pdfrwt beam="2">  1       -2 0.39523625E+00 0.48946077E+04</pdfrwt>
<totfact> 0.25485403E-02</totfact>
</mgrwt>
</event>
<event>
 6    1  0.1568961E-005  0.4245239E+04  0.7818608E-02  0.7956822E-01
         -1   -1    0    0    0  501 -0.00000000000E+00  0.00000000000E+00  0.24411669264E+04  0.24411669264E+04  0.00000000000E+00 0.  1.
          1   -1    0    0  501    0  0.00000000000E+00 -0.00000000000E+00 -0.18456396721E+04  0.18456396721E+04  0.00000000000E+00 0. -1.
         23    2    1    2    0    0 -0.17393898208E+04  0.88024440344E+03  0.11433696251E+04  0.22618526677E+04  0.91521758320E+02 0.  0.
         11    1    3    3    0    0 -0.37128794700E+03  0.14678567256E+03  0.23855482510E+03  0.46509050499E+03  0.00000000000E+00 0. -1.
        -11    1    3    3    0    0 -0.13681018738E+04  0.73345873088E+03  0.90481479999E+03  0.17967621627E+04  0.00000000000E+00 0.  1.
         22    1    1    2    0    0  0.17393898208E+04 -0.88024440344E+03 -0.54784237080E+03  0.20249539308E+04  0.00000000000E+00 0. -1.
<mgrwt>
<rscale>  0 0.42452395E+04</rscale>
<asrwt>0</asrwt>
<pdfrwt beam="1">  1        1 0.28394456E+00 0.42452395E+04</pdfrwt>
<pdfrwt beam="2">  1       -1 0.37556414E+00 0.42452395E+04</pdfrwt>
<totfact> 0.30492102E-02</totfact>
</mgrwt>
</event>
<event>
 6    1  0.1568961E-005  0.2535730E+04  0.7818608E-02  0.8390366E-01
         -2   -1    0    0    0  501 -0.00000000000E+00  0.00000000000E+00  0.73788205078E+03  0.73788205078E+03  0.00000000000E+00 0.  1.
          2   -1    0    0  501    0  0.00000000000E+00 -0.00000000000E+00 -0.21785077318E+04  0.21785077318E+04  0.00000000000E+00 0. -1.
         23    2    1    2    0    0 -0.27960867747E+03 -0.14337012935E+02 -0.21414735370E+04  0.21616883319E+04  0.92741426508E+02 0.  0.
         11    1    3    3    0    0 -0.20330842882E+03 -0.24192295563E+02 -0.12250851425E+04  0.12420761614E+04  0.00000000000E+00 0.  1.
        -11    1    3    3    0    0 -0.76300248648E+02  0.98552826285E+01 -0.91638839452E+03  0.91961217051E+03  0.00000000000E+00 0. -1.
         22    1    1    2    0    0  0.27960867747E+03  0.14337012935E+02  0.70084785597E+03  0.75470145069E+03  0.00000000000E+00 0.  1.
<mgrwt>
<rscale>  0 0.25357301E+04</rscale>
<asrwt>0</asrwt>
<pdfrwt beam="1">  1        2 0.33515504E+00 0.25357301E+04</pdfrwt>
<pdfrwt beam="2">  1       -2 0.11352031E+00 0.25357301E+04</pdfrwt>
<totfact> 0.28732119E+00</totfact>
</mgrwt>
</event>
<event>
 6    1  0.1568961E-005  0.3533992E+04  0.7818608E-02  0.8105781E-01
         -1   -1    0    0    0  501 -0.00000000000E+00  0.00000000000E+00  0.13311036819E+04  0.13311036819E+04  0.00000000000E+00 0.  1.
          1   -1    0    0  501    0  0.00000000000E+00 -0.00000000000E+00 -0.23456283147E+04  0.23456283147E+04  0.00000000000E+00 0. -1.
         23    2    1    2    0    0 -0.14684234162E+04 -0.97792286457E+03 -0.58485515614E+03  0.18609081293E+04  0.91230771122E+02 0.  0.
         13    1    3    3    0    0 -0.30960689615E+03 -0.16339328526E+03 -0.10832850188E+03  0.36645444483E+03  0.00000000000E+00 0. -1.
        -13    1    3    3    0    0 -0.11588165200E+04 -0.81452957931E+03 -0.47652665426E+03  0.14944536844E+04  0.00000000000E+00 0.  1.
         22    1    1    2    0    0  0.14684234162E+04  0.97792286457E+03 -0.42966947661E+03  0.18158238674E+04  0.00000000000E+00 0.  1.
<mgrwt>
<rscale>  0 0.35339918E+04</rscale>
<asrwt>0</asrwt>
<pdfrwt beam="1">  1        1 0.36086589E+00 0.35339918E+04</pdfrwt>
<pdfrwt beam="2">  1       -1 0.20478518E+00 0.35339918E+04</pdfrwt>
<totfact> 0.19655187E-01</totfact>
</mgrwt>
</event>
<event>
 6    1  0.1568961E-005  0.2127715E+04  0.7818608E-02  0.8549132E-01
          2   -1    0    0  501    0  0.00000000000E+00  0.00000000000E+00  0.11412927398E+04  0.11412927398E+04  0.00000000000E+00 0. -1.
         -2   -1    0    0    0  501 -0.00000000000E+00 -0.00000000000E+00 -0.99167635350E+03  0.99167635350E+03  0.00000000000E+00 0.  1.
         23    2    1    2    0    0  0.17060997520E+03 -0.22566124150E+03  0.11009799559E+04  0.11404352646E+04  0.91678623046E+02 0.  0.
         13    1    3    3    0    0  0.82018481557E+02 -0.10280443884E+03  0.69024356310E+03  0.70266062958E+03  0.00000000000E+00 0. -1.
        -13    1    3    3    0    0  0.88591493641E+02 -0.12285680266E+03  0.41073639279E+03  0.43777463502E+03  0.00000000000E+00 0.  1.
         22    1    1    2    0    0 -0.17060997520E+03  0.22566124150E+03 -0.95136356959E+03  0.99253382869E+03  0.00000000000E+00 0.  1.
<mgrwt>
<rscale>  0 0.21277152E+04</rscale>
<asrwt>0</asrwt>
<pdfrwt beam="1">  1        2 0.17558350E+00 0.21277152E+04</pdfrwt>
<pdfrwt beam="2">  1       -2 0.15256559E+00 0.21277152E+04</pdfrwt>
<totfact> 0.54120810E+00</totfact>
</mgrwt>
</event>
<event>
 6    1  0.1568961E-005  0.3497761E+04  0.7818608E-02  0.8114321E-01
         -2   -1    0    0    0  501 -0.00000000000E+00  0.00000000000E+00  0.87034970053E+03  0.87034970053E+03  0.00000000000E+00 0.  1.
          2   -1    0    0  501    0  0.00000000000E+00 -0.00000000000E+00 -0.35142000271E+04  0.35142000271E+04  0.00000000000E+00 0. -1.
         23    2    1    2    0    0 -0.67366749494E+03  0.15239062122E+04 -0.19840136603E+04  0.25924831933E+04  0.92416806543E+02 0.  0.
         11    1    3    3    0    0 -0.23956302207E+03  0.64750920369E+03 -0.84557122285E+03  0.10916269066E+04  0.00000000000E+00 0.  1.
        -11    1    3    3    0    0 -0.43410447287E+03  0.87639700846E+03 -0.11384424375E+04  0.15008562867E+04  0.00000000000E+00 0. -1.
         22    1    1    2    0    0  0.67366749494E+03 -0.15239062122E+04 -0.65983666620E+03  0.17920665343E+04  0.00000000000E+00 0.  1.
<mgrwt>
<rscale>  0 0.34977610E+04</rscale>
<asrwt>0</asrwt>
<pdfrwt beam="1">  1        2 0.54064616E+00 0.34977610E+04</pdfrwt>
<pdfrwt beam="2">  1       -2 0.13389995E+00 0.34977610E+04</pdfrwt>
<totfact> 0.26262862E-01</totfact>
</mgrwt>
</event>
<event>
 6    1  0.1568961E-005  0.1149976E+04  0.7818608E-02  0.9157806E-01
          2   -1    0    0  501    0  0.00000000000E+00  0.00000000000E+00  0.13895049142E+04  0.13895049142E+04  0.00000000000E+00 0. -1.
         -2   -1    0    0    0  501 -0.00000000000E+00 -0.00000000000E+00 -0.23793441142E+03  0.23793441142E+03  0.00000000000E+00 0.  1.
         23    2    1    2    0    0  0.48461681787E+03  0.17800823380E+03  0.23331926863E+03  0.57400412568E+03  0.92208804993E+02 0.  0.
         11    1    3    3    0    0  0.45192275697E+03  0.14259263911E+03  0.19503497933E+03  0.51245046801E+03  0.00000000000E+00 0. -1.
        -11    1    3    3    0    0  0.32694060898E+02  0.35415594698E+02  0.38284289301E+02  0.61553657674E+02  0.00000000000E+00 0.  1.
         22    1    1    2    0    0 -0.48461681787E+03 -0.17800823380E+03  0.91825123416E+03  0.10534351999E+04  0.00000000000E+00 0. -1.
<mgrwt>
<rscale>  0 0.11499757E+04</rscale>
<asrwt>0</asrwt>
<pdfrwt beam="1">  1        2 0.21376998E+00 0.11499757E+04</pdfrwt>
<pdfrwt beam="2">  1       -2 0.36605295E-01 0.11499757E+04</pdfrwt>
<totfact> 0.10199458E+02</totfact>
</mgrwt>
</event>
<event>
 6    1  0.1568961E-005  0.8625193E+03  0.7818608E-02  0.9473686E-01
          2   -1    0    0  501    0  0.00000000000E+00  0.00000000000E+00  0.23427837764E+04  0.23427837764E+04  0.00000000000E+00 0.  1.
         -2   -1    0    0    0  501 -0.00000000000E+00 -0.00000000000E+00 -0.79386280692E+02  0.79386280692E+02  0.00000000000E+00 0. -1.
         23    2    1    2    0    0 -0.21468954689E+03  0.30806992957E+03  0.17062145440E+04  0.17502686322E+04  0.10617688913E+03 0.  0.
         13    1    3    3    0    0 -0.82735357203E+02  0.60006324091E+02  0.61641813600E+03  0.62483375121E+03  0.00000000000E+00 0.  1.
        -13    1    3    3    0    0 -0.13195418969E+03  0.24806360548E+03  0.10897964080E+04  0.11254348810E+04  0.00000000000E+00 0. -1.
         22    1    1    2    0    0  0.21468954689E+03 -0.30806992957E+03  0.55718295171E+03  0.67190142486E+03  0.00000000000E+00 0. -1.
<mgrwt>
<rscale>  0 0.86251931E+03</rscale>
<asrwt>0</asrwt>
<pdfrwt beam="1">  1        2 0.36042822E+00 0.86251931E+03</pdfrwt>
<pdfrwt beam="2">  1       -2 0.12213276E-01 0.86251931E+03</pdfrwt>
<totfact> 0.21668610E+02</totfact>
</mgrwt>
</event>
<event>
 6    1  0.1568961E-005  0.2435553E+04  0.7818608E-02  0.8426312E-01
          3   -1    0    0  501    0  0.00000000000E+00  0.00000000000E+00  0.85135438234E+03  0.85135438234E+03  0.00000000000E+00 0. -1.
         -3   -1    0    0    0  501 -0.00000000000E+00 -0.00000000000E+00 -0.17419059181E+04  0.17419059181E+04  0.00000000000E+00 0.  1.
         23    2    1    2    0    0  0.19048680655E+03  0.10003748850E+04  0.26158653478E+03  0.10555811182E+04  0.93748855793E+02 0.  0.
         11    1    3    3    0    0  0.75879937842E+02  0.64030736200E+03  0.16432324588E+03  0.66539718359E+03  0.00000000000E+00 0.  1.
        -11    1    3    3    0    0  0.11460686871E+03  0.36006752297E+03  0.97263288904E+02  0.39018393460E+03  0.00000000000E+00 0. -1.
         22    1    1    2    0    0 -0.19048680655E+03 -0.10003748850E+04 -0.11521380706E+04  0.15376791823E+04  0.00000000000E+00 0.  1.
<mgrwt>
<rscale>  0 0.24355527E+04</rscale>
<asrwt>0</asrwt>
<pdfrwt beam="1">  1        3 0.13097760E+00 0.24355527E+04</pdfrwt>
<pdfrwt beam="2">  1       -3 0.26798552E+00 0.24355527E+04</pdfrwt>
<totfact> 0.61459020E-02</totfact>
</mgrwt>
</event>
<event>
 6    1  0.1568961E-005  0.5176072E+04  0.7818608E-02  0.7801906E-01
          2   -1    0    0  501    0  0.00000000000E+00  0.00000000000E+00  0.34512445616E+04  0.34512445616E+04  0.00000000000E+00 0. -1.
         -2   -1    0    0    0  501 -0.00000000000E+00 -0.00000000000E+00 -0.19407287446E+04  0.19407287446E+04  0.00000000000E+00 0.  1.
         23    2    1    2    0    0 -0.16244743990E+04 -0.74206432774E+03 -0.11945951538E+04  0.21504918696E+04  0.89337339294E+02 0.  0.
         13    1    3    3    0    0 -0.71931682234E+03 -0.37502663380E+03 -0.52527176272E+03  0.96642231538E+03  0.00000000000E+00 0. -1.
        -13    1    3    3    0    0 -0.90515757670E+03 -0.36703769394E+03 -0.66932339109E+03  0.11840695542E+04  0.00000000000E+00 0.  1.
         22    1    1    2    0    0  0.16244743990E+04  0.74206432774E+03  0.27051109707E+04  0.32414814366E+04  0.00000000000E+00 0. -1.
<mgrwt>
<rscale>  0 0.51760717E+04</rscale>
<asrwt>0</asrwt>
<pdfrwt beam="1">  1        2 0.53096070E+00 0.51760717E+04</pdfrwt>
<pdfrwt beam="2">  1       -2 0.29857365E+00 0.51760717E+04</pdfrwt>
<totfact> 0.20429967E-02</totfact>
</mgrwt>
</event>
<event>
 6    1  0.1568961E-005  0.4278957E+04  0.7818608E-02  0.7950521E-01
          2   -1    0    0  501    0  0.00000000000E+00  0.00000000000E+00  0.19871760947E+04  0.19871760947E+04  0.00000000000E+00 0. -1.
         -2   -1    0    0    0  501 -0.00000000000E+00 -0.00000000000E+00 -0.23034535041E+04  0.23034535041E+04  0.00000000000E+00 0.  1.
         23    2    1    2    0    0  0.98687378385E+03 -0.13227520629E+04 -0.15217488374E+04  0.22469186973E+04  0.96598254925E+02 0.  0.
         13    1    3    3    0    0  0.83890392654E+03 -0.10923579692E+04 -0.13094779772E+04  0.19004573933E+04  0.00000000000E+00 0.  1.
        -13    1    3    3    0    0  0.14796985731E+03 -0.23039409370E+03 -0.21227086022E+03  0.34646130402E+03  0.00000000000E+00 0. -1.
         22    1    1    2    0    0 -0.98687378385E+03  0.13227520629E+04  0.12054714281E+04  0.20437109015E+04  0.00000000000E+00 0. -1.
<mgrwt>
<rscale>  0 0.42789568E+04</rscale>
<asrwt>0</asrwt>
<pdfrwt beam="1">  1        2 0.30571940E+00 0.42789568E+04</pdfrwt>
<pdfrwt beam="2">  1       -2 0.35437746E+00 0.42789568E+04</pdfrwt>
<totfact> 0.76468919E-02</totfact>
</mgrwt>
</event>
<event>
 6    1  0.1568961E-005  0.1766828E+04  0.7818608E-02  0.8724141E-01
          1   -1    0    0  501    0  0.00000000000E+00  0.00000000000E+00  0.11060146809E+04  0.11060146809E+04  0.00000000000E+00 0. -1.
         -1   -1    0    0    0  501 -0.00000000000E+00 -0.00000000000E+00 -0.70561516935E+03  0.70561516935E+03  0.00000000000E+00 0.  1.
         23    2    1    2    0    0 -0.12208478212E+03  0.68679715358E+03 -0.35051803854E+03  0.78670439382E+03  0.97189936376E+02 0.  0.
         11    1    3    3    0    0 -0.61755983339E+02  0.29983216441E+03 -0.20724697919E+03  0.36968153684E+03  0.00000000000E+00 0.  1.
        -11    1    3    3    0    0 -0.60328798786E+02  0.38696498917E+03 -0.14327105934E+03  0.41702285699E+03  0.00000000000E+00 0. -1.
         22    1    1    2    0    0  0.12208478212E+03 -0.68679715358E+03  0.75091755005E+03  0.10249254564E+04  0.00000000000E+00 0. -1.
<mgrwt>
<rscale>  0 0.17668285E+04</rscale>
<asrwt>0</asrwt>
<pdfrwt beam="1">  1        1 0.17015610E+00 0.17668285E+04</pdfrwt>
<pdfrwt beam="2">  1       -1 0.10855618E+00 0.17668285E+04</pdfrwt>
<totfact> 0.93500407E+00</totfact>
</mgrwt>
</event>
<event>
 6    1  0.1568961E-005  0.3101486E+04  0.7818608E-02  0.8215330E-01
          1   -1    0    0  501    0  0.00000000000E+00  0.00000000000E+00  0.14246972314E+04  0.14246972314E+04  0.00000000000E+00 0. -1.
         -1   -1    0    0    0  501 -0.00000000000E+00 -0.00000000000E+00 -0.16879402387E+04  0.16879402387E+04  0.00000000000E+00 0.  1.
         23    2    1    2    0    0 -0.76214534618E+02  0.11844915958E+04 -0.11312718829E+04  0.16421602942E+04  0.89918645906E+02 0.  0.
         13    1    3    3    0    0  0.10386875023E+02  0.16410723586E+03 -0.18947766812E+03  0.25088016811E+03  0.00000000000E+00 0. -1.
        -13    1    3    3    0    0 -0.86601409641E+02  0.10203843600E+04 -0.94179421480E+03  0.13912801261E+04  0.00000000000E+00 0.  1.
         22    1    1    2    0    0  0.76214534618E+02 -0.11844915958E+04  0.86802887563E+03  0.14704771759E+04  0.00000000000E+00 0. -1.
<mgrwt>
<rscale>  0 0.31014860E+04</rscale>
<asrwt>0</asrwt>
<pdfrwt beam="1">  1        1 0.21918419E+00 0.31014860E+04</pdfrwt>
<pdfrwt beam="2">  1       -1 0.25968311E+00 0.31014860E+04</pdfrwt>
<totfact> 0.37548639E-01</totfact>
</mgrwt>
</event>
<event>
 6    1  0.1568961E-005  0.4998274E+03  0.7818608E-02  0.1013824E+00
         -2   -1    0    0    0  501 -0.00000000000E+00  0.00000000000E+00  0.83483713526E+02  0.83483713526E+02  0.00000000000E+00 0.  1.
          2   -1    0    0  501    0  0.00000000000E+00 -0.00000000000E+00 -0.74813221346E+03  0.74813221346E+03  0.00000000000E+00 0. -1.
         23    2    1    2    0    0 -0.15967764278E+03 -0.60004714813E+02 -0.62779889102E+03  0.65710114515E+03  0.92482171175E+02 0.  0.
         11    1    3    3    0    0 -0.85157852315E+02 -0.65378265636E+02 -0.25149304780E+03  0.27345005123E+03  0.00000000000E+00 0. -1.
        -11    1    3    3    0    0 -0.74519790463E+02  0.53735508227E+01 -0.37630584322E+03  0.38365109391E+03  0.00000000000E+00 0.  1.
         22    1    1    2    0    0  0.15967764278E+03  0.60004714813E+02 -0.36849608912E+02  0.17451478184E+03  0.00000000000E+00 0.  1.
<mgrwt>
<rscale>  0 0.49982739E+03</rscale>
<asrwt>0</asrwt>
<pdfrwt beam="1">  1        2 0.11509727E+00 0.49982739E+03</pdfrwt>
<pdfrwt beam="2">  1       -2 0.12843648E-01 0.49982739E+03</pdfrwt>
<totfact> 0.17132285E+03</totfact>
</mgrwt>
</event>
<event>
 6    1  0.1568961E-005  0.1295451E+04  0.7818608E-02  0.9033181E-01
         -1   -1    0    0    0  501 -0.00000000000E+00  0.00000000000E+00  0.34727123089E+03  0.34727123089E+03  0.00000000000E+00 0.  1.
          1   -1    0    0  501    0  0.00000000000E+00 -0.00000000000E+00 -0.12081279963E+04  0.12081279963E+04  0.00000000000E+00 0. -1.
         23    2    1    2    0    0  0.43988177572E+03  0.21417109613E+03  0.71300001669E+02  0.50264974443E+03  0.90597131858E+02 0.  0.
         11    1    3    3    0    0  0.25102434766E+03  0.12138845865E+03 -0.48503478514E+01  0.27887614972E+03  0.00000000000E+00 0. -1.
        -11    1    3    3    0    0  0.18885742807E+03  0.92782637484E+02  0.76150349520E+02  0.22377359470E+03  0.00000000000E+00 0.  1.
         22    1    1    2    0    0 -0.43988177572E+03 -0.21417109613E+03 -0.93215676705E+03  0.10527494827E+04  0.00000000000E+00 0. -1.
<mgrwt>
<rscale>  0 0.12954506E+04</rscale>
<asrwt>0</asrwt>
<pdfrwt beam="1">  1        1 0.18586584E+00 0.12954506E+04</pdfrwt>
<pdfrwt beam="2">  1       -1 0.53426343E-01 0.12954506E+04</pdfrwt>
<totfact> 0.36609395E+01</totfact>
</mgrwt>
</event>
<event>
 6    1  0.1568961E-005  0.1000864E+04  0.7818608E-02  0.9307598E-01
         -1   -1    0    0    0  501 -0.00000000000E+00  0.00000000000E+00  0.54154573228E+03  0.54154573228E+03  0.00000000000E+00 0.  1.
          1   -1    0    0  501    0  0.00000000000E+00 -0.00000000000E+00 -0.46243933625E+03  0.46243933625E+03  0.00000000000E+00 0. -1.
         23    2    1    2    0    0 -0.53793207070E+02  0.43128471687E+03  0.28018612129E+03  0.52509753263E+03  0.91230148965E+02 0.  0.
         13    1    3    3    0    0 -0.11298545847E+02  0.20020163772E+03  0.18076363574E+03  0.26997008147E+03  0.00000000000E+00 0. -1.
        -13    1    3    3    0    0 -0.42494661223E+02  0.23108307915E+03  0.99422485544E+02  0.25512745115E+03  0.00000000000E+00 0.  1.
         22    1    1    2    0    0  0.53793207070E+02 -0.43128471687E+03 -0.20107972527E+03  0.47888753590E+03  0.00000000000E+00 0. -1.
<mgrwt>
<rscale>  0 0.10008637E+04</rscale>
<asrwt>0</asrwt>
<pdfrwt beam="1">  1        1 0.71144513E-01 0.10008637E+04</pdfrwt>
<pdfrwt beam="2">  1       -1 0.83314728E-01 0.10008637E+04</pdfrwt>
<totfact> 0.70769431E+01</totfact>
</mgrwt>
</event>
<event>
 6    1  0.1568961E-005  0.6709141E+03  0.7818608E-02  0.9768308E-01
         -1   -1    0    0    0  501 -0.00000000000E+00  0.00000000000E+00  0.70361130141E+02  0.70361130141E+02  0.00000000000E+00 0.  1.
          1   -1    0    0  501    0  0.00000000000E+00 -0.00000000000E+00 -0.15993407904E+04  0.15993407904E+04  0.00000000000E+00 0. -1.
         23    2    1    2    0    0  0.17871995614E+03  0.11088273040E+03 -0.14092993730E+04  0.14277118923E+04  0.89446755381E+02 0.  0.
         11    1    3    3    0    0  0.74892327094E+02  0.49739099600E+02 -0.34151812329E+03  0.35315360287E+03  0.00000000000E+00 0. -1.
        -11    1    3    3    0    0  0.10382762905E+03  0.61143630798E+02 -0.10677812497E+04  0.10745582894E+04  0.00000000000E+00 0.  1.
         22    1    1    2    0    0 -0.17871995614E+03 -0.11088273040E+03 -0.11968028731E+03  0.24199002829E+03  0.00000000000E+00 0.  1.
<mgrwt>
<rscale>  0 0.67091408E+03</rscale>
<asrwt>0</asrwt>
<pdfrwt beam="1">  1        1 0.24605241E+00 0.67091408E+03</pdfrwt>
<pdfrwt beam="2">  1       -1 0.10824790E-01 0.67091408E+03</pdfrwt>
<totfact> 0.31867422E+02</totfact>
</mgrwt>
</event>
<event>
 6    1  0.1568961E-005  0.1879585E+04  0.7818608E-02  0.8665086E-01
         -2   -1    0    0    0  501 -0.00000000000E+00  0.00000000000E+00  0.92077759256E+03  0.92077759256E+03  0.00000000000E+00 0.  1.
          2   -1    0    0  501    0  0.00000000000E+00 -0.00000000000E+00 -0.95920001503E+03  0.95920001503E+03  0.00000000000E+00 0. -1.
         23    2    1    2    0    0 -0.34630463625E+03  0.30062575690E+03 -0.83715494209E+03  0.95895839786E+03  0.92032955863E+02 0.  0.
         13    1    3    3    0    0 -0.15304937026E+03  0.10495832946E+03 -0.25787119206E+03  0.31770727463E+03  0.00000000000E+00 0. -1.
        -13    1    3    3    0    0 -0.19325526599E+03  0.19566742743E+03 -0.57928375003E+03  0.64125112323E+03  0.00000000000E+00 0.  1.
         22    1    1    2    0    0  0.34630463625E+03 -0.30062575690E+03  0.79873251962E+03  0.92101920973E+03  0.00000000000E+00 0.  1.
<mgrwt>
<rscale>  0 0.18795849E+04</rscale>
<asrwt>0</asrwt>
<pdfrwt beam="1">  1        2 0.14756923E+00 0.18795849E+04</pdfrwt>
<pdfrwt beam="2">  1       -2 0.14165809E+00 0.18795849E+04</pdfrwt>
<totfact> 0.87474344E+00</totfact>
</mgrwt>
</event>
<event>
 6    1  0.1568961E-005  0.4418199E+04  0.7818608E-02  0.7925116E-01
          2   -1    0    0  501    0  0.00000000000E+00  0.00000000000E+00  0.49592439473E+04  0.49592439473E+04  0.00000000000E+00 0.  1.
         -2   -1    0    0    0  501 -0.00000000000E+00 -0.00000000000E+00 -0.98404543793E+03  0.98404543793E+03  0.00000000000E+00 0. -1.
         23    2    1    2    0    0 -0.39627279012E+03 -0.17896357749E+04  0.33215451946E+03  0.18651037785E+04  0.91962757343E+02 0.  0.
         13    1    3    3    0    0 -0.19764183125E+03 -0.10808960029E+04  0.17924071822E+03  0.11133398841E+04  0.00000000000E+00 0. -1.
        -13    1    3    3    0    0 -0.19863095888E+03 -0.70873977200E+03  0.15291380125E+03  0.75176389435E+03  0.00000000000E+00 0.  1.
         22    1    1    2    0    0  0.39627279012E+03  0.17896357749E+04  0.36430439899E+04  0.40781856068E+04  0.00000000000E+00 0.  1.
<mgrwt>
<rscale>  0 0.44181994E+04</rscale>
<asrwt>0</asrwt>
<pdfrwt beam="1">  1        2 0.76296059E+00 0.44181994E+04</pdfrwt>
<pdfrwt beam="2">  1       -2 0.15139161E+00 0.44181994E+04</pdfrwt>
<totfact> 0.84892451E-03</totfact>
</mgrwt>
</event>
<event>
 6    1  0.1881110E-005  0.3508381E+04  0.7818608E-02  0.8111807E-01
          2   -1    0    0  501    0  0.00000000000E+00  0.00000000000E+00  0.19065906440E+04  0.19065906440E+04  0.00000000000E+00 0. -1.
         -2   -1    0    0    0  501 -0.00000000000E+00 -0.00000000000E+00 -0.16139720270E+04  0.16139720270E+04  0.00000000000E+00 0.  1.
         23    2    1    2    0    0 -0.12675458018E+04 -0.11681305507E+04  0.46665718415E+03  0.17880815699E+04  0.90914411175E+02 0.  0.
         11    1    3    3    0    0 -0.71640623406E+03 -0.71967474712E+03  0.28437582917E+03  0.10545327146E+04  0.00000000000E+00 0. -1.
        -11    1    3    3    0    0 -0.55113956770E+03 -0.44845580354E+03  0.18228135498E+03  0.73354885535E+03  0.00000000000E+00 0.  1.
         22    1    1    2    0    0  0.12675458018E+04  0.11681305507E+04 -0.17403856717E+03  0.17324811011E+04  0.00000000000E+00 0. -1.
<mgrwt>
<rscale>  0 0.35083808E+04</rscale>
<asrwt>0</asrwt>
<pdfrwt beam="1">  1        2 0.29332164E+00 0.35083808E+04</pdfrwt>
<pdfrwt beam="2">  1       -2 0.24830339E+00 0.35083808E+04</pdfrwt>
<totfact> 0.40703424E-01</totfact>
</mgrwt>
</event>
<event>
 6    1  0.1568961E-005  0.2561093E+04  0.7818608E-02  0.8381538E-01
         -1   -1    0    0    0  501 -0.00000000000E+00  0.00000000000E+00  0.66821200281E+03  0.66821200281E+03  0.00000000000E+00 0.  1.
          1   -1    0    0  501    0  0.00000000000E+00 -0.00000000000E+00 -0.24540111624E+04  0.24540111624E+04  0.00000000000E+00 0. -1.
         23    2    1    2    0    0 -0.11454192611E+04  0.20374018182E+03 -0.24592780071E+03  0.11922752003E+04  0.86858071924E+02 0.  0.
         11    1    3    3    0    0 -0.51198308120E+03  0.10348789509E+03 -0.15280168987E+03  0.54422860664E+03  0.00000000000E+00 0.  1.
        -11    1    3    3    0    0 -0.63343617992E+03  0.10025228673E+03 -0.93126110833E+02  0.64804659365E+03  0.00000000000E+00 0. -1.
         22    1    1    2    0    0  0.11454192611E+04 -0.20374018182E+03 -0.15398713589E+04  0.19299479650E+04  0.00000000000E+00 0. -1.
<mgrwt>
<rscale>  0 0.25610933E+04</rscale>
<asrwt>0</asrwt>
<pdfrwt beam="1">  1        1 0.37754018E+00 0.25610933E+04</pdfrwt>
<pdfrwt beam="2">  1       -1 0.10280185E+00 0.25610933E+04</pdfrwt>
<totfact> 0.11517684E+00</totfact>
</mgrwt>
</event>
<event>
 6    1  0.1568961E-005  0.2612720E+04  0.7818608E-02  0.8363893E-01
         -1   -1    0    0    0  501 -0.00000000000E+00  0.00000000000E+00  0.97491142355E+03  0.97491142355E+03  0.00000000000E+00 0.  1.
          1   -1    0    0  501    0  0.00000000000E+00 -0.00000000000E+00 -0.17504937987E+04  0.17504937987E+04  0.00000000000E+00 0. -1.
         23    2    1    2    0    0  0.78019017288E+03  0.43070731081E+03  0.60603672290E+03  0.10813015681E+04  0.87903801176E+02 0.  0.
         13    1    3    3    0    0  0.63162534296E+03  0.32749863003E+03  0.44555227783E+03  0.83947767023E+03  0.00000000000E+00 0. -1.
        -13    1    3    3    0    0  0.14856482992E+03  0.10320868078E+03  0.16048444506E+03  0.24182389788E+03  0.00000000000E+00 0.  1.
         22    1    1    2    0    0 -0.78019017288E+03 -0.43070731081E+03 -0.13816190980E+04  0.16441036541E+04  0.00000000000E+00 0. -1.
<mgrwt>
<rscale>  0 0.26127200E+04</rscale>
<asrwt>0</asrwt>
<pdfrwt beam="1">  1        1 0.26930674E+00 0.26127200E+04</pdfrwt>
<pdfrwt beam="2">  1       -1 0.14998637E+00 0.26127200E+04</pdfrwt>
<totfact> 0.13517197E+00</totfact>
</mgrwt>
</event>
<event>
 6    1  0.1568961E-005  0.2259071E+04  0.7818608E-02  0.8494236E-01
         -3   -1    0    0    0  501 -0.00000000000E+00  0.00000000000E+00  0.23494907821E+04  0.23494907821E+04  0.00000000000E+00 0.  1.
          3   -1    0    0  501    0  0.00000000000E+00 -0.00000000000E+00 -0.54303258409E+03  0.54303258409E+03  0.00000000000E+00 0. -1.
         23    2    1    2    0    0  0.10361096915E+04 -0.40392914173E+03  0.66502327001E+03  0.12989250043E+04  0.90929493294E+02 0.  0.
         13    1    3    3    0    0  0.57932839045E+03 -0.22908756528E+03  0.42470472070E+03  0.75397386979E+03  0.00000000000E+00 0. -1.
        -13    1    3    3    0    0  0.45678130102E+03 -0.17484157646E+03  0.24031854931E+03  0.54495113447E+03  0.00000000000E+00 0.  1.
         22    1    1    2    0    0 -0.10361096915E+04  0.40392914173E+03  0.11414349280E+04  0.15935983619E+04  0.00000000000E+00 0.  1.
<mgrwt>
<rscale>  0 0.22590707E+04</rscale>
<asrwt>0</asrwt>
<pdfrwt beam="1">  1        3 0.83543476E-01 0.22590707E+04</pdfrwt>
<pdfrwt beam="2">  1       -3 0.36146012E+00 0.22590707E+04</pdfrwt>
<totfact> 0.54234876E-02</totfact>
</mgrwt>
</event>
<event>
 6    1  0.1568961E-005  0.3116529E+04  0.7818608E-02  0.8211216E-01
         -1   -1    0    0    0  501 -0.00000000000E+00  0.00000000000E+00  0.29399316217E+04  0.29399316217E+04  0.00000000000E+00 0.  1.
          1   -1    0    0  501    0  0.00000000000E+00 -0.00000000000E+00 -0.82593382330E+03  0.82593382330E+03  0.00000000000E+00 0. -1.
         23    2    1    2    0    0  0.82601537258E+03  0.13112717929E+04  0.12383235196E+04  0.19858259643E+04  0.91238755316E+02 0.  0.
         13    1    3    3    0    0  0.39182440518E+03  0.57623503787E+03  0.50772022029E+03  0.86217921887E+03  0.00000000000E+00 0. -1.
        -13    1    3    3    0    0  0.43419096740E+03  0.73503675501E+03  0.73060329935E+03  0.11236467454E+04  0.00000000000E+00 0.  1.
         22    1    1    2    0    0 -0.82601537258E+03 -0.13112717929E+04  0.87567427876E+03  0.17800394807E+04  0.00000000000E+00 0. -1.
<mgrwt>
<rscale>  0 0.31165295E+04</rscale>
<asrwt>0</asrwt>
<pdfrwt beam="1">  1        1 0.12706674E+00 0.31165295E+04</pdfrwt>
<pdfrwt beam="2">  1       -1 0.45229717E+00 0.31165295E+04</pdfrwt>
<totfact> 0.55132825E-02</totfact>
</mgrwt>
</event>
<event>
 6    1  0.1568961E-005  0.1996451E+04  0.7818608E-02  0.8608282E-01
         -2   -1    0    0    0  501 -0.00000000000E+00  0.00000000000E+00  0.60311559199E+03  0.60311559199E+03  0.00000000000E+00 0.  1.
          2   -1    0    0  501    0  0.00000000000E+00 -0.00000000000E+00 -0.16521778755E+04  0.16521778755E+04  0.00000000000E+00 0. -1.
         23    2    1    2    0    0  0.57120663620E+03 -0.12286254500E+03  0.38589723754E+03  0.70594487752E+03  0.89829093001E+02 0.  0.
         11    1    3    3    0    0  0.20406784799E+03 -0.49640361400E+02  0.19099981119E+03  0.28388163015E+03  0.00000000000E+00 0. -1.
        -11    1    3    3    0    0  0.36713878821E+03 -0.73222183596E+02  0.19489742635E+03  0.42206324736E+03  0.00000000000E+00 0.  1.
         22    1    1    2    0    0 -0.57120663620E+03  0.12286254500E+03 -0.14349595210E+04  0.15493485899E+04  0.00000000000E+00 0. -1.
<mgrwt>
<rscale>  0 0.19964511E+04</rscale>
<asrwt>0</asrwt>
<pdfrwt beam="1">  1        2 0.25418120E+00 0.19964511E+04</pdfrwt>
<pdfrwt beam="2">  1       -2 0.92787017E-01 0.19964511E+04</pdfrwt>
<totfact> 0.95424748E+00</totfact>
</mgrwt>
</event>
<event>
 6    1  0.1568961E-005  0.4508370E+04  0.7818608E-02  0.7909173E-01
         -2   -1    0    0    0  501 -0.00000000000E+00  0.00000000000E+00  0.24734388195E+04  0.24734388195E+04  0.00000000000E+00 0.  1.
          2   -1    0    0  501    0  0.00000000000E+00 -0.00000000000E+00 -0.20543670065E+04  0.20543670065E+04  0.00000000000E+00 0. -1.
         23    2    1    2    0    0 -0.29709969766E+03  0.72596734225E+03  0.23310461147E+04  0.24611799424E+04  0.91290239360E+02 0.  0.
         11    1    3    3    0    0 -0.22385313573E+03  0.59315308571E+03  0.19721892006E+04  0.20715866027E+04  0.00000000000E+00 0.  1.
        -11    1    3    3    0    0 -0.73246561928E+02  0.13281425655E+03  0.35885691404E+03  0.38959333969E+03  0.00000000000E+00 0. -1.
         22    1    1    2    0    0  0.29709969766E+03 -0.72596734225E+03 -0.19119743017E+04  0.20666258835E+04  0.00000000000E+00 0. -1.
<mgrwt>
<rscale>  0 0.45083705E+04</rscale>
<asrwt>0</asrwt>
<pdfrwt beam="1">  1        2 0.31605647E+00 0.45083705E+04</pdfrwt>
<pdfrwt beam="2">  1       -2 0.38052905E+00 0.45083705E+04</pdfrwt>
<totfact> 0.46869229E-02</totfact>
</mgrwt>
</event>
<event>
 6    1  0.1568961E-005  0.1869679E+04  0.7818608E-02  0.8670098E-01
         -2   -1    0    0    0  501 -0.00000000000E+00  0.00000000000E+00  0.41403675328E+03  0.41403675328E+03  0.00000000000E+00 0.  1.
          2   -1    0    0  501    0  0.00000000000E+00 -0.00000000000E+00 -0.21107428973E+04  0.21107428973E+04  0.00000000000E+00 0. -1.
         23    2    1    2    0    0  0.85600845423E+03  0.31126052071E+03 -0.11223011076E+04  0.14479441333E+04  0.85725442776E+02 0.  0.
         11    1    3    3    0    0  0.58885139221E+03  0.23249017555E+03 -0.72161282770E+03  0.95995974756E+03  0.00000000000E+00 0.  1.
        -11    1    3    3    0    0  0.26715706201E+03  0.78770345161E+02 -0.40068827993E+03  0.48798438574E+03  0.00000000000E+00 0. -1.
         22    1    1    2    0    0 -0.85600845423E+03 -0.31126052071E+03 -0.57440503643E+03  0.10768355173E+04  0.00000000000E+00 0.  1.
<mgrwt>
<rscale>  0 0.18696793E+04</rscale>
<asrwt>0</asrwt>
<pdfrwt beam="1">  1        2 0.32472967E+00 0.18696793E+04</pdfrwt>
<pdfrwt beam="2">  1       -2 0.63697964E-01 0.18696793E+04</pdfrwt>
<totfact> 0.12405996E+01</totfact>
</mgrwt>
</event>
<event>
 6    1  0.1568961E-005  0.9044565E+03  0.7818608E-02  0.9420028E-01
          2   -1    0    0  501    0  0.00000000000E+00  0.00000000000E+00  0.13486766756E+03  0.13486766756E+03  0.00000000000E+00 0. -1.
         -2   -1    0    0    0  501 -0.00000000000E+00 -0.00000000000E+00 -0.15163781427E+04  0.15163781427E+04  0.00000000000E+00 0.  1.
         23    2    1    2    0    0  0.78284403095E+02  0.35708293391E+03 -0.11697242231E+04  0.12287649397E+04  0.89285213749E+02 0.  0.
         11    1    3    3    0    0  0.15940412950E+02  0.25253388041E+03 -0.73596370052E+03  0.77824804914E+03  0.00000000000E+00 0.  1.
        -11    1    3    3    0    0  0.62343990145E+02  0.10454905350E+03 -0.43376052262E+03  0.45051689056E+03  0.00000000000E+00 0. -1.
         22    1    1    2    0    0 -0.78284403095E+02 -0.35708293391E+03 -0.21178625204E+03  0.42248087059E+03  0.00000000000E+00 0. -1.
<mgrwt>
<rscale>  0 0.90445648E+03</rscale>
<asrwt>0</asrwt>
<pdfrwt beam="1">  1        2 0.20748872E-01 0.90445648E+03</pdfrwt>
<pdfrwt beam="2">  1       -2 0.23328894E+00 0.90445648E+03</pdfrwt>
<totfact> 0.22447498E+01</totfact>
</mgrwt>
</event>
<event>
 6    1  0.1568961E-005  0.2251004E+04  0.7818608E-02  0.8497494E-01
         -1   -1    0    0    0  501 -0.00000000000E+00  0.00000000000E+00  0.93586329278E+03  0.93586329278E+03  0.00000000000E+00 0.  1.
          1   -1    0    0  501    0  0.00000000000E+00 -0.00000000000E+00 -0.13535683215E+04  0.13535683215E+04  0.00000000000E+00 0. -1.
         23    2    1    2    0    0 -0.43380341671E+03  0.48138761762E+03 -0.11427814211E+04  0.13169835604E+04  0.92611441496E+02 0.  0.
         13    1    3    3    0    0 -0.25780991903E+03  0.34790344424E+03 -0.72772413431E+03  0.84680881935E+03  0.00000000000E+00 0.  1.
        -13    1    3    3    0    0 -0.17599349768E+03  0.13348417338E+03 -0.41505728683E+03  0.47017474105E+03  0.00000000000E+00 0. -1.
         22    1    1    2    0    0  0.43380341671E+03 -0.48138761762E+03  0.72507639240E+03  0.97244805391E+03  0.00000000000E+00 0.  1.
<mgrwt>
<rscale>  0 0.22510041E+04</rscale>
<asrwt>0</asrwt>
<pdfrwt beam="1">  1        1 0.20824128E+00 0.22510041E+04</pdfrwt>
<pdfrwt beam="2">  1       -1 0.14397897E+00 0.22510041E+04</pdfrwt>
<totfact> 0.29280214E+00</totfact>
</mgrwt>
</event>
<event>
 6    1  0.1568961E-005  0.1068500E+04  0.7818608E-02  0.9236449E-01
         -4   -1    0    0    0  501 -0.00000000000E+00  0.00000000000E+00  0.56216922804E+03  0.56216922804E+03  0.00000000000E+00 0.  1.
          4   -1    0    0  501    0  0.00000000000E+00 -0.00000000000E+00 -0.50771751890E+03  0.50771751890E+03  0.00000000000E+00 0. -1.
         23    2    1    2    0    0 -0.23975947880E+03 -0.23517392380E+03  0.43831054854E+03  0.55984852221E+03  0.92319276144E+02 0.  0.
         13    1    3    3    0    0 -0.15088743785E+03 -0.83368087551E+02  0.21503801829E+03  0.27560588933E+03  0.00000000000E+00 0.  1.
        -13    1    3    3    0    0 -0.88872040947E+02 -0.15180583624E+03  0.22327253025E+03  0.28424263288E+03  0.00000000000E+00 0. -1.
         22    1    1    2    0    0  0.23975947880E+03  0.23517392380E+03 -0.38385883940E+03  0.51003822474E+03  0.00000000000E+00 0. -1.
<mgrwt>
<rscale>  0 0.10685002E+04</rscale>
<asrwt>0</asrwt>
<pdfrwt beam="1">  1        4 0.78110387E-01 0.10685002E+04</pdfrwt>
<pdfrwt beam="2">  1       -4 0.86487574E-01 0.10685002E+04</pdfrwt>
<totfact> 0.33654443E+00</totfact>
</mgrwt>
</event>
<event>
 6    1  0.1659305E-005  0.4478189E+04  0.7818608E-02  0.7914466E-01
         -2   -1    0    0    0  501 -0.00000000000E+00  0.00000000000E+00  0.23895010483E+04  0.23895010483E+04  0.00000000000E+00 0.  1.
          2   -1    0    0  501    0  0.00000000000E+00 -0.00000000000E+00 -0.20981555336E+04  0.20981555336E+04  0.00000000000E+00 0. -1.
         23    2    1    2    0    0 -0.17271952571E+04  0.51494363469E+03 -0.11840906714E+04  0.21584330327E+04  0.91608052077E+02 0.  0.
         13    1    3    3    0    0 -0.62695106002E+03  0.20225361647E+03 -0.38334643044E+03  0.76218675058E+03  0.00000000000E+00 0.  1.
        -13    1    3    3    0    0 -0.11002441971E+04  0.31269001823E+03 -0.80074424097E+03  0.13962462821E+04  0.00000000000E+00 0. -1.
         22    1    1    2    0    0  0.17271952571E+04 -0.51494363469E+03  0.14754361861E+04  0.23292235493E+04  0.00000000000E+00 0.  1.
<mgrwt>
<rscale>  0 0.44781893E+04</rscale>
<asrwt>0</asrwt>
<pdfrwt beam="1">  1        2 0.32279316E+00 0.44781893E+04</pdfrwt>
<pdfrwt beam="2">  1       -2 0.36761555E+00 0.44781893E+04</pdfrwt>
<totfact> 0.53757706E-02</totfact>
</mgrwt>
</event>
<event>
 6    1  0.1568961E-005  0.7187102E+03  0.7818608E-02  0.9685760E-01
          1   -1    0    0  501    0  0.00000000000E+00  0.00000000000E+00  0.17106350464E+03  0.17106350464E+03  0.00000000000E+00 0. -1.
         -1   -1    0    0    0  501 -0.00000000000E+00 -0.00000000000E+00 -0.75490140250E+03  0.75490140250E+03  0.00000000000E+00 0.  1.
         23    2    1    2    0    0  0.74756435389E+02 -0.34440260296E+03 -0.26164616299E+03  0.44846182696E+03  0.91965309111E+02 0.  0.
         13    1    3    3    0    0  0.53820386910E+02 -0.14865813227E+03 -0.16721698055E+03  0.23012473340E+03  0.00000000000E+00 0. -1.
        -13    1    3    3    0    0  0.20936048479E+02 -0.19574447069E+03 -0.94429182438E+02  0.21833709356E+03  0.00000000000E+00 0.  1.
         22    1    1    2    0    0 -0.74756435389E+02  0.34440260296E+03 -0.32219173487E+03  0.47750308018E+03  0.00000000000E+00 0. -1.
<mgrwt>
<rscale>  0 0.71871018E+03</rscale>
<asrwt>0</asrwt>
<pdfrwt beam="1">  1        1 0.26317462E-01 0.71871018E+03</pdfrwt>
<pdfrwt beam="2">  1       -1 0.11613868E+00 0.71871018E+03</pdfrwt>
<totfact> 0.12433552E+02</totfact>
</mgrwt>
</event>
<event>
 6    1  0.1568961E-005  0.6003109E+04  0.7818608E-02  0.7690016E-01
         -2   -1    0    0    0  501 -0.00000000000E+00  0.00000000000E+00  0.26648576891E+04  0.26648576891E+04  0.00000000000E+00 0. -1.
          2   -1    0    0  501    0  0.00000000000E+00 -0.00000000000E+00 -0.33807919507E+04  0.33807919507E+04  0.00000000000E+00 0.  1.
         23    2    1    2    0    0  0.56053191944E+03 -0.18030577293E+03  0.26053381006E+04  0.26725862979E+04  0.90690113940E+02 0.  0.
         13    1    3    3    0    0  0.24929299096E+03 -0.12635468633E+03  0.12716619384E+04  0.13020125144E+04  0.00000000000E+00 0. -1.
        -13    1    3    3    0    0  0.31123892848E+03 -0.53951086601E+02  0.13336761622E+04  0.13705737834E+04  0.00000000000E+00 0.  1.
         22    1    1    2    0    0 -0.56053191944E+03  0.18030577293E+03 -0.33212723623E+04  0.33730633419E+04  0.00000000000E+00 0.  1.
<mgrwt>
<rscale>  0 0.60031090E+04</rscale>
<asrwt>0</asrwt>
<pdfrwt beam="1">  1        2 0.52012184E+00 0.60031090E+04</pdfrwt>
<pdfrwt beam="2">  1       -2 0.40997811E+00 0.60031090E+04</pdfrwt>
<totfact> 0.42219422E-03</totfact>
</mgrwt>
</event>
<event>
 6    1  0.1568961E-005  0.4388622E+04  0.7818608E-02  0.7930431E-01
          2   -1    0    0  501    0  0.00000000000E+00  0.00000000000E+00  0.36988563414E+04  0.36988563414E+04  0.00000000000E+00 0.  1.
         -2   -1    0    0    0  501 -0.00000000000E+00 -0.00000000000E+00 -0.13017537505E+04  0.13017537505E+04  0.00000000000E+00 0. -1.
         23    2    1    2    0    0  0.17556964653E+04 -0.12784627873E+04  0.85026460287E+03  0.23342183470E+04  0.93210620563E+02 0.  0.
         13    1    3    3    0    0  0.98824433854E+03 -0.66467056738E+03  0.48022145183E+03  0.12841442593E+04  0.00000000000E+00 0. -1.
        -13    1    3    3    0    0  0.76745212673E+03 -0.61379221987E+03  0.37004315103E+03  0.10500740877E+04  0.00000000000E+00 0.  1.
         22    1    1    2    0    0 -0.17556964653E+04  0.12784627873E+04  0.15468379880E+04  0.26663917450E+04  0.00000000000E+00 0. -1.
<mgrwt>
<rscale>  0 0.43886217E+04</rscale>
<asrwt>0</asrwt>
<pdfrwt beam="1">  1        2 0.56905482E+00 0.43886217E+04</pdfrwt>
<pdfrwt beam="2">  1       -2 0.20026981E+00 0.43886217E+04</pdfrwt>
<totfact> 0.59070115E-02</totfact>
</mgrwt>
</event>
<event>
 6    1  0.1995052E-005  0.1646178E+04  0.7818608E-02  0.8792671E-01
          1   -1    0    0  501    0  0.00000000000E+00  0.00000000000E+00  0.95138101241E+03  0.95138101241E+03  0.00000000000E+00 0. -1.
         -1   -1    0    0    0  501 -0.00000000000E+00 -0.00000000000E+00 -0.71209665138E+03  0.71209665138E+03  0.00000000000E+00 0.  1.
         23    2    1    2    0    0 -0.78985293723E+03 -0.19624873548E+03  0.22570885181E+03  0.84949638447E+03  0.91205223578E+02 0.  0.
         13    1    3    3    0    0 -0.55366368988E+03 -0.11473573930E+03  0.11905001767E+03  0.57782408921E+03  0.00000000000E+00 0.  1.
        -13    1    3    3    0    0 -0.23618924735E+03 -0.81512996177E+02  0.10665883414E+03  0.27167229526E+03  0.00000000000E+00 0. -1.
         22    1    1    2    0    0  0.78985293723E+03  0.19624873548E+03  0.13575509225E+02  0.81398127932E+03  0.00000000000E+00 0.  1.
<mgrwt>
<rscale>  0 0.16461777E+04</rscale>
<asrwt>0</asrwt>
<pdfrwt beam="1">  1        1 0.14636631E+00 0.16461777E+04</pdfrwt>
<pdfrwt beam="2">  1       -1 0.10955333E+00 0.16461777E+04</pdfrwt>
<totfact> 0.12180419E+01</totfact>
</mgrwt>
</event>
<event>
 6    1  0.1568961E-005  0.2085265E+04  0.7818608E-02  0.8567762E-01
         -2   -1    0    0    0  501 -0.00000000000E+00  0.00000000000E+00  0.78664104762E+03  0.78664104762E+03  0.00000000000E+00 0.  1.
          2   -1    0    0  501    0  0.00000000000E+00 -0.00000000000E+00 -0.13819296985E+04  0.13819296985E+04  0.00000000000E+00 0. -1.
         23    2    1    2    0    0  0.90094371700E+03  0.46977376668E+02  0.24120507347E+03  0.93827476302E+03  0.90957068635E+02 0.  0.
         11    1    3    3    0    0  0.27985372195E+03  0.48072681502E+02  0.49207880562E+02  0.28818484330E+03  0.00000000000E+00 0. -1.
        -11    1    3    3    0    0  0.62108999505E+03 -0.10953048341E+01  0.19199719291E+03  0.65008991972E+03  0.00000000000E+00 0.  1.
         22    1    1    2    0    0 -0.90094371700E+03 -0.46977376668E+02 -0.83649372432E+03  0.12302959831E+04  0.00000000000E+00 0. -1.
<mgrwt>
<rscale>  0 0.20852651E+04</rscale>
<asrwt>0</asrwt>
<pdfrwt beam="1">  1        2 0.21260457E+00 0.20852651E+04</pdfrwt>
<pdfrwt beam="2">  1       -2 0.12102170E+00 0.20852651E+04</pdfrwt>
<totfact> 0.71105364E+00</totfact>
</mgrwt>
</event>
<event>
 6    1  0.1568961E-005  0.1343598E+04  0.7818608E-02  0.8995689E-01
         -1   -1    0    0    0  501 -0.00000000000E+00  0.00000000000E+00  0.10073638412E+04  0.10073638412E+04  0.00000000000E+00 0.  1.
          1   -1    0    0  501    0  0.00000000000E+00 -0.00000000000E+00 -0.44801474142E+03  0.44801474142E+03  0.00000000000E+00 0. -1.
         23    2    1    2    0    0 -0.32334147804E+03 -0.44605959629E+03 -0.12914038381E+03  0.57359819960E+03  0.93908364856E+02 0.  0.
         11    1    3    3    0    0 -0.58164385485E+02 -0.12806589511E+03 -0.27385787581E+01  0.14068215609E+03  0.00000000000E+00 0.  1.
        -11    1    3    3    0    0 -0.26517709255E+03 -0.31799370118E+03 -0.12640180505E+03  0.43291604351E+03  0.00000000000E+00 0. -1.
         22    1    1    2    0    0  0.32334147804E+03  0.44605959629E+03  0.68848948363E+03  0.88178038305E+03  0.00000000000E+00 0.  1.
<mgrwt>
<rscale>  0 0.13435979E+04</rscale>
<asrwt>0</asrwt>
<pdfrwt beam="1">  1        1 0.68925345E-01 0.13435979E+04</pdfrwt>
<pdfrwt beam="2">  1       -1 0.15497905E+00 0.13435979E+04</pdfrwt>
<totfact> 0.16104960E+01</totfact>
</mgrwt>
</event>
<event>
 6    1  0.1568961E-005  0.2426848E+04  0.7818608E-02  0.8429520E-01
          1   -1    0    0  501    0  0.00000000000E+00  0.00000000000E+00  0.17264923248E+04  0.17264923248E+04  0.00000000000E+00 0. -1.
         -1   -1    0    0    0  501 -0.00000000000E+00 -0.00000000000E+00 -0.85282614654E+03  0.85282614654E+03  0.00000000000E+00 0.  1.
         23    2    1    2    0    0 -0.13497626154E+03  0.29637868156E+03  0.16779308488E+04  0.17116200361E+04  0.90179269222E+02 0.  0.
         11    1    3    3    0    0 -0.82698016313E+02  0.82523812407E+02  0.52241376116E+03  0.53531792363E+03  0.00000000000E+00 0.  1.
        -11    1    3    3    0    0 -0.52278245227E+02  0.21385486915E+03  0.11555170877E+04  0.11763021125E+04  0.00000000000E+00 0. -1.
         22    1    1    2    0    0  0.13497626154E+03 -0.29637868156E+03 -0.80426467059E+03  0.86769843518E+03  0.00000000000E+00 0.  1.
<mgrwt>
<rscale>  0 0.24268480E+04</rscale>
<asrwt>0</asrwt>
<pdfrwt beam="1">  1        1 0.26561420E+00 0.24268480E+04</pdfrwt>
<pdfrwt beam="2">  1       -1 0.13120402E+00 0.24268480E+04</pdfrwt>
<totfact> 0.20248655E+00</totfact>
</mgrwt>
</event>
<event>
 6    1  0.1568961E-005  0.2434097E+04  0.7818608E-02  0.8426847E-01
         -2   -1    0    0    0  501 -0.00000000000E+00  0.00000000000E+00  0.13914594314E+04  0.13914594314E+04  0.00000000000E+00 0.  1.
          2   -1    0    0  501    0  0.00000000000E+00 -0.00000000000E+00 -0.10644987259E+04  0.10644987259E+04  0.00000000000E+00 0. -1.
         23    2    1    2    0    0  0.79991531742E+03  0.78104529102E+03  0.64411320447E+03  0.12938557654E+04  0.96356940277E+02 0.  0.
         11    1    3    3    0    0  0.31808758899E+03  0.24753868963E+03  0.24303034187E+03  0.47065790570E+03  0.00000000000E+00 0.  1.
        -11    1    3    3    0    0  0.48182772843E+03  0.53350660139E+03  0.40108286260E+03  0.82319785974E+03  0.00000000000E+00 0. -1.
         22    1    1    2    0    0 -0.79991531742E+03 -0.78104529102E+03 -0.31715249896E+03  0.11621023919E+04  0.00000000000E+00 0.  1.
<mgrwt>
<rscale>  0 0.24340968E+04</rscale>
<asrwt>0</asrwt>
<pdfrwt beam="1">  1        2 0.16376903E+00 0.24340968E+04</pdfrwt>
<pdfrwt beam="2">  1       -2 0.21407068E+00 0.24340968E+04</pdfrwt>
<totfact> 0.22158674E+00</totfact>
</mgrwt>
</event>
<event>
 6    1  0.1568961E-005  0.1667200E+04  0.7818608E-02  0.8780296E-01
         -2   -1    0    0    0  501 -0.00000000000E+00  0.00000000000E+00  0.42806215425E+03  0.42806215425E+03  0.00000000000E+00 0.  1.
          2   -1    0    0  501    0  0.00000000000E+00 -0.00000000000E+00 -0.16233364505E+04  0.16233364505E+04  0.00000000000E+00 0. -1.
         23    2    1    2    0    0  0.58696416369E+02 -0.34838782309E+03  0.32638775132E+03  0.48926073261E+03  0.89597743811E+02 0.  0.
         11    1    3    3    0    0  0.67302919264E+02 -0.19976229355E+03  0.15150790677E+03  0.25959449663E+03  0.00000000000E+00 0.  1.
        -11    1    3    3    0    0 -0.86065028950E+01 -0.14862552954E+03  0.17487984455E+03  0.22966623599E+03  0.00000000000E+00 0. -1.
         22    1    1    2    0    0 -0.58696416369E+02  0.34838782309E+03 -0.15216620476E+04  0.15621378722E+04  0.00000000000E+00 0. -1.
<mgrwt>
<rscale>  0 0.16671999E+04</rscale>
<asrwt>0</asrwt>
<pdfrwt beam="1">  1        2 0.24974407E+00 0.16671999E+04</pdfrwt>
<pdfrwt beam="2">  1       -2 0.65855716E-01 0.16671999E+04</pdfrwt>
<totfact> 0.21909224E+01</totfact>
</mgrwt>
</event>
<event>
 6    1  0.1568961E-005  0.2933482E+04  0.7818608E-02  0.8262985E-01
          2   -1    0    0  501    0  0.00000000000E+00  0.00000000000E+00  0.22927549816E+04  0.22927549816E+04  0.00000000000E+00 0. -1.
         -2   -1    0    0    0  501 -0.00000000000E+00 -0.00000000000E+00 -0.93831619478E+03  0.93831619478E+03  0.00000000000E+00 0.  1.
         23    2    1    2    0    0  0.67458152649E+03  0.10904372103E+04  0.14591023988E+04  0.19445767080E+04  0.91023170408E+02 0.  0.
         13    1    3    3    0    0  0.32788676213E+03  0.44457605819E+03  0.62234613382E+03  0.83214921173E+03  0.00000000000E+00 0. -1.
        -13    1    3    3    0    0  0.34669476436E+03  0.64586115215E+03  0.83675626498E+03  0.11124274963E+04  0.00000000000E+00 0.  1.
         22    1    1    2    0    0 -0.67458152649E+03 -0.10904372103E+04 -0.10466361196E+03  0.12864944684E+04  0.00000000000E+00 0.  1.
<mgrwt>
<rscale>  0 0.29334820E+04</rscale>
<asrwt>0</asrwt>
<pdfrwt beam="1">  1        2 0.35273153E+00 0.29334820E+04</pdfrwt>
<pdfrwt beam="2">  1       -2 0.14435634E+00 0.29334820E+04</pdfrwt>
<totfact> 0.13058408E+00</totfact>
</mgrwt>
</event>
<event>
 6    1  0.1568961E-005  0.2555374E+04  0.7818608E-02  0.8383520E-01
          1   -1    0    0  501    0  0.00000000000E+00  0.00000000000E+00  0.23898943323E+04  0.23898943323E+04  0.00000000000E+00 0. -1.
         -1   -1    0    0    0  501 -0.00000000000E+00 -0.00000000000E+00 -0.68307795775E+03  0.68307795775E+03  0.00000000000E+00 0.  1.
         23    2    1    2    0    0  0.21402561353E+03  0.82417394461E+03  0.19974487649E+04  0.21732296376E+04  0.89754305418E+02 0.  0.
         11    1    3    3    0    0  0.14988438162E+03  0.60075607687E+03  0.13468817661E+04  0.14823844588E+04  0.00000000000E+00 0. -1.
        -11    1    3    3    0    0  0.64141231914E+02  0.22341786774E+03  0.65056699877E+03  0.69084517886E+03  0.00000000000E+00 0.  1.
         22    1    1    2    0    0 -0.21402561353E+03 -0.82417394461E+03 -0.29063239035E+03  0.89974265240E+03  0.00000000000E+00 0.  1.
<mgrwt>
<rscale>  0 0.25553741E+04</rscale>
<asrwt>0</asrwt>
<pdfrwt beam="1">  1        1 0.36767605E+00 0.25553741E+04</pdfrwt>
<pdfrwt beam="2">  1       -1 0.10508892E+00 0.25553741E+04</pdfrwt>
<totfact> 0.12123836E+00</totfact>
</mgrwt>
</event>
<event>
 6    1  0.1568961E-005  0.2482182E+04  0.7818608E-02  0.8409361E-01
          1   -1    0    0  501    0  0.00000000000E+00  0.00000000000E+00  0.14323163282E+04  0.14323163282E+04  0.00000000000E+00 0. -1.
         -1   -1    0    0    0  501 -0.00000000000E+00 -0.00000000000E+00 -0.10753958637E+04  0.10753958637E+04  0.00000000000E+00 0.  1.
         23    2    1    2    0    0 -0.16123247363E+03  0.10357607041E+04  0.84679624780E+03  0.13506579885E+04  0.91744045441E+02 0.  0.
         13    1    3    3    0    0 -0.10794482266E+03  0.75836252906E+03  0.56656819618E+03  0.95276719672E+03  0.00000000000E+00 0. -1.
        -13    1    3    3    0    0 -0.53287650967E+02  0.27739817503E+03  0.28022805162E+03  0.39789079176E+03  0.00000000000E+00 0.  1.
         22    1    1    2    0    0  0.16123247363E+03 -0.10357607041E+04 -0.48987578328E+03  0.11570542035E+04  0.00000000000E+00 0.  1.
<mgrwt>
<rscale>  0 0.24821821E+04</rscale>
<asrwt>0</asrwt>
<pdfrwt beam="1">  1        1 0.22035636E+00 0.24821821E+04</pdfrwt>
<pdfrwt beam="2">  1       -1 0.16544552E+00 0.24821821E+04</pdfrwt>
<totfact> 0.17256201E+00</totfact>
</mgrwt>
</event>
<event>
 6    1  0.1568961E-005  0.2216620E+04  0.7818608E-02  0.8511542E-01
         -2   -1    0    0    0  501 -0.00000000000E+00  0.00000000000E+00  0.70680864590E+03  0.70680864590E+03  0.00000000000E+00 0. -1.
          2   -1    0    0  501    0  0.00000000000E+00 -0.00000000000E+00 -0.17378838877E+04  0.17378838877E+04  0.00000000000E+00 0.  1.
         23    2    1    2    0    0  0.77974961203E+03  0.59289653505E+03 -0.10838299616E+04  0.14637140327E+04  0.90750344668E+02 0.  0.
         11    1    3    3    0    0  0.71813813215E+03  0.52436008360E+03 -0.10098257382E+04  0.13455199351E+04  0.00000000000E+00 0.  1.
        -11    1    3    3    0    0  0.61611479883E+02  0.68536451451E+02 -0.74004223428E+02  0.11819409764E+03  0.00000000000E+00 0. -1.
         22    1    1    2    0    0 -0.77974961203E+03 -0.59289653505E+03  0.52754719854E+02  0.98097850089E+03  0.00000000000E+00 0. -1.
<mgrwt>
<rscale>  0 0.22166203E+04</rscale>
<asrwt>0</asrwt>
<pdfrwt beam="1">  1        2 0.26736675E+00 0.22166203E+04</pdfrwt>
<pdfrwt beam="2">  1       -2 0.10873979E+00 0.22166203E+04</pdfrwt>
<totfact> 0.57616955E+00</totfact>
</mgrwt>
</event>
<event>
 6    1  0.1568961E-005  0.7522883E+03  0.7818608E-02  0.9631767E-01
         -2   -1    0    0    0  501 -0.00000000000E+00  0.00000000000E+00  0.13395095521E+03  0.13395095521E+03  0.00000000000E+00 0.  1.
          2   -1    0    0  501    0  0.00000000000E+00 -0.00000000000E+00 -0.10562404317E+04  0.10562404317E+04  0.00000000000E+00 0. -1.
         23    2    1    2    0    0  0.34773688930E+03  0.12731307329E+03 -0.49130894522E+03  0.62197155169E+03  0.91293858751E+02 0.  0.
         13    1    3    3    0    0  0.27290290365E+03  0.12605072615E+03 -0.34471398543E+03  0.45737567943E+03  0.00000000000E+00 0. -1.
        -13    1    3    3    0    0  0.74833985650E+02  0.12623471455E+01 -0.14659495980E+03  0.16459587226E+03  0.00000000000E+00 0.  1.
         22    1    1    2    0    0 -0.34773688930E+03 -0.12731307329E+03 -0.43098053131E+03  0.56821983526E+03  0.00000000000E+00 0. -1.
<mgrwt>
<rscale>  0 0.75228828E+03</rscale>
<asrwt>0</asrwt>
<pdfrwt beam="1">  1        2 0.16249852E+00 0.75228828E+03</pdfrwt>
<pdfrwt beam="2">  1       -2 0.20607840E-01 0.75228828E+03</pdfrwt>
<totfact> 0.47260334E+02</totfact>
</mgrwt>
</event>
<event>
 6    1  0.1568961E-005  0.1231635E+04  0.7818608E-02  0.9085608E-01
         -1   -1    0    0    0  501 -0.00000000000E+00  0.00000000000E+00  0.92984133861E+03  0.92984133861E+03  0.00000000000E+00 0.  1.
          1   -1    0    0  501    0  0.00000000000E+00 -0.00000000000E+00 -0.40784536085E+03  0.40784536085E+03  0.00000000000E+00 0. -1.
         23    2    1    2    0    0  0.28426654903E+03  0.50567248813E+03  0.47451496758E+03  0.75565011773E+03  0.96594564100E+02 0.  0.
         11    1    3    3    0    0  0.24901766167E+03  0.35686378119E+03  0.35152781268E+03  0.55940446658E+03  0.00000000000E+00 0.  1.
        -11    1    3    3    0    0  0.35248887362E+02  0.14880870694E+03  0.12298715490E+03  0.19624565114E+03  0.00000000000E+00 0. -1.
         22    1    1    2    0    0 -0.28426654903E+03 -0.50567248813E+03  0.47481010180E+02  0.58203658173E+03  0.00000000000E+00 0. -1.
<mgrwt>
<rscale>  0 0.12316355E+04</rscale>
<asrwt>0</asrwt>
<pdfrwt beam="1">  1        1 0.62745441E-01 0.12316355E+04</pdfrwt>
<pdfrwt beam="2">  1       -1 0.14305251E+00 0.12316355E+04</pdfrwt>
<totfact> 0.22864774E+01</totfact>
</mgrwt>
</event>
<event>
 6    1  0.1568961E-005  0.1191942E+04  0.7818608E-02  0.9119939E-01
         -1   -1    0    0    0  501 -0.00000000000E+00  0.00000000000E+00  0.59523981253E+03  0.59523981253E+03  0.00000000000E+00 0.  1.
          1   -1    0    0  501    0  0.00000000000E+00 -0.00000000000E+00 -0.59670313045E+03  0.59670313045E+03  0.00000000000E+00 0. -1.
         23    2    1    2    0    0  0.20804693170E+03  0.30354681622E+03  0.46354689346E+03  0.59893477094E+03  0.91776587271E+02 0.  0.
         11    1    3    3    0    0  0.44993332540E+02  0.14480224299E+03  0.19118834909E+03  0.24401859432E+03  0.00000000000E+00 0. -1.
        -11    1    3    3    0    0  0.16305359916E+03  0.15874457324E+03  0.27235854437E+03  0.35491617662E+03  0.00000000000E+00 0.  1.
         22    1    1    2    0    0 -0.20804693170E+03 -0.30354681622E+03 -0.46501021138E+03  0.59300817205E+03  0.00000000000E+00 0. -1.
<mgrwt>
<rscale>  0 0.11919420E+04</rscale>
<asrwt>0</asrwt>
<pdfrwt beam="1">  1        1 0.91800481E-01 0.11919420E+04</pdfrwt>
<pdfrwt beam="2">  1       -1 0.91575356E-01 0.11919420E+04</pdfrwt>
<totfact> 0.39760712E+01</totfact>
</mgrwt>
</event>
<event>
 6    1  0.1979197E-005  0.2572556E+04  0.7818608E-02  0.8377584E-01
         -2   -1    0    0    0  501 -0.00000000000E+00  0.00000000000E+00  0.69248705361E+03  0.69248705361E+03  0.00000000000E+00 0.  1.
          2   -1    0    0  501    0  0.00000000000E+00 -0.00000000000E+00 -0.23892297598E+04  0.23892297598E+04  0.00000000000E+00 0. -1.
         23    2    1    2    0    0 -0.86114152320E+03 -0.46855817190E+03 -0.18437429708E+04  0.20903941811E+04  0.96167596381E+02 0.  0.
         11    1    3    3    0    0 -0.45410885801E+03 -0.25135635553E+03 -0.87403752818E+03  0.10165315898E+04  0.00000000000E+00 0. -1.
        -11    1    3    3    0    0 -0.40703266520E+03 -0.21720181637E+03 -0.96970544263E+03  0.10738625913E+04  0.00000000000E+00 0.  1.
         22    1    1    2    0    0  0.86114152320E+03  0.46855817190E+03  0.14700026465E+03  0.99132263227E+03  0.00000000000E+00 0.  1.
<mgrwt>
<rscale>  0 0.25725557E+04</rscale>
<asrwt>0</asrwt>
<pdfrwt beam="1">  1        2 0.36757381E+00 0.25725557E+04</pdfrwt>
<pdfrwt beam="2">  1       -2 0.10653647E+00 0.25725557E+04</pdfrwt>
<totfact> 0.25371735E+00</totfact>
</mgrwt>
</event>
<event>
 6    1  0.1568961E-005  0.5199909E+04  0.7818608E-02  0.7798388E-01
         -2   -1    0    0    0  501 -0.00000000000E+00  0.00000000000E+00  0.46819885189E+04  0.46819885189E+04  0.00000000000E+00 0.  1.
          2   -1    0    0  501    0  0.00000000000E+00 -0.00000000000E+00 -0.14437802365E+04  0.14437802365E+04  0.00000000000E+00 0. -1.
         23    2    1    2    0    0 -0.11116773949E+04 -0.12172620876E+04 -0.74767206566E+03  0.18124410644E+04  0.91517614965E+02 0.  0.
         13    1    3    3    0    0 -0.51385153004E+03 -0.59660416584E+03 -0.40045279710E+03  0.88336989326E+03  0.00000000000E+00 0. -1.
        -13    1    3    3    0    0 -0.59782586488E+03 -0.62065792176E+03 -0.34721926856E+03  0.92907117113E+03  0.00000000000E+00 0.  1.
         22    1    1    2    0    0  0.11116773949E+04  0.12172620876E+04  0.39858803481E+04  0.43133276909E+04  0.00000000000E+00 0.  1.
<mgrwt>
<rscale>  0 0.51999086E+04</rscale>
<asrwt>0</asrwt>
<pdfrwt beam="1">  1        2 0.22212004E+00 0.51999086E+04</pdfrwt>
<pdfrwt beam="2">  1       -2 0.72030592E+00 0.51999086E+04</pdfrwt>
<totfact> 0.18887197E-03</totfact>
</mgrwt>
</event>
<event>
 6    1  0.1568961E-005  0.1806472E+04  0.7818608E-02  0.8702865E-01
         -1   -1    0    0    0  501 -0.00000000000E+00  0.00000000000E+00  0.10344814695E+04  0.10344814695E+04  0.00000000000E+00 0.  1.
          1   -1    0    0  501    0  0.00000000000E+00 -0.00000000000E+00 -0.78864188976E+03  0.78864188976E+03  0.00000000000E+00 0. -1.
         23    2    1    2    0    0 -0.79827213553E+03 -0.29200425270E+03 -0.17821463768E+03  0.87321448716E+03  0.90764517044E+02 0.  0.
         11    1    3    3    0    0 -0.15241214432E+03 -0.34603391326E+02 -0.34758727075E+01  0.15632958171E+03  0.00000000000E+00 0. -1.
        -11    1    3    3    0    0 -0.64585999121E+03 -0.25740086137E+03 -0.17473876498E+03  0.71688490545E+03  0.00000000000E+00 0.  1.
         22    1    1    2    0    0  0.79827213553E+03  0.29200425270E+03  0.42405421739E+03  0.94990887207E+03  0.00000000000E+00 0.  1.
<mgrwt>
<rscale>  0 0.18064722E+04</rscale>
<asrwt>0</asrwt>
<pdfrwt beam="1">  1        1 0.12132952E+00 0.18064722E+04</pdfrwt>
<pdfrwt beam="2">  1       -1 0.15915100E+00 0.18064722E+04</pdfrwt>
<totfact> 0.63283638E+00</totfact>
</mgrwt>
</event>
<event>
 6    1  0.1568961E-005  0.3562547E+04  0.7818608E-02  0.8099125E-01
          2   -1    0    0  501    0  0.00000000000E+00  0.00000000000E+00  0.19356035855E+04  0.19356035855E+04  0.00000000000E+00 0. -1.
         -2   -1    0    0    0  501 -0.00000000000E+00 -0.00000000000E+00 -0.16392487970E+04  0.16392487970E+04  0.00000000000E+00 0.  1.
         23    2    1    2    0    0  0.58088044163E+03  0.39100120897E+03  0.17905753893E+04  0.19247011055E+04  0.89499094627E+02 0.  0.
         13    1    3    3    0    0  0.18780689220E+03  0.17324976652E+03  0.70008191790E+03  0.74525271025E+03  0.00000000000E+00 0.  1.
        -13    1    3    3    0    0  0.39307354943E+03  0.21775144245E+03  0.10904934714E+04  0.11794483953E+04  0.00000000000E+00 0. -1.
         22    1    1    2    0    0 -0.58088044163E+03 -0.39100120897E+03 -0.14942206008E+04  0.16501512769E+04  0.00000000000E+00 0.  1.
<mgrwt>
<rscale>  0 0.35625473E+04</rscale>
<asrwt>0</asrwt>
<pdfrwt beam="1">  1        2 0.29778517E+00 0.35625473E+04</pdfrwt>
<pdfrwt beam="2">  1       -2 0.25219212E+00 0.35625473E+04</pdfrwt>
<totfact> 0.36954020E-01</totfact>
</mgrwt>
</event>
<event>
 6    1  0.1568961E-005  0.4198078E+04  0.7818608E-02  0.7965738E-01
          1   -1    0    0  501    0  0.00000000000E+00  0.00000000000E+00  0.23191697649E+04  0.23191697649E+04  0.00000000000E+00 0. -1.
         -1   -1    0    0    0  501 -0.00000000000E+00 -0.00000000000E+00 -0.18998027698E+04  0.18998027698E+04  0.00000000000E+00 0.  1.
         23    2    1    2    0    0  0.78616557298E+03 -0.16036811513E+04  0.13161326331E+04  0.22204635522E+04  0.91671891138E+02 0.  0.
         11    1    3    3    0    0  0.41928612729E+03 -0.95396971178E+03  0.75140162931E+03  0.12847036530E+04  0.00000000000E+00 0. -1.
        -11    1    3    3    0    0  0.36687944570E+03 -0.64971143953E+03  0.56473100382E+03  0.93575989923E+03  0.00000000000E+00 0.  1.
         22    1    1    2    0    0 -0.78616557298E+03  0.16036811513E+04 -0.89676563809E+03  0.19985089824E+04  0.00000000000E+00 0.  1.
<mgrwt>
<rscale>  0 0.41980782E+04</rscale>
<asrwt>0</asrwt>
<pdfrwt beam="1">  1        1 0.35679535E+00 0.41980782E+04</pdfrwt>
<pdfrwt beam="2">  1       -1 0.29227735E+00 0.41980782E+04</pdfrwt>
<totfact> 0.51535774E-02</totfact>
</mgrwt>
</event>
<event>
 6    1  0.1568961E-005  0.2391242E+04  0.7818608E-02  0.8442790E-01
          2   -1    0    0  501    0  0.00000000000E+00  0.00000000000E+00  0.10537121637E+04  0.10537121637E+04  0.00000000000E+00 0. -1.
         -2   -1    0    0    0  501 -0.00000000000E+00 -0.00000000000E+00 -0.13566412105E+04  0.13566412105E+04  0.00000000000E+00 0.  1.
         23    2    1    2    0    0  0.81567163218E+03  0.51755073310E+02 -0.10288637543E+04  0.13172019672E+04  0.91986946296E+02 0.  0.
         11    1    3    3    0    0  0.41673143890E+03  0.89124943426E+01 -0.45602388536E+03  0.61782061211E+03  0.00000000000E+00 0.  1.
        -11    1    3    3    0    0  0.39894019327E+03  0.42842578968E+02 -0.57283986894E+03  0.69938135507E+03  0.00000000000E+00 0. -1.
         22    1    1    2    0    0 -0.81567163218E+03 -0.51755073310E+02  0.72593470745E+03  0.10931514070E+04  0.00000000000E+00 0. -1.
<mgrwt>
<rscale>  0 0.23912418E+04</rscale>
<asrwt>0</asrwt>
<pdfrwt beam="1">  1        2 0.16210956E+00 0.23912418E+04</pdfrwt>
<pdfrwt beam="2">  1       -2 0.20871403E+00 0.23912418E+04</pdfrwt>
<totfact> 0.24449649E+00</totfact>
</mgrwt>
</event>
<event>
 6    1  0.1568961E-005  0.1274619E+04  0.7818608E-02  0.9049938E-01
         -1   -1    0    0    0  501 -0.00000000000E+00  0.00000000000E+00  0.14274374327E+03  0.14274374327E+03  0.00000000000E+00 0.  1.
          1   -1    0    0  501    0  0.00000000000E+00 -0.00000000000E+00 -0.28454013353E+04  0.28454013353E+04  0.00000000000E+00 0. -1.
         23    2    1    2    0    0  0.27826063501E+03  0.55995882609E+03 -0.11147999628E+04  0.12816062661E+04  0.93556380001E+02 0.  0.
         11    1    3    3    0    0  0.13702781311E+03  0.27417491803E+03 -0.64149793314E+03  0.71096280175E+03  0.00000000000E+00 0. -1.
        -11    1    3    3    0    0  0.14123282191E+03  0.28578390806E+03 -0.47330202967E+03  0.57064346433E+03  0.00000000000E+00 0.  1.
         22    1    1    2    0    0 -0.27826063501E+03 -0.55995882609E+03 -0.15878576292E+04  0.17065388125E+04  0.00000000000E+00 0. -1.
<mgrwt>
<rscale>  0 0.12746187E+04</rscale>
<asrwt>0</asrwt>
<pdfrwt beam="1">  1        1 0.43775404E+00 0.12746187E+04</pdfrwt>
<pdfrwt beam="2">  1       -1 0.21960577E-01 0.12746187E+04</pdfrwt>
<totfact> 0.13418198E+01</totfact>
</mgrwt>
</event>
<event>
 6    1  0.1568961E-005  0.4306782E+04  0.7818608E-02  0.7945365E-01
         -1   -1    0    0    0  501 -0.00000000000E+00  0.00000000000E+00  0.12243610166E+04  0.12243610166E+04  0.00000000000E+00 0.  1.
          1   -1    0    0  501    0  0.00000000000E+00 -0.00000000000E+00 -0.37873577629E+04  0.37873577629E+04  0.00000000000E+00 0. -1.
         23    2    1    2    0    0  0.93214851721E+03  0.18204288858E+04 -0.20627608356E+04  0.29062264017E+04  0.91145194178E+02 0.  0.
         13    1    3    3    0    0  0.59531938687E+03  0.11688313572E+04 -0.12604542166E+04  0.18191527551E+04  0.00000000000E+00 0.  1.
        -13    1    3    3    0    0  0.33682913034E+03  0.65159752860E+03 -0.80230661898E+03  0.10870736466E+04  0.00000000000E+00 0. -1.
         22    1    1    2    0    0 -0.93214851721E+03 -0.18204288858E+04 -0.50023591068E+03  0.21054923778E+04  0.00000000000E+00 0.  1.
<mgrwt>
<rscale>  0 0.43067822E+04</rscale>
<asrwt>0</asrwt>
<pdfrwt beam="1">  1        1 0.58267043E+00 0.43067822E+04</pdfrwt>
<pdfrwt beam="2">  1       -1 0.18836323E+00 0.43067822E+04</pdfrwt>
<totfact> 0.20177910E-02</totfact>
</mgrwt>
</event>
<event>
 6    1  0.1568961E-005  0.6416529E+03  0.7818608E-02  0.9822569E-01
          4   -1    0    0  501    0  0.00000000000E+00  0.00000000000E+00  0.11836047126E+03  0.11836047126E+03  0.00000000000E+00 0. -1.
         -4   -1    0    0    0  501 -0.00000000000E+00 -0.00000000000E+00 -0.86962822614E+03  0.86962822614E+03  0.00000000000E+00 0.  1.
         23    2    1    2    0    0  0.22325895130E+03  0.20212460712E+03 -0.52029458874E+03  0.60845277076E+03  0.93858398819E+02 0.  0.
         13    1    3    3    0    0  0.13515503400E+03  0.81194413843E+02 -0.19788692278E+03  0.25301907094E+03  0.00000000000E+00 0. -1.
        -13    1    3    3    0    0  0.88103917294E+02  0.12093019328E+03 -0.32240766597E+03  0.35543369981E+03  0.00000000000E+00 0.  1.
         22    1    1    2    0    0 -0.22325895130E+03 -0.20212460712E+03 -0.23097316614E+03  0.37953592664E+03  0.00000000000E+00 0. -1.
<mgrwt>
<rscale>  0 0.64165289E+03</rscale>
<asrwt>0</asrwt>
<pdfrwt beam="1">  1        4 0.18209304E-01 0.64165289E+03</pdfrwt>
<pdfrwt beam="2">  1       -4 0.13378895E+00 0.64165289E+03</pdfrwt>
<totfact> 0.21897324E+01</totfact>
</mgrwt>
</event>
<event>
 6    1  0.1568961E-005  0.9508193E+03  0.7818608E-02  0.9364193E-01
          2   -1    0    0  501    0  0.00000000000E+00  0.00000000000E+00  0.25177076203E+04  0.25177076203E+04  0.00000000000E+00 0.  1.
         -2   -1    0    0    0  501 -0.00000000000E+00 -0.00000000000E+00 -0.89769884723E+02  0.89769884723E+02  0.00000000000E+00 0. -1.
         23    2    1    2    0    0  0.30982425502E+03  0.25028772226E+03  0.19149594130E+04  0.19580302229E+04  0.90431118122E+02 0.  0.
         11    1    3    3    0    0  0.31280816834E+02  0.34458704876E+02  0.39642803476E+03  0.39915044606E+03  0.00000000000E+00 0. -1.
        -11    1    3    3    0    0  0.27854343818E+03  0.21582901739E+03  0.15185313783E+04  0.15588797768E+04  0.00000000000E+00 0.  1.
         22    1    1    2    0    0 -0.30982425502E+03 -0.25028772226E+03  0.51297832252E+03  0.64944728214E+03  0.00000000000E+00 0. -1.
<mgrwt>
<rscale>  0 0.95081927E+03</rscale>
<asrwt>0</asrwt>
<pdfrwt beam="1">  1        2 0.38733958E+00 0.95081927E+03</pdfrwt>
<pdfrwt beam="2">  1       -2 0.13810753E-01 0.95081927E+03</pdfrwt>
<totfact> 0.13942001E+02</totfact>
</mgrwt>
</event>
<event>
 6    1  0.1568961E-005  0.3478828E+04  0.7818608E-02  0.8118826E-01
         -1   -1    0    0    0  501 -0.00000000000E+00  0.00000000000E+00  0.16769756718E+04  0.16769756718E+04  0.00000000000E+00 0.  1.
          1   -1    0    0  501    0  0.00000000000E+00 -0.00000000000E+00 -0.18041769184E+04  0.18041769184E+04  0.00000000000E+00 0. -1.
         23    2    1    2    0    0  0.87320546503E+03  0.56042896090E+02  0.14391839819E+04  0.16869421025E+04  0.94310833389E+02 0.  0.
         13    1    3    3    0    0  0.27912951864E+03  0.28848377905E+01  0.38221929637E+03  0.47330032852E+03  0.00000000000E+00 0.  1.
        -13    1    3    3    0    0  0.59407594640E+03  0.53158058299E+02  0.10569646855E+04  0.12136417740E+04  0.00000000000E+00 0. -1.
         22    1    1    2    0    0 -0.87320546503E+03 -0.56042896090E+02 -0.15663852285E+04  0.17942104877E+04  0.00000000000E+00 0. -1.
<mgrwt>
<rscale>  0 0.34788278E+04</rscale>
<asrwt>0</asrwt>
<pdfrwt beam="1">  1        1 0.27756568E+00 0.34788278E+04</pdfrwt>
<pdfrwt beam="2">  1       -1 0.25799626E+00 0.34788278E+04</pdfrwt>
<totfact> 0.20453630E-01</totfact>
</mgrwt>
</event>
<event>
 6    1  0.1568961E-005  0.3280398E+04  0.7818608E-02  0.8167901E-01
         -2   -1    0    0    0  501 -0.00000000000E+00  0.00000000000E+00  0.11195842396E+04  0.11195842396E+04  0.00000000000E+00 0.  1.
          2   -1    0    0  501    0  0.00000000000E+00 -0.00000000000E+00 -0.24029040286E+04  0.24029040286E+04  0.00000000000E+00 0. -1.
         23    2    1    2    0    0 -0.20288477926E+02  0.10127154428E+04  0.74139296578E+03  0.12585390793E+04  0.90845439841E+02 0.  0.
         11    1    3    3    0    0 -0.61757690250E+01  0.68512846972E+03  0.55220981102E+03  0.87998570189E+03  0.00000000000E+00 0.  1.
        -11    1    3    3    0    0 -0.14112708901E+02  0.32758697313E+03  0.18918315475E+03  0.37855337742E+03  0.00000000000E+00 0. -1.
         22    1    1    2    0    0  0.20288477926E+02 -0.10127154428E+04 -0.20247127547E+04  0.22639491889E+04  0.00000000000E+00 0. -1.
<mgrwt>
<rscale>  0 0.32803984E+04</rscale>
<asrwt>0</asrwt>
<pdfrwt beam="1">  1        2 0.36967754E+00 0.32803984E+04</pdfrwt>
<pdfrwt beam="2">  1       -2 0.17224373E+00 0.32803984E+04</pdfrwt>
<totfact> 0.68062296E-01</totfact>
</mgrwt>
</event>
<event>
 6    1  0.1568961E-005  0.1698185E+04  0.7818608E-02  0.8762400E-01
          2   -1    0    0  501    0  0.00000000000E+00  0.00000000000E+00  0.41296466927E+03  0.41296466927E+03  0.00000000000E+00 0.  1.
         -2   -1    0    0    0  501 -0.00000000000E+00 -0.00000000000E+00 -0.17458105915E+04  0.17458105915E+04  0.00000000000E+00 0. -1.
         23    2    1    2    0    0 -0.83256892214E+03  0.36865367930E+02 -0.85841321225E+03  0.11998089101E+04  0.90211486477E+02 0.  0.
         13    1    3    3    0    0 -0.59303156939E+03  0.23427636426E+02 -0.55080629997E+03  0.80970542578E+03  0.00000000000E+00 0.  1.
        -13    1    3    3    0    0 -0.23953735275E+03  0.13437731504E+02 -0.30760691228E+03  0.39010348431E+03  0.00000000000E+00 0. -1.
         22    1    1    2    0    0  0.83256892214E+03 -0.36865367930E+02 -0.47443271002E+03  0.95896635071E+03  0.00000000000E+00 0.  1.
<mgrwt>
<rscale>  0 0.16981850E+04</rscale>
<asrwt>0</asrwt>
<pdfrwt beam="1">  1        2 0.63533026E-01 0.16981850E+04</pdfrwt>
<pdfrwt beam="2">  1       -2 0.26858624E+00 0.16981850E+04</pdfrwt>
<totfact> 0.36116709E+00</totfact>
</mgrwt>
</event>
<event>
 6    1  0.1568961E-005  0.1327937E+04  0.7818608E-02  0.9007700E-01
          1   -1    0    0  501    0  0.00000000000E+00  0.00000000000E+00  0.38970531267E+03  0.38970531267E+03  0.00000000000E+00 0. -1.
         -1   -1    0    0    0  501 -0.00000000000E+00 -0.00000000000E+00 -0.11312497213E+04  0.11312497213E+04  0.00000000000E+00 0.  1.
         23    2    1    2    0    0  0.41287037148E+03  0.19739364841E+03  0.17363561934E+03  0.49773429548E+03  0.90354327587E+02 0.  0.
         11    1    3    3    0    0  0.47645057116E+02  0.47334935359E+01  0.43763618015E+02  0.64866876681E+02  0.00000000000E+00 0.  1.
        -11    1    3    3    0    0  0.36522531436E+03  0.19266015488E+03  0.12987200133E+03  0.43286741880E+03  0.00000000000E+00 0. -1.
         22    1    1    2    0    0 -0.41287037148E+03 -0.19739364841E+03 -0.91518002797E+03  0.10232207385E+04  0.00000000000E+00 0.  1.
<mgrwt>
<rscale>  0 0.13279368E+04</rscale>
<asrwt>0</asrwt>
<pdfrwt beam="1">  1        1 0.59954665E-01 0.13279368E+04</pdfrwt>
<pdfrwt beam="2">  1       -1 0.17403842E+00 0.13279368E+04</pdfrwt>
<totfact> 0.13998957E+01</totfact>
</mgrwt>
</event>
<event>
 6    1  0.1568961E-005  0.1236459E+04  0.7818608E-02  0.9081529E-01
         -2   -1    0    0    0  501 -0.00000000000E+00  0.00000000000E+00  0.25568713210E+03  0.25568713210E+03  0.00000000000E+00 0.  1.
          2   -1    0    0  501    0  0.00000000000E+00 -0.00000000000E+00 -0.14948253380E+04  0.14948253380E+04  0.00000000000E+00 0. -1.
         23    2    1    2    0    0  0.47394543678E+03  0.38984969324E+03 -0.56800607324E+03  0.84110310141E+03  0.90644732819E+02 0.  0.
         13    1    3    3    0    0  0.35565984814E+03  0.30062171435E+03 -0.47995654973E+03  0.66874930456E+03  0.00000000000E+00 0.  1.
        -13    1    3    3    0    0  0.11828558864E+03  0.89227978898E+02 -0.88049523514E+02  0.17235379685E+03  0.00000000000E+00 0. -1.
         22    1    1    2    0    0 -0.47394543678E+03 -0.38984969324E+03 -0.67113213266E+03  0.90940936869E+03  0.00000000000E+00 0.  1.
<mgrwt>
<rscale>  0 0.12364588E+04</rscale>
<asrwt>0</asrwt>
<pdfrwt beam="1">  1        2 0.22997313E+00 0.12364588E+04</pdfrwt>
<pdfrwt beam="2">  1       -2 0.39336482E-01 0.12364588E+04</pdfrwt>
<totfact> 0.76840453E+01</totfact>
</mgrwt>
</event>
<event>
 6    1  0.1568961E-005  0.2736445E+04  0.7818608E-02  0.8323276E-01
          2   -1    0    0  501    0  0.00000000000E+00  0.00000000000E+00  0.13934335128E+04  0.13934335128E+04  0.00000000000E+00 0. -1.
         -2   -1    0    0    0  501 -0.00000000000E+00 -0.00000000000E+00 -0.13434680925E+04  0.13434680925E+04  0.00000000000E+00 0.  1.
         23    2    1    2    0    0 -0.33852860722E+03 -0.89590651618E+03  0.10002634600E+04  0.13877105633E+04  0.89238525216E+02 0.  0.
         11    1    3    3    0    0 -0.23242900620E+03 -0.57053464943E+03  0.58461425925E+03  0.84929786368E+03  0.00000000000E+00 0. -1.
        -11    1    3    3    0    0 -0.10609960102E+03 -0.32537186675E+03  0.41564920078E+03  0.53841269962E+03  0.00000000000E+00 0.  1.
         22    1    1    2    0    0  0.33852860722E+03  0.89590651618E+03 -0.95029803965E+03  0.13491910420E+04  0.00000000000E+00 0.  1.
<mgrwt>
<rscale>  0 0.27364455E+04</rscale>
<asrwt>0</asrwt>
<pdfrwt beam="1">  1        2 0.21437439E+00 0.27364455E+04</pdfrwt>
<pdfrwt beam="2">  1       -2 0.20668740E+00 0.27364455E+04</pdfrwt>
<totfact> 0.15359016E+00</totfact>
</mgrwt>
</event>
<event>
 6    1  0.1568961E-005  0.2311235E+04  0.7818608E-02  0.8473505E-01
         -1   -1    0    0    0  501 -0.00000000000E+00  0.00000000000E+00  0.10721883908E+04  0.10721883908E+04  0.00000000000E+00 0.  1.
          1   -1    0    0  501    0  0.00000000000E+00 -0.00000000000E+00 -0.12455381258E+04  0.12455381258E+04  0.00000000000E+00 0. -1.
         23    2    1    2    0    0  0.29675587591E+03 -0.81515375889E+03  0.67623551114E+03  0.11035046295E+04  0.88816103787E+02 0.  0.
         11    1    3    3    0    0  0.74823080235E+02 -0.33020654679E+03  0.25334697041E+03  0.42287059994E+03  0.00000000000E+00 0. -1.
        -11    1    3    3    0    0  0.22193279567E+03 -0.48494721211E+03  0.42288854073E+03  0.68063402957E+03  0.00000000000E+00 0.  1.
         22    1    1    2    0    0 -0.29675587591E+03  0.81515375889E+03 -0.84958524621E+03  0.12142218871E+04  0.00000000000E+00 0. -1.
<mgrwt>
<rscale>  0 0.23112348E+04</rscale>
<asrwt>0</asrwt>
<pdfrwt beam="1">  1        1 0.19162125E+00 0.23112348E+04</pdfrwt>
<pdfrwt beam="2">  1       -1 0.16495206E+00 0.23112348E+04</pdfrwt>
<totfact> 0.23979324E+00</totfact>
</mgrwt>
</event>
<event>
 6    1  0.1568961E-005  0.2788444E+04  0.7818608E-02  0.8306865E-01
          2   -1    0    0  501    0  0.00000000000E+00  0.00000000000E+00  0.18740630989E+04  0.18740630989E+04  0.00000000000E+00 0. -1.
         -2   -1    0    0    0  501 -0.00000000000E+00 -0.00000000000E+00 -0.10372407113E+04  0.10372407113E+04  0.00000000000E+00 0.  1.
         23    2    1    2    0    0 -0.30276030414E+03  0.13553349543E+04  0.30922347593E+03  0.14257206750E+04  0.91998070051E+02 0.  0.
         13    1    3    3    0    0 -0.10025533850E+03  0.57337143869E+03  0.16683059391E+03  0.60550671893E+03  0.00000000000E+00 0. -1.
        -13    1    3    3    0    0 -0.20250496564E+03  0.78196351559E+03  0.14239288201E+03  0.82021395603E+03  0.00000000000E+00 0.  1.
         22    1    1    2    0    0  0.30276030414E+03 -0.13553349543E+04  0.52759891167E+03  0.14855831352E+04  0.00000000000E+00 0.  1.
<mgrwt>
<rscale>  0 0.27884437E+04</rscale>
<asrwt>0</asrwt>
<pdfrwt beam="1">  1        2 0.28831740E+00 0.27884437E+04</pdfrwt>
<pdfrwt beam="2">  1       -2 0.15957549E+00 0.27884437E+04</pdfrwt>
<totfact> 0.17348328E+00</totfact>
</mgrwt>
</event>
<event>
 6    1  0.1568961E-005  0.1002590E+04  0.7818608E-02  0.9305708E-01
         -2   -1    0    0    0  501 -0.00000000000E+00  0.00000000000E+00  0.64131694427E+02  0.64131694427E+02  0.00000000000E+00 0.  1.
          2   -1    0    0  501    0  0.00000000000E+00 -0.00000000000E+00 -0.39184500376E+04  0.39184500376E+04  0.00000000000E+00 0. -1.
         23    2    1    2    0    0  0.21500261347E+03  0.37452314342E+03 -0.29206323033E+04  0.29538624652E+04  0.93363289743E+02 0.  0.
         13    1    3    3    0    0  0.17919093848E+02  0.11230332919E+03 -0.77611096873E+03  0.78439872989E+03  0.00000000000E+00 0. -1.
        -13    1    3    3    0    0  0.19708351962E+03  0.26221981422E+03 -0.21445213345E+04  0.21694637353E+04  0.00000000000E+00 0.  1.
         22    1    1    2    0    0 -0.21500261347E+03 -0.37452314342E+03 -0.93368603987E+03  0.10287192668E+04  0.00000000000E+00 0.  1.
<mgrwt>
<rscale>  0 0.10025903E+04</rscale>
<asrwt>0</asrwt>
<pdfrwt beam="1">  1        2 0.60283850E+00 0.10025903E+04</pdfrwt>
<pdfrwt beam="2">  1       -2 0.98664140E-02 0.10025903E+04</pdfrwt>
<totfact> 0.29453952E+01</totfact>
</mgrwt>
</event>
<event>
 6    1  0.1568961E-005  0.1997149E+04  0.7818608E-02  0.8607955E-01
          2   -1    0    0  501    0  0.00000000000E+00  0.00000000000E+00  0.22050594562E+04  0.22050594562E+04  0.00000000000E+00 0. -1.
         -2   -1    0    0    0  501 -0.00000000000E+00 -0.00000000000E+00 -0.45221029818E+03  0.45221029818E+03  0.00000000000E+00 0.  1.
         23    2    1    2    0    0  0.49726690417E+03 -0.63756050906E+03  0.16530332343E+04  0.18425790184E+04  0.93919053721E+02 0.  0.
         13    1    3    3    0    0  0.22980371870E+03 -0.25411478359E+03  0.78889785990E+03  0.86008366205E+03  0.00000000000E+00 0. -1.
        -13    1    3    3    0    0  0.26746318546E+03 -0.38344572546E+03  0.86413537437E+03  0.98249535632E+03  0.00000000000E+00 0.  1.
         22    1    1    2    0    0 -0.49726690417E+03  0.63756050906E+03  0.99815923729E+02  0.81469073600E+03  0.00000000000E+00 0.  1.
<mgrwt>
<rscale>  0 0.19971486E+04</rscale>
<asrwt>0</asrwt>
<pdfrwt beam="1">  1        2 0.33923991E+00 0.19971486E+04</pdfrwt>
<pdfrwt beam="2">  1       -2 0.69570816E-01 0.19971486E+04</pdfrwt>
<totfact> 0.89821115E+00</totfact>
</mgrwt>
</event>
<event>
 6    1  0.1568961E-005  0.2301775E+04  0.7818608E-02  0.8477222E-01
         -1   -1    0    0    0  501 -0.00000000000E+00  0.00000000000E+00  0.73469110923E+03  0.73469110923E+03  0.00000000000E+00 0.  1.
          1   -1    0    0  501    0  0.00000000000E+00 -0.00000000000E+00 -0.18028560026E+04  0.18028560026E+04  0.00000000000E+00 0. -1.
         23    2    1    2    0    0  0.26794651605E+03 -0.71695328363E+02 -0.17637507368E+04  0.17886978471E+04  0.10810999617E+03 0.  0.
         13    1    3    3    0    0  0.11970558824E+03 -0.51413480306E+02 -0.52406881644E+03  0.54001934982E+03  0.00000000000E+00 0. -1.
        -13    1    3    3    0    0  0.14824092782E+03 -0.20281848057E+02 -0.12396819203E+04  0.12486784973E+04  0.00000000000E+00 0.  1.
         22    1    1    2    0    0 -0.26794651605E+03  0.71695328363E+02  0.69558584345E+03  0.74884926466E+03  0.00000000000E+00 0.  1.
<mgrwt>
<rscale>  0 0.23017752E+04</rscale>
<asrwt>0</asrwt>
<pdfrwt beam="1">  1        1 0.27736246E+00 0.23017752E+04</pdfrwt>
<pdfrwt beam="2">  1       -1 0.11302940E+00 0.23017752E+04</pdfrwt>
<totfact> 0.26220462E+00</totfact>
</mgrwt>
</event>
<event>
 6    1  0.1568961E-005  0.2633808E+04  0.7818608E-02  0.8356807E-01
         -2   -1    0    0    0  501 -0.00000000000E+00  0.00000000000E+00  0.45169590647E+03  0.45169590647E+03  0.00000000000E+00 0.  1.
          2   -1    0    0  501    0  0.00000000000E+00 -0.00000000000E+00 -0.38393877497E+04  0.38393877497E+04  0.00000000000E+00 0. -1.
         23    2    1    2    0    0 -0.12369674508E+04  0.44449413231E+03 -0.16369391775E+04  0.21018375748E+04  0.10241001913E+03 0.  0.
         11    1    3    3    0    0 -0.53618166107E+03  0.21056561045E+03 -0.64127162376E+03  0.86200808895E+03  0.00000000000E+00 0.  1.
        -11    1    3    3    0    0 -0.70078578978E+03  0.23392852186E+03 -0.99566755371E+03  0.12398294859E+04  0.00000000000E+00 0. -1.
         22    1    1    2    0    0  0.12369674508E+04 -0.44449413231E+03 -0.17507526657E+04  0.21892460814E+04  0.00000000000E+00 0. -1.
<mgrwt>
<rscale>  0 0.26338077E+04</rscale>
<asrwt>0</asrwt>
<pdfrwt beam="1">  1        2 0.59067503E+00 0.26338077E+04</pdfrwt>
<pdfrwt beam="2">  1       -2 0.69491679E-01 0.26338077E+04</pdfrwt>
<totfact> 0.76448996E-01</totfact>
</mgrwt>
</event>
<event>
 6    1  0.1568961E-005  0.1706570E+04  0.7818608E-02  0.8757626E-01
         -2   -1    0    0    0  501 -0.00000000000E+00  0.00000000000E+00  0.13074994210E+04  0.13074994210E+04  0.00000000000E+00 0. -1.
          2   -1    0    0  501    0  0.00000000000E+00 -0.00000000000E+00 -0.55686097457E+03  0.55686097457E+03  0.00000000000E+00 0.  1.
         23    2    1    2    0    0  0.25981086968E+03 -0.50178229443E+03 -0.31930478631E+03  0.65437457734E+03  0.83446880762E+02 0.  0.
         11    1    3    3    0    0  0.14137971091E+03 -0.27125559936E+03 -0.12494027630E+03  0.33042078549E+03  0.00000000000E+00 0. -1.
        -11    1    3    3    0    0  0.11843115877E+03 -0.23052669507E+03 -0.19436451001E+03  0.32395379185E+03  0.00000000000E+00 0.  1.
         22    1    1    2    0    0 -0.25981086968E+03  0.50178229443E+03  0.10699432327E+04  0.12099858182E+04  0.00000000000E+00 0. -1.
<mgrwt>
<rscale>  0 0.17065701E+04</rscale>
<asrwt>0</asrwt>
<pdfrwt beam="1">  1        2 0.85670919E-01 0.17065701E+04</pdfrwt>
<pdfrwt beam="2">  1       -2 0.20115376E+00 0.17065701E+04</pdfrwt>
<totfact> 0.67369602E+00</totfact>
</mgrwt>
</event>
<event>
 6    1  0.1568961E-005  0.1719276E+04  0.7818608E-02  0.8750446E-01
         -1   -1    0    0    0  501 -0.00000000000E+00  0.00000000000E+00  0.71920228027E+03  0.71920228027E+03  0.00000000000E+00 0.  1.
          1   -1    0    0  501    0  0.00000000000E+00 -0.00000000000E+00 -0.10274958031E+04  0.10274958031E+04  0.00000000000E+00 0. -1.
         23    2    1    2    0    0 -0.68931043324E+03  0.32386041489E+03 -0.55411666924E+03  0.94640847260E+03  0.92786163677E+02 0.  0.
         11    1    3    3    0    0 -0.22369678953E+03  0.10330309796E+03 -0.12713521524E+03  0.27726367711E+03  0.00000000000E+00 0.  1.
        -11    1    3    3    0    0 -0.46561364371E+03  0.22055731693E+03 -0.42698145400E+03  0.66914479549E+03  0.00000000000E+00 0. -1.
         22    1    1    2    0    0  0.68931043324E+03 -0.32386041489E+03  0.24582314646E+03  0.80028961073E+03  0.00000000000E+00 0.  1.
<mgrwt>
<rscale>  0 0.17192758E+04</rscale>
<asrwt>0</asrwt>
<pdfrwt beam="1">  1        1 0.15807628E+00 0.17192758E+04</pdfrwt>
<pdfrwt beam="2">  1       -1 0.11064650E+00 0.17192758E+04</pdfrwt>
<totfact> 0.10301422E+01</totfact>
</mgrwt>
</event>
<event>
 6    1  0.1568961E-005  0.7025175E+03  0.7818608E-02  0.9712937E-01
          2   -1    0    0  501    0  0.00000000000E+00  0.00000000000E+00  0.55118361997E+03  0.55118361997E+03  0.00000000000E+00 0. -1.
         -2   -1    0    0    0  501 -0.00000000000E+00 -0.00000000000E+00 -0.22385043620E+03  0.22385043620E+03  0.00000000000E+00 0.  1.
         23    2    1    2    0    0  0.16769048489E+03 -0.21491862542E+03  0.40063084518E+03  0.49275288172E+03  0.89387997280E+02 0.  0.
         13    1    3    3    0    0  0.58579103606E+02 -0.13270675021E+03  0.15941401977E+03  0.21553520044E+03  0.00000000000E+00 0.  1.
        -13    1    3    3    0    0  0.10911138129E+03 -0.82211875214E+02  0.24121682541E+03  0.27721768128E+03  0.00000000000E+00 0. -1.
         22    1    1    2    0    0 -0.16769048489E+03  0.21491862542E+03 -0.73297661415E+02  0.28228117445E+03  0.00000000000E+00 0. -1.
<mgrwt>
<rscale>  0 0.70251746E+03</rscale>
<asrwt>0</asrwt>
<pdfrwt beam="1">  1        2 0.84797479E-01 0.70251746E+03</pdfrwt>
<pdfrwt beam="2">  1       -2 0.34438529E-01 0.70251746E+03</pdfrwt>
<totfact> 0.43688152E+02</totfact>
</mgrwt>
</event>
<event>
 6    1  0.1568961E-005  0.2340460E+04  0.7818608E-02  0.8462137E-01
         -2   -1    0    0    0  501 -0.00000000000E+00  0.00000000000E+00  0.52536069798E+03  0.52536069798E+03  0.00000000000E+00 0.  1.
          2   -1    0    0  501    0  0.00000000000E+00 -0.00000000000E+00 -0.26066626073E+04  0.26066626073E+04  0.00000000000E+00 0. -1.
         23    2    1    2    0    0  0.16039846427E+02  0.55500448856E+03  0.33360278548E+03  0.65411048520E+03  0.91007963214E+02 0.  0.
         11    1    3    3    0    0 -0.18364631872E+01  0.18037316148E+03  0.15877781281E+03  0.24030864283E+03  0.00000000000E+00 0.  1.
        -11    1    3    3    0    0  0.17876309614E+02  0.37463132708E+03  0.17482497268E+03  0.41380184237E+03  0.00000000000E+00 0. -1.
         22    1    1    2    0    0 -0.16039846427E+02 -0.55500448856E+03 -0.24149046948E+04  0.24779128201E+04  0.00000000000E+00 0. -1.
<mgrwt>
<rscale>  0 0.23404599E+04</rscale>
<asrwt>0</asrwt>
<pdfrwt beam="1">  1        2 0.40102502E+00 0.23404599E+04</pdfrwt>
<pdfrwt beam="2">  1       -2 0.80824722E-01 0.23404599E+04</pdfrwt>
<totfact> 0.36811028E+00</totfact>
</mgrwt>
</event>
<event>
 6    1  0.1568961E-005  0.2301294E+04  0.7818608E-02  0.8477411E-01
          2   -1    0    0  501    0  0.00000000000E+00  0.00000000000E+00  0.19500868860E+04  0.19500868860E+04  0.00000000000E+00 0. -1.
         -2   -1    0    0    0  501 -0.00000000000E+00 -0.00000000000E+00 -0.67893812211E+03  0.67893812211E+03  0.00000000000E+00 0.  1.
         23    2    1    2    0    0  0.27286045142E+03  0.10774153028E+04  0.96875687282E+03  0.14771928084E+04  0.91280632348E+02 0.  0.
         13    1    3    3    0    0  0.25575214596E+03  0.10483974900E+04  0.92085999779E+03  0.14186365259E+04  0.00000000000E+00 0. -1.
        -13    1    3    3    0    0  0.17108305460E+02  0.29017812789E+02  0.47896875032E+02  0.58556282435E+02  0.00000000000E+00 0.  1.
         22    1    1    2    0    0 -0.27286045142E+03 -0.10774153028E+04  0.30239189108E+03  0.11518321998E+04  0.00000000000E+00 0.  1.
<mgrwt>
<rscale>  0 0.23012938E+04</rscale>
<asrwt>0</asrwt>
<pdfrwt beam="1">  1        2 0.30001337E+00 0.23012938E+04</pdfrwt>
<pdfrwt beam="2">  1       -2 0.10445202E+00 0.23012938E+04</pdfrwt>
<totfact> 0.48058598E+00</totfact>
</mgrwt>
</event>
<event>
 6    1  0.1568961E-005  0.2116756E+04  0.7818608E-02  0.8553898E-01
          2   -1    0    0  501    0  0.00000000000E+00  0.00000000000E+00  0.87496546574E+03  0.87496546574E+03  0.00000000000E+00 0.  1.
         -2   -1    0    0    0  501 -0.00000000000E+00 -0.00000000000E+00 -0.12802379945E+04  0.12802379945E+04  0.00000000000E+00 0. -1.
         23    2    1    2    0    0  0.45885242711E+03 -0.34570119815E+03  0.69968690848E+03  0.90981587953E+03  0.90267914955E+02 0.  0.
         11    1    3    3    0    0  0.22010083224E+03 -0.13826137940E+03  0.25499495971E+03  0.36411950629E+03  0.00000000000E+00 0. -1.
        -11    1    3    3    0    0  0.23875159487E+03 -0.20743981875E+03  0.44469194877E+03  0.54569637323E+03  0.00000000000E+00 0.  1.
         22    1    1    2    0    0 -0.45885242711E+03  0.34570119815E+03 -0.11049594373E+04  0.12453875808E+04  0.00000000000E+00 0. -1.
<mgrwt>
<rscale>  0 0.21167560E+04</rscale>
<asrwt>0</asrwt>
<pdfrwt beam="1">  1        2 0.13461007E+00 0.21167560E+04</pdfrwt>
<pdfrwt beam="2">  1       -2 0.19695969E+00 0.21167560E+04</pdfrwt>
<totfact> 0.39078398E+00</totfact>
</mgrwt>
</event>
<event>
 6    1  0.1568961E-005  0.7692523E+03  0.7818608E-02  0.9605621E-01
          2   -1    0    0  501    0  0.00000000000E+00  0.00000000000E+00  0.18452460688E+04  0.18452460688E+04  0.00000000000E+00 0. -1.
         -2   -1    0    0    0  501 -0.00000000000E+00 -0.00000000000E+00 -0.80172111960E+02  0.80172111960E+02  0.00000000000E+00 0.  1.
         23    2    1    2    0    0  0.29788496163E+03 -0.14886977347E+03  0.44238884665E+03  0.56145573240E+03  0.92881580435E+02 0.  0.
         11    1    3    3    0    0  0.16848207026E+03 -0.13432056407E+03  0.27197323326E+03  0.34698366178E+03  0.00000000000E+00 0. -1.
        -11    1    3    3    0    0  0.12940289137E+03 -0.14549209401E+02  0.17041561339E+03  0.21447207062E+03  0.00000000000E+00 0.  1.
         22    1    1    2    0    0 -0.29788496163E+03  0.14886977347E+03  0.13226851102E+04  0.13639624484E+04  0.00000000000E+00 0. -1.
<mgrwt>
<rscale>  0 0.76925230E+03</rscale>
<asrwt>0</asrwt>
<pdfrwt beam="1">  1        2 0.28388398E+00 0.76925230E+03</pdfrwt>
<pdfrwt beam="2">  1       -2 0.12334172E-01 0.76925230E+03</pdfrwt>
<totfact> 0.40333596E+02</totfact>
</mgrwt>
</event>
<event>
 6    1  0.1568961E-005  0.1606846E+04  0.7818608E-02  0.8816353E-01
         -2   -1    0    0    0  501 -0.00000000000E+00  0.00000000000E+00  0.38958889297E+03  0.38958889297E+03  0.00000000000E+00 0.  1.
          2   -1    0    0  501    0  0.00000000000E+00 -0.00000000000E+00 -0.16568454586E+04  0.16568454586E+04  0.00000000000E+00 0. -1.
         23    2    1    2    0    0  0.61762869439E+03  0.41591407381E+03 -0.26009495807E+03  0.79390721628E+03  0.90496187267E+02 0.  0.
         11    1    3    3    0    0  0.74505888061E+02  0.89406328810E+02 -0.40040476122E+02  0.12307663757E+03  0.00000000000E+00 0.  1.
        -11    1    3    3    0    0  0.54312280633E+03  0.32650774500E+03 -0.22005448195E+03  0.67083057871E+03  0.00000000000E+00 0. -1.
         22    1    1    2    0    0 -0.61762869439E+03 -0.41591407381E+03 -0.10071616076E+04  0.12525271353E+04  0.00000000000E+00 0. -1.
<mgrwt>
<rscale>  0 0.16068461E+04</rscale>
<asrwt>0</asrwt>
<pdfrwt beam="1">  1        2 0.25489930E+00 0.16068461E+04</pdfrwt>
<pdfrwt beam="2">  1       -2 0.59936753E-01 0.16068461E+04</pdfrwt>
<totfact> 0.25783807E+01</totfact>
</mgrwt>
</event>
<event>
 6    1  0.1568961E-005  0.1285265E+04  0.7818608E-02  0.9041332E-01
          1   -1    0    0  501    0  0.00000000000E+00  0.00000000000E+00  0.35697060219E+03  0.35697060219E+03  0.00000000000E+00 0. -1.
         -1   -1    0    0    0  501 -0.00000000000E+00 -0.00000000000E+00 -0.11568930886E+04  0.11568930886E+04  0.00000000000E+00 0.  1.
         23    2    1    2    0    0 -0.20397870196E+03  0.31203937195E+03  0.20894425799E+03  0.43832290196E+03  0.97433992715E+02 0.  0.
         11    1    3    3    0    0 -0.17655095072E+03  0.22086871259E+03  0.11713882882E+03  0.30606328042E+03  0.00000000000E+00 0.  1.
        -11    1    3    3    0    0 -0.27427751239E+02  0.91170659358E+02  0.91805429169E+02  0.13225962154E+03  0.00000000000E+00 0. -1.
         22    1    1    2    0    0  0.20397870196E+03 -0.31203937195E+03 -0.10088667444E+04  0.10755407888E+04  0.00000000000E+00 0.  1.
<mgrwt>
<rscale>  0 0.12852655E+04</rscale>
<asrwt>0</asrwt>
<pdfrwt beam="1">  1        1 0.54918554E-01 0.12852655E+04</pdfrwt>
<pdfrwt beam="2">  1       -1 0.17798355E+00 0.12852655E+04</pdfrwt>
<totfact> 0.14768844E+01</totfact>
</mgrwt>
</event>
<event>
 6    1  0.1568961E-005  0.8148257E+03  0.7818608E-02  0.9538802E-01
         -1   -1    0    0    0  501 -0.00000000000E+00  0.00000000000E+00  0.95486806311E+02  0.95486806311E+02  0.00000000000E+00 0.  1.
          1   -1    0    0  501    0  0.00000000000E+00 -0.00000000000E+00 -0.17383053168E+04  0.17383053168E+04  0.00000000000E+00 0. -1.
         23    2    1    2    0    0  0.10382353321E+03  0.37618194828E+03 -0.10512013208E+04  0.11250586870E+04  0.91873000433E+02 0.  0.
         13    1    3    3    0    0  0.28117447865E+02  0.23896839971E+03 -0.70801348444E+03  0.74778311099E+03  0.00000000000E+00 0. -1.
        -13    1    3    3    0    0  0.75706085342E+02  0.13721354857E+03 -0.34318783634E+03  0.37727557604E+03  0.00000000000E+00 0.  1.
         22    1    1    2    0    0 -0.10382353321E+03 -0.37618194828E+03 -0.59161718975E+03  0.70873343611E+03  0.00000000000E+00 0.  1.
<mgrwt>
<rscale>  0 0.81482568E+03</rscale>
<asrwt>0</asrwt>
<pdfrwt beam="1">  1        1 0.26743159E+00 0.81482568E+03</pdfrwt>
<pdfrwt beam="2">  1       -1 0.14690278E-01 0.81482568E+03</pdfrwt>
<totfact> 0.15554319E+02</totfact>
</mgrwt>
</event>
<event>
 6    1  0.1568961E-005  0.4327614E+04  0.7818608E-02  0.7941532E-01
          2   -1    0    0  501    0  0.00000000000E+00  0.00000000000E+00  0.41359867878E+04  0.41359867878E+04  0.00000000000E+00 0. -1.
         -2   -1    0    0    0  501 -0.00000000000E+00 -0.00000000000E+00 -0.11320296526E+04  0.11320296526E+04  0.00000000000E+00 0.  1.
         23    2    1    2    0    0  0.18398176943E+04  0.10929563648E+04  0.11225467644E+04  0.24185975966E+04  0.10010161106E+03 0.  0.
         11    1    3    3    0    0  0.39715431217E+03  0.28341124887E+03  0.24471915126E+03  0.54583967119E+03  0.00000000000E+00 0.  1.
        -11    1    3    3    0    0  0.14426633822E+04  0.80954511591E+03  0.87782761310E+03  0.18727579254E+04  0.00000000000E+00 0. -1.
         22    1    1    2    0    0 -0.18398176943E+04 -0.10929563648E+04  0.18814103709E+04  0.28494188438E+04  0.00000000000E+00 0. -1.
<mgrwt>
<rscale>  0 0.43276135E+04</rscale>
<asrwt>0</asrwt>
<pdfrwt beam="1">  1        2 0.63630565E+00 0.43276135E+04</pdfrwt>
<pdfrwt beam="2">  1       -2 0.17415841E+00 0.43276135E+04</pdfrwt>
<totfact> 0.40185948E-02</totfact>
</mgrwt>
</event>
<event>
 6    1  0.1568961E-005  0.1760584E+04  0.7818608E-02  0.8727546E-01
          2   -1    0    0  501    0  0.00000000000E+00  0.00000000000E+00  0.73047938034E+03  0.73047938034E+03  0.00000000000E+00 0. -1.
         -2   -1    0    0    0  501 -0.00000000000E+00 -0.00000000000E+00 -0.10608298375E+04  0.10608298375E+04  0.00000000000E+00 0.  1.
         23    2    1    2    0    0  0.63515320645E+03  0.26053076182E+03  0.39111916796E+03  0.79541048129E+03  0.91693820348E+02 0.  0.
         13    1    3    3    0    0  0.84116974750E+02  0.60696016392E+02  0.85170174042E+02  0.13421486651E+03  0.00000000000E+00 0. -1.
        -13    1    3    3    0    0  0.55103623170E+03  0.19983474542E+03  0.30594899392E+03  0.66119561478E+03  0.00000000000E+00 0.  1.
         22    1    1    2    0    0 -0.63515320645E+03 -0.26053076182E+03 -0.72146962515E+03  0.99589873658E+03  0.00000000000E+00 0.  1.
<mgrwt>
<rscale>  0 0.17605844E+04</rscale>
<asrwt>0</asrwt>
<pdfrwt beam="1">  1        2 0.11238144E+00 0.17605844E+04</pdfrwt>
<pdfrwt beam="2">  1       -2 0.16320459E+00 0.17605844E+04</pdfrwt>
<totfact> 0.87619426E+00</totfact>
</mgrwt>
</event>
<event>
 6    1  0.1568961E-005  0.4174385E+03  0.7818608E-02  0.1037903E+00
          2   -1    0    0  501    0  0.00000000000E+00  0.00000000000E+00  0.86833128534E+03  0.86833128534E+03  0.00000000000E+00 0. -1.
         -2   -1    0    0    0  501 -0.00000000000E+00 -0.00000000000E+00 -0.50169466352E+02  0.50169466352E+02  0.00000000000E+00 0.  1.
         23    2    1    2    0    0 -0.17368726455E+03 -0.80304883952E+02  0.31000048478E+03  0.37550528040E+03  0.91037216549E+02 0.  0.
         11    1    3    3    0    0 -0.14287302983E+03 -0.88809967434E+02  0.29630311933E+03  0.34072782612E+03  0.00000000000E+00 0. -1.
        -11    1    3    3    0    0 -0.30814234714E+02  0.85050834821E+01  0.13697365444E+02  0.34777454279E+02  0.00000000000E+00 0.  1.
         22    1    1    2    0    0  0.17368726455E+03  0.80304883952E+02  0.50816133421E+03  0.54299547129E+03  0.00000000000E+00 0.  1.
<mgrwt>
<rscale>  0 0.41743846E+03</rscale>
<asrwt>0</asrwt>
<pdfrwt beam="1">  1        2 0.13358942E+00 0.41743846E+03</pdfrwt>
<pdfrwt beam="2">  1       -2 0.77183801E-02 0.41743846E+03</pdfrwt>
<totfact> 0.32027698E+03</totfact>
</mgrwt>
</event>
<event>
 6    1  0.1568961E-005  0.4379749E+04  0.7818608E-02  0.7932034E-01
          1   -1    0    0  501    0  0.00000000000E+00  0.00000000000E+00  0.22188262411E+04  0.22188262411E+04  0.00000000000E+00 0. -1.
         -1   -1    0    0    0  501 -0.00000000000E+00 -0.00000000000E+00 -0.21613004596E+04  0.21613004596E+04  0.00000000000E+00 0.  1.
         23    2    1    2    0    0 -0.10243100638E+04 -0.56967257141E+02  0.19626012617E+04  0.22163871230E+04  0.90065482939E+02 0.  0.
         13    1    3    3    0    0 -0.33996311950E+03 -0.58396087672E+02  0.69220394787E+03  0.77338950803E+03  0.00000000000E+00 0. -1.
        -13    1    3    3    0    0 -0.68434694428E+03  0.14288305312E+01  0.12703973138E+04  0.14429976149E+04  0.00000000000E+00 0.  1.
         22    1    1    2    0    0  0.10243100638E+04  0.56967257141E+02 -0.19050754801E+04  0.21637395777E+04  0.00000000000E+00 0.  1.
<mgrwt>
<rscale>  0 0.43797489E+04</rscale>
<asrwt>0</asrwt>
<pdfrwt beam="1">  1        1 0.34135788E+00 0.43797489E+04</pdfrwt>
<pdfrwt beam="2">  1       -1 0.33250776E+00 0.43797489E+04</pdfrwt>
<totfact> 0.32527406E-02</totfact>
</mgrwt>
</event>
<event>
 6    1  0.1568961E-005  0.2447914E+04  0.7818608E-02  0.8421780E-01
         -2   -1    0    0    0  501 -0.00000000000E+00  0.00000000000E+00  0.58404424671E+03  0.58404424671E+03  0.00000000000E+00 0.  1.
          2   -1    0    0  501    0  0.00000000000E+00 -0.00000000000E+00 -0.25649956233E+04  0.25649956233E+04  0.00000000000E+00 0. -1.
         23    2    1    2    0    0  0.75648249645E+03 -0.94481905637E+03 -0.77258504269E+03  0.14387480781E+04  0.90330322868E+02 0.  0.
         13    1    3    3    0    0  0.49350766805E+03 -0.60728222371E+03 -0.54961326282E+03  0.95625114710E+03  0.00000000000E+00 0. -1.
        -13    1    3    3    0    0  0.26297482840E+03 -0.33753683265E+03 -0.22297177987E+03  0.48249693096E+03  0.00000000000E+00 0.  1.
         22    1    1    2    0    0 -0.75648249645E+03  0.94481905637E+03 -0.12083663339E+04  0.17102917919E+04  0.00000000000E+00 0. -1.
<mgrwt>
<rscale>  0 0.24479142E+04</rscale>
<asrwt>0</asrwt>
<pdfrwt beam="1">  1        2 0.39461471E+00 0.24479142E+04</pdfrwt>
<pdfrwt beam="2">  1       -2 0.89852962E-01 0.24479142E+04</pdfrwt>
<totfact> 0.30311417E+00</totfact>
</mgrwt>
</event>
<event>
 6    1  0.1568961E-005  0.5987956E+04  0.7818608E-02  0.7691897E-01
         -1   -1    0    0    0  501 -0.00000000000E+00  0.00000000000E+00  0.28709919138E+04  0.28709919138E+04  0.00000000000E+00 0.  1.
          1   -1    0    0  501    0  0.00000000000E+00 -0.00000000000E+00 -0.31222321206E+04  0.31222321206E+04  0.00000000000E+00 0. -1.
         23    2    1    2    0    0  0.54255400304E+03  0.42625174440E+02  0.28202970922E+04  0.28738453895E+04  0.93433840801E+02 0.  0.
         13    1    3    3    0    0  0.23581543856E+03  0.20626657206E+02  0.99103550110E+03  0.10189140025E+04  0.00000000000E+00 0. -1.
        -13    1    3    3    0    0  0.30673856449E+03  0.21998517234E+02  0.18292615911E+04  0.18549313870E+04  0.00000000000E+00 0.  1.
         22    1    1    2    0    0 -0.54255400304E+03 -0.42625174440E+02 -0.30715372990E+04  0.31193786450E+04  0.00000000000E+00 0. -1.
<mgrwt>
<rscale>  0 0.59879556E+04</rscale>
<asrwt>0</asrwt>
<pdfrwt beam="1">  1        1 0.48034340E+00 0.59879556E+04</pdfrwt>
<pdfrwt beam="2">  1       -1 0.44169107E+00 0.59879556E+04</pdfrwt>
<totfact> 0.12032939E-03</totfact>
</mgrwt>
</event>
<event>
 6    1  0.1568961E-005  0.5303852E+04  0.7818608E-02  0.7783271E-01
          2   -1    0    0  501    0  0.00000000000E+00  0.00000000000E+00  0.44080739288E+04  0.44080739288E+04  0.00000000000E+00 0. -1.
         -2   -1    0    0    0  501 -0.00000000000E+00 -0.00000000000E+00 -0.15954161951E+04  0.15954161951E+04  0.00000000000E+00 0.  1.
         23    2    1    2    0    0 -0.60354634514E+03 -0.66789516458E+03  0.42292973835E+04  0.43250324870E+04  0.92722782676E+02 0.  0.
         13    1    3    3    0    0 -0.33406979207E+03 -0.42377434144E+03  0.26562495732E+04  0.27105071691E+04  0.00000000000E+00 0.  1.
        -13    1    3    3    0    0 -0.26947655307E+03 -0.24412082314E+03  0.15730478102E+04  0.16145253179E+04  0.00000000000E+00 0. -1.
         22    1    1    2    0    0  0.60354634514E+03  0.66789516458E+03 -0.14166396498E+04  0.16784576369E+04  0.00000000000E+00 0.  1.
<mgrwt>
<rscale>  0 0.53038524E+04</rscale>
<asrwt>0</asrwt>
<pdfrwt beam="1">  1        2 0.67816521E+00 0.53038524E+04</pdfrwt>
<pdfrwt beam="2">  1       -2 0.24544865E+00 0.53038524E+04</pdfrwt>
<totfact> 0.72806910E-03</totfact>
</mgrwt>
</event>
<event>
 6    1  0.1568961E-005  0.6308945E+03  0.7818608E-02  0.9843305E-01
          1   -1    0    0  501    0  0.00000000000E+00  0.00000000000E+00  0.17972844620E+03  0.17972844620E+03  0.00000000000E+00 0. -1.
         -1   -1    0    0    0  501 -0.00000000000E+00 -0.00000000000E+00 -0.55365174478E+03  0.55365174478E+03  0.00000000000E+00 0.  1.
         23    2    1    2    0    0  0.12397621519E+03  0.37997115434E+01 -0.51960273065E+03  0.54205053654E+03  0.91908904474E+02 0.  0.
         13    1    3    3    0    0  0.13117823112E+02  0.28140895221E+01 -0.30812148952E+01  0.13765546421E+02  0.00000000000E+00 0. -1.
        -13    1    3    3    0    0  0.11085839208E+03  0.98562202132E+00 -0.51652151576E+03  0.52828499012E+03  0.00000000000E+00 0.  1.
         22    1    1    2    0    0 -0.12397621519E+03 -0.37997115434E+01  0.14567943207E+03  0.19132965444E+03  0.00000000000E+00 0. -1.
<mgrwt>
<rscale>  0 0.63089450E+03</rscale>
<asrwt>0</asrwt>
<pdfrwt beam="1">  1        1 0.27650531E-01 0.63089450E+03</pdfrwt>
<pdfrwt beam="2">  1       -1 0.85177190E-01 0.63089450E+03</pdfrwt>
<totfact> 0.23689918E+02</totfact>
</mgrwt>
</event>
<event>
 6    1  0.1568961E-005  0.1131580E+04  0.7818608E-02  0.9174947E-01
          3   -1    0    0  501    0  0.00000000000E+00  0.00000000000E+00  0.57687123096E+03  0.57687123096E+03  0.00000000000E+00 0. -1.
         -3   -1    0    0    0  501 -0.00000000000E+00 -0.00000000000E+00 -0.55492161569E+03  0.55492161569E+03  0.00000000000E+00 0.  1.
         23    2    1    2    0    0  0.24033300706E+03  0.47920935784E+03 -0.15897830902E+03  0.56598680506E+03  0.87552257747E+02 0.  0.
         11    1    3    3    0    0  0.13681899353E+03  0.32040882390E+03 -0.64998380553E+02  0.35440942552E+03  0.00000000000E+00 0. -1.
        -11    1    3    3    0    0  0.10351401353E+03  0.15880053393E+03 -0.93979928469E+02  0.21157737953E+03  0.00000000000E+00 0.  1.
         22    1    1    2    0    0 -0.24033300706E+03 -0.47920935784E+03  0.18092792429E+03  0.56580604160E+03  0.00000000000E+00 0. -1.
<mgrwt>
<rscale>  0 0.11315800E+04</rscale>
<asrwt>0</asrwt>
<pdfrwt beam="1">  1        3 0.88749420E-01 0.11315800E+04</pdfrwt>
<pdfrwt beam="2">  1       -3 0.85372556E-01 0.11315800E+04</pdfrwt>
<totfact> 0.37605690E+00</totfact>
</mgrwt>
</event>
<event>
 6    1  0.1568961E-005  0.3500858E+04  0.7818608E-02  0.8113587E-01
         -2   -1    0    0    0  501 -0.00000000000E+00  0.00000000000E+00  0.12552760934E+04  0.12552760934E+04  0.00000000000E+00 0. -1.
          2   -1    0    0  501    0  0.00000000000E+00 -0.00000000000E+00 -0.24408989139E+04  0.24408989139E+04  0.00000000000E+00 0.  1.
         23    2    1    2    0    0 -0.87848864997E+03 -0.15053338752E+04 -0.43664154345E+03  0.17991390726E+04  0.92049884892E+02 0.  0.
         13    1    3    3    0    0 -0.53372018581E+03 -0.90909054890E+03 -0.31027366642E+03  0.10988960874E+04  0.00000000000E+00 0. -1.
        -13    1    3    3    0    0 -0.34476846415E+03 -0.59624332629E+03 -0.12636787703E+03  0.70024298523E+03  0.00000000000E+00 0.  1.
         22    1    1    2    0    0  0.87848864997E+03  0.15053338752E+04 -0.74898127713E+03  0.18970359347E+04  0.00000000000E+00 0. -1.
<mgrwt>
<rscale>  0 0.35008582E+04</rscale>
<asrwt>0</asrwt>
<pdfrwt beam="1">  1        2 0.37552291E+00 0.35008582E+04</pdfrwt>
<pdfrwt beam="2">  1       -2 0.19311940E+00 0.35008582E+04</pdfrwt>
<totfact> 0.45707102E-01</totfact>
</mgrwt>
</event>
<event>
 6    1  0.1568961E-005  0.1345957E+04  0.7818608E-02  0.8993894E-01
          2   -1    0    0  501    0  0.00000000000E+00  0.00000000000E+00  0.48333091992E+03  0.48333091992E+03  0.00000000000E+00 0. -1.
         -2   -1    0    0    0  501 -0.00000000000E+00 -0.00000000000E+00 -0.93703889920E+03  0.93703889920E+03  0.00000000000E+00 0.  1.
         23    2    1    2    0    0 -0.41108966837E+03 -0.36061321209E+03 -0.63558618706E+03  0.84407450712E+03  0.97238717679E+02 0.  0.
         13    1    3    3    0    0 -0.64289610241E+02 -0.21232023600E+02 -0.53674229384E+02  0.86399512215E+02  0.00000000000E+00 0. -1.
        -13    1    3    3    0    0 -0.34680005813E+03 -0.33938118849E+03 -0.58191195767E+03  0.75767499490E+03  0.00000000000E+00 0.  1.
         22    1    1    2    0    0  0.41108966837E+03  0.36061321209E+03  0.18187820778E+03  0.57629531201E+03  0.00000000000E+00 0. -1.
<mgrwt>
<rscale>  0 0.13459567E+04</rscale>
<asrwt>0</asrwt>
<pdfrwt beam="1">  1        2 0.74358604E-01 0.13459567E+04</pdfrwt>
<pdfrwt beam="2">  1       -2 0.14415983E+00 0.13459567E+04</pdfrwt>
<totfact> 0.20805234E+01</totfact>
</mgrwt>
</event>
<event>
 6    1  0.1568961E-005  0.2158817E+04  0.7818608E-02  0.8535768E-01
         -2   -1    0    0    0  501 -0.00000000000E+00  0.00000000000E+00  0.68840391102E+03  0.68840391102E+03  0.00000000000E+00 0.  1.
          2   -1    0    0  501    0  0.00000000000E+00 -0.00000000000E+00 -0.16924983418E+04  0.16924983418E+04  0.00000000000E+00 0. -1.
         23    2    1    2    0    0 -0.24300010574E+03  0.85970773246E+03  0.16148573555E+03  0.91232349741E+03  0.90056007619E+02 0.  0.
         11    1    3    3    0    0 -0.98917155411E+02  0.46971044298E+03  0.55089357263E+02  0.48316388644E+03  0.00000000000E+00 0. -1.
        -11    1    3    3    0    0 -0.14408295032E+03  0.38999728948E+03  0.10639637829E+03  0.42915961098E+03  0.00000000000E+00 0.  1.
         22    1    1    2    0    0  0.24300010574E+03 -0.85970773246E+03 -0.11655801663E+04  0.14685787554E+04  0.00000000000E+00 0. -1.
<mgrwt>
<rscale>  0 0.21588168E+04</rscale>
<asrwt>0</asrwt>
<pdfrwt beam="1">  1        2 0.26038436E+00 0.21588168E+04</pdfrwt>
<pdfrwt beam="2">  1       -2 0.10590829E+00 0.21588168E+04</pdfrwt>
<totfact> 0.65390097E+00</totfact>
</mgrwt>
</event>
<event>
 6    1  0.1568961E-005  0.1584745E+04  0.7818608E-02  0.8829975E-01
          2   -1    0    0  501    0  0.00000000000E+00  0.00000000000E+00  0.20761579312E+04  0.20761579312E+04  0.00000000000E+00 0. -1.
         -2   -1    0    0    0  501 -0.00000000000E+00 -0.00000000000E+00 -0.30241166326E+03  0.30241166326E+03  0.00000000000E+00 0.  1.
         23    2    1    2    0    0 -0.63690452432E+02 -0.77013483540E+03  0.11345327690E+04  0.13756947091E+04  0.90593544157E+02 0.  0.
         11    1    3    3    0    0 -0.39950069583E+02 -0.38135159421E+03  0.64157454948E+03  0.74742420954E+03  0.00000000000E+00 0.  1.
        -11    1    3    3    0    0 -0.23740382849E+02 -0.38878324119E+03  0.49295821956E+03  0.62827049958E+03  0.00000000000E+00 0. -1.
         22    1    1    2    0    0  0.63690452432E+02  0.77013483540E+03  0.63921349886E+03  0.10028748853E+04  0.00000000000E+00 0.  1.
<mgrwt>
<rscale>  0 0.15847452E+04</rscale>
<asrwt>0</asrwt>
<pdfrwt beam="1">  1        2 0.31940890E+00 0.15847452E+04</pdfrwt>
<pdfrwt beam="2">  1       -2 0.46524873E-01 0.15847452E+04</pdfrwt>
<totfact> 0.25488118E+01</totfact>
</mgrwt>
</event>
<event>
 6    1  0.1568961E-005  0.1617952E+04  0.7818608E-02  0.8809595E-01
          2   -1    0    0  501    0  0.00000000000E+00  0.00000000000E+00  0.21180710483E+04  0.21180710483E+04  0.00000000000E+00 0. -1.
         -2   -1    0    0    0  501 -0.00000000000E+00 -0.00000000000E+00 -0.30898022073E+03  0.30898022073E+03  0.00000000000E+00 0.  1.
         23    2    1    2    0    0  0.65324922709E+02  0.22996015476E+03  0.20624846415E+04  0.20786873167E+04  0.99744905729E+02 0.  0.
         13    1    3    3    0    0  0.35238356944E+02  0.14809982950E+02  0.20414945780E+03  0.20769708355E+03  0.00000000000E+00 0.  1.
        -13    1    3    3    0    0  0.30086565766E+02  0.21515017181E+03  0.18583351837E+04  0.18709902332E+04  0.00000000000E+00 0. -1.
         22    1    1    2    0    0 -0.65324922709E+02 -0.22996015476E+03 -0.25339381392E+03  0.34836395227E+03  0.00000000000E+00 0.  1.
<mgrwt>
<rscale>  0 0.16179519E+04</rscale>
<asrwt>0</asrwt>
<pdfrwt beam="1">  1        2 0.32585708E+00 0.16179519E+04</pdfrwt>
<pdfrwt beam="2">  1       -2 0.47535420E-01 0.16179519E+04</pdfrwt>
<totfact> 0.23066211E+01</totfact>
</mgrwt>
</event>
<event>
 6    1  0.1568961E-005  0.7499908E+03  0.7818608E-02  0.9635365E-01
         -2   -1    0    0    0  501 -0.00000000000E+00  0.00000000000E+00  0.97963059309E+03  0.97963059309E+03  0.00000000000E+00 0.  1.
          2   -1    0    0  501    0  0.00000000000E+00 -0.00000000000E+00 -0.14354548564E+03  0.14354548564E+03  0.00000000000E+00 0. -1.
         23    2    1    2    0    0  0.46003938530E+02 -0.36532155193E+03  0.37754792895E+03  0.53510079212E+03  0.90632336424E+02 0.  0.
         13    1    3    3    0    0  0.69476454777E+02 -0.28287951233E+03  0.26637941808E+03  0.39472242227E+03  0.00000000000E+00 0. -1.
        -13    1    3    3    0    0 -0.23472516247E+02 -0.82442039598E+02  0.11116851087E+03  0.14037836985E+03  0.00000000000E+00 0.  1.
         22    1    1    2    0    0 -0.46003938530E+02  0.36532155193E+03  0.45853717850E+03  0.58807528662E+03  0.00000000000E+00 0.  1.
<mgrwt>
<rscale>  0 0.74999080E+03</rscale>
<asrwt>0</asrwt>
<pdfrwt beam="1">  1        2 0.22083922E-01 0.74999080E+03</pdfrwt>
<pdfrwt beam="2">  1       -2 0.15071239E+00 0.74999080E+03</pdfrwt>
<totfact> 0.75675442E+01</totfact>
</mgrwt>
</event>
<event>
 6    1  0.1568961E-005  0.5500684E+04  0.7818608E-02  0.7755595E-01
          1   -1    0    0  501    0  0.00000000000E+00  0.00000000000E+00  0.20595258042E+04  0.20595258042E+04  0.00000000000E+00 0. -1.
         -1   -1    0    0    0  501 -0.00000000000E+00 -0.00000000000E+00 -0.36728746277E+04  0.36728746277E+04  0.00000000000E+00 0.  1.
         23    2    1    2    0    0 -0.25519942279E+03 -0.71996461518E+03  0.19457086756E+04  0.20922952034E+04  0.91875868818E+02 0.  0.
         13    1    3    3    0    0 -0.13553998491E+03 -0.27731982454E+03  0.70708830001E+03  0.77152526634E+03  0.00000000000E+00 0.  1.
        -13    1    3    3    0    0 -0.11965943789E+03 -0.44264479064E+03  0.12386203756E+04  0.13207699370E+04  0.00000000000E+00 0. -1.
         22    1    1    2    0    0  0.25519942279E+03  0.71996461518E+03 -0.35590574992E+04  0.36401052285E+04  0.00000000000E+00 0.  1.
<mgrwt>
<rscale>  0 0.55006836E+04</rscale>
<asrwt>0</asrwt>
<pdfrwt beam="1">  1        1 0.31685013E+00 0.55006836E+04</pdfrwt>
<pdfrwt beam="2">  1       -1 0.56505762E+00 0.55006836E+04</pdfrwt>
<totfact> 0.12029123E-03</totfact>
</mgrwt>
</event>
<event>
 6    1  0.1568961E-005  0.3129755E+04  0.7818608E-02  0.8207619E-01
          2   -1    0    0  501    0  0.00000000000E+00  0.00000000000E+00  0.16031541737E+04  0.16031541737E+04  0.00000000000E+00 0. -1.
         -2   -1    0    0    0  501 -0.00000000000E+00 -0.00000000000E+00 -0.15275143474E+04  0.15275143474E+04  0.00000000000E+00 0.  1.
         23    2    1    2    0    0  0.80707289407E+03 -0.75888987741E+02 -0.13004452727E+04  0.15335661465E+04  0.59509861445E+02 0.  0.
         11    1    3    3    0    0  0.38399231192E+03 -0.65129129527E+02 -0.61004052346E+03  0.72376884390E+03  0.00000000000E+00 0.  1.
        -11    1    3    3    0    0  0.42308058215E+03 -0.10759858214E+02 -0.69040474928E+03  0.80979730265E+03  0.00000000000E+00 0. -1.
         22    1    1    2    0    0 -0.80707289407E+03  0.75888987741E+02  0.13760850991E+04  0.15971023745E+04  0.00000000000E+00 0. -1.
<mgrwt>
<rscale>  0 0.31297546E+04</rscale>
<asrwt>0</asrwt>
<pdfrwt beam="1">  1        2 0.24663910E+00 0.31297546E+04</pdfrwt>
<pdfrwt beam="2">  1       -2 0.23500221E+00 0.31297546E+04</pdfrwt>
<totfact> 0.74848103E-01</totfact>
</mgrwt>
</event>
<event>
 6    1  0.1568961E-005  0.4809608E+04  0.7818608E-02  0.7858567E-01
         -2   -1    0    0    0  501 -0.00000000000E+00  0.00000000000E+00  0.17109129103E+04  0.17109129103E+04  0.00000000000E+00 0.  1.
          2   -1    0    0  501    0  0.00000000000E+00 -0.00000000000E+00 -0.33801142461E+04  0.33801142461E+04  0.00000000000E+00 0. -1.
         23    2    1    2    0    0  0.66508166566E+03  0.66550527949E+03  0.15071619162E+04  0.17782466915E+04  0.73439465569E+02 0.  0.
         11    1    3    3    0    0  0.29874338878E+03  0.34901213882E+03  0.75214991945E+03  0.88135497202E+03  0.00000000000E+00 0. -1.
        -11    1    3    3    0    0  0.36633827688E+03  0.31649314067E+03  0.75501199680E+03  0.89689171950E+03  0.00000000000E+00 0.  1.
         22    1    1    2    0    0 -0.66508166566E+03 -0.66550527949E+03 -0.31763632521E+04  0.33127804649E+04  0.00000000000E+00 0. -1.
<mgrwt>
<rscale>  0 0.48096075E+04</rscale>
<asrwt>0</asrwt>
<pdfrwt beam="1">  1        2 0.52001758E+00 0.48096075E+04</pdfrwt>
<pdfrwt beam="2">  1       -2 0.26321737E+00 0.48096075E+04</pdfrwt>
<totfact> 0.38706054E-02</totfact>
</mgrwt>
</event>
<event>
 6    1  0.1568961E-005  0.3590266E+04  0.7818608E-02  0.8092725E-01
         -2   -1    0    0    0  501 -0.00000000000E+00  0.00000000000E+00  0.15070794218E+04  0.15070794218E+04  0.00000000000E+00 0.  1.
          2   -1    0    0  501    0  0.00000000000E+00 -0.00000000000E+00 -0.21382434820E+04  0.21382434820E+04  0.00000000000E+00 0. -1.
         23    2    1    2    0    0  0.27871832182E+03  0.64711193406E+03 -0.19909136562E+04  0.21138671512E+04  0.90881176508E+02 0.  0.
         11    1    3    3    0    0  0.11216521598E+03  0.34246069327E+03 -0.11084197061E+04  0.11655276088E+04  0.00000000000E+00 0.  1.
        -11    1    3    3    0    0  0.16655310585E+03  0.30465124080E+03 -0.88249395019E+03  0.94833954241E+03  0.00000000000E+00 0. -1.
         22    1    1    2    0    0 -0.27871832182E+03 -0.64711193406E+03  0.13597495961E+04  0.15314557526E+04  0.00000000000E+00 0.  1.
<mgrwt>
<rscale>  0 0.35902661E+04</rscale>
<asrwt>0</asrwt>
<pdfrwt beam="1">  1        2 0.32896053E+00 0.35902661E+04</pdfrwt>
<pdfrwt beam="2">  1       -2 0.23185837E+00 0.35902661E+04</pdfrwt>
<totfact> 0.37978551E-01</totfact>
</mgrwt>
</event>
<event>
 6    1  0.1568961E-005  0.2249966E+04  0.7818608E-02  0.8497914E-01
          2   -1    0    0  501    0  0.00000000000E+00  0.00000000000E+00  0.52797138599E+03  0.52797138599E+03  0.00000000000E+00 0. -1.
         -2   -1    0    0    0  501 -0.00000000000E+00 -0.00000000000E+00 -0.23970740873E+04  0.23970740873E+04  0.00000000000E+00 0.  1.
         23    2    1    2    0    0  0.88405169174E+03  0.68344377306E+02 -0.39999417885E+02  0.89235337437E+03  0.92066517971E+02 0.  0.
         11    1    3    3    0    0  0.22029088145E+03  0.19446593977E+02  0.29789661746E+02  0.22314494486E+03  0.00000000000E+00 0.  1.
        -11    1    3    3    0    0  0.66376081029E+03  0.48897783329E+02 -0.69789079631E+02  0.66920842951E+03  0.00000000000E+00 0. -1.
         22    1    1    2    0    0 -0.88405169174E+03 -0.68344377306E+02 -0.18291032835E+04  0.20326920989E+04  0.00000000000E+00 0.  1.
<mgrwt>
<rscale>  0 0.22499658E+04</rscale>
<asrwt>0</asrwt>
<pdfrwt beam="1">  1        2 0.81226367E-01 0.22499658E+04</pdfrwt>
<pdfrwt beam="2">  1       -2 0.36878063E+00 0.22499658E+04</pdfrwt>
<totfact> 0.62256229E-01</totfact>
</mgrwt>
</event>
<event>
 6    1  0.1568961E-005  0.3530348E+04  0.7818608E-02  0.8106635E-01
         -1   -1    0    0    0  501 -0.00000000000E+00  0.00000000000E+00  0.20609031440E+04  0.20609031440E+04  0.00000000000E+00 0.  1.
          1   -1    0    0  501    0  0.00000000000E+00 -0.00000000000E+00 -0.15118801865E+04  0.15118801865E+04  0.00000000000E+00 0. -1.
         23    2    1    2    0    0 -0.97591745375E+03 -0.52407189510E+03 -0.11145905546E+04  0.15741147373E+04  0.91972136953E+02 0.  0.
         13    1    3    3    0    0 -0.75490011294E+03 -0.36039046485E+03 -0.83912106936E+03  0.11848542681E+04  0.00000000000E+00 0. -1.
        -13    1    3    3    0    0 -0.22101734081E+03 -0.16368143025E+03 -0.27546948528E+03  0.38926046919E+03  0.00000000000E+00 0.  1.
         22    1    1    2    0    0  0.97591745375E+03  0.52407189510E+03  0.16636135121E+04  0.19986685932E+04  0.00000000000E+00 0.  1.
<mgrwt>
<rscale>  0 0.35303476E+04</rscale>
<asrwt>0</asrwt>
<pdfrwt beam="1">  1        1 0.23259695E+00 0.35303476E+04</pdfrwt>
<pdfrwt beam="2">  1       -1 0.31706202E+00 0.35303476E+04</pdfrwt>
<totfact> 0.13358216E-01</totfact>
</mgrwt>
</event>
<event>
 6    1  0.1568961E-005  0.3719576E+04  0.7818608E-02  0.8063637E-01
          2   -1    0    0  501    0  0.00000000000E+00  0.00000000000E+00  0.21410445764E+04  0.21410445764E+04  0.00000000000E+00 0.  1.
         -2   -1    0    0    0  501 -0.00000000000E+00 -0.00000000000E+00 -0.16154786238E+04  0.16154786238E+04  0.00000000000E+00 0. -1.
         23    2    1    2    0    0  0.10674874300E+04 -0.99083530962E+03 -0.90323383507E+03  0.17162406567E+04  0.91469157305E+02 0.  0.
         11    1    3    3    0    0  0.97032605668E+03 -0.92290019203E+03 -0.80660653278E+03  0.15632950839E+04  0.00000000000E+00 0. -1.
        -11    1    3    3    0    0  0.97161373339E+02 -0.67935117587E+02 -0.96627302287E+02  0.15294557273E+03  0.00000000000E+00 0.  1.
         22    1    1    2    0    0 -0.10674874300E+04  0.99083530962E+03  0.14287997877E+04  0.20402825435E+04  0.00000000000E+00 0.  1.
<mgrwt>
<rscale>  0 0.37195762E+04</rscale>
<asrwt>0</asrwt>
<pdfrwt beam="1">  1        2 0.32939147E+00 0.37195762E+04</pdfrwt>
<pdfrwt beam="2">  1       -2 0.24853517E+00 0.37195762E+04</pdfrwt>
<totfact> 0.29513778E-01</totfact>
</mgrwt>
</event>
<event>
 6    1  0.1568961E-005  0.1177558E+04  0.7818608E-02  0.9132730E-01
         -1   -1    0    0    0  501 -0.00000000000E+00  0.00000000000E+00  0.41991846411E+03  0.41991846411E+03  0.00000000000E+00 0.  1.
          1   -1    0    0  501    0  0.00000000000E+00 -0.00000000000E+00 -0.82554306926E+03  0.82554306926E+03  0.00000000000E+00 0. -1.
         23    2    1    2    0    0  0.46805854181E+03 -0.32974782179E+03 -0.77862921100E+02  0.58573420632E+03  0.95966147318E+02 0.  0.
         13    1    3    3    0    0  0.45260915141E+03 -0.31439670928E+03 -0.54475206187E+02  0.55377602226E+03  0.00000000000E+00 0. -1.
        -13    1    3    3    0    0  0.15449390397E+02 -0.15351112517E+02 -0.23387714913E+02  0.31958184054E+02  0.00000000000E+00 0.  1.
         22    1    1    2    0    0 -0.46805854181E+03  0.32974782179E+03 -0.32776168405E+03  0.65972732706E+03  0.00000000000E+00 0.  1.
<mgrwt>
<rscale>  0 0.11775581E+04</rscale>
<asrwt>0</asrwt>
<pdfrwt beam="1">  1        1 0.12700662E+00 0.11775581E+04</pdfrwt>
<pdfrwt beam="2">  1       -1 0.64602842E-01 0.11775581E+04</pdfrwt>
<totfact> 0.50613890E+01</totfact>
</mgrwt>
</event>
<event>
 6    1  0.1568961E-005  0.4441798E+03  0.7818608E-02  0.1029472E+00
         -1   -1    0    0    0  501 -0.00000000000E+00  0.00000000000E+00  0.95183114595E+02  0.95183114595E+02  0.00000000000E+00 0.  1.
          1   -1    0    0  501    0  0.00000000000E+00 -0.00000000000E+00 -0.51820026324E+03  0.51820026324E+03  0.00000000000E+00 0. -1.
         23    2    1    2    0    0 -0.30820191530E+01  0.33259113070E+02 -0.51056288813E+03  0.51968212947E+03  0.90991128760E+02 0.  0.
         11    1    3    3    0    0 -0.10161424313E+02 -0.17956662781E+02 -0.35804596687E+03  0.35863994573E+03  0.00000000000E+00 0.  1.
        -11    1    3    3    0    0  0.70794051596E+01  0.51215775851E+02 -0.15251692126E+03  0.16104218374E+03  0.00000000000E+00 0. -1.
         22    1    1    2    0    0  0.30820191530E+01 -0.33259113070E+02  0.87545739481E+02  0.93701248367E+02  0.00000000000E+00 0.  1.
<mgrwt>
<rscale>  0 0.44417976E+03</rscale>
<asrwt>0</asrwt>
<pdfrwt beam="1">  1        1 0.79723116E-01 0.44417976E+03</pdfrwt>
<pdfrwt beam="2">  1       -1 0.14643556E-01 0.44417976E+03</pdfrwt>
<totfact> 0.14420825E+03</totfact>
</mgrwt>
</event>
<event>
 6    1  0.1568961E-005  0.1136401E+04  0.7818608E-02  0.9170421E-01
          2   -1    0    0  501    0  0.00000000000E+00  0.00000000000E+00  0.18211822394E+04  0.18211822394E+04  0.00000000000E+00 0. -1.
         -2   -1    0    0    0  501 -0.00000000000E+00 -0.00000000000E+00 -0.17727602404E+03  0.17727602404E+03  0.00000000000E+00 0.  1.
         23    2    1    2    0    0  0.28936852061E+03 -0.41183831069E+03  0.12776101092E+04  0.13759490087E+04  0.87196035107E+02 0.  0.
         11    1    3    3    0    0  0.13675002836E+03 -0.13971924436E+03  0.57044844255E+03  0.60302028416E+03  0.00000000000E+00 0. -1.
        -11    1    3    3    0    0  0.15261849225E+03 -0.27211906633E+03  0.70716166660E+03  0.77292872450E+03  0.00000000000E+00 0.  1.
         22    1    1    2    0    0 -0.28936852061E+03  0.41183831069E+03  0.36629610621E+03  0.62250925479E+03  0.00000000000E+00 0.  1.
<mgrwt>
<rscale>  0 0.11364012E+04</rscale>
<asrwt>0</asrwt>
<pdfrwt beam="1">  1        2 0.28018187E+00 0.11364012E+04</pdfrwt>
<pdfrwt beam="2">  1       -2 0.27273236E-01 0.11364012E+04</pdfrwt>
<totfact> 0.10186327E+02</totfact>
</mgrwt>
</event>
<event>
 6    1  0.1568961E-005  0.2462032E+04  0.7818608E-02  0.8416638E-01
         -1   -1    0    0    0  501 -0.00000000000E+00  0.00000000000E+00  0.12127186201E+04  0.12127186201E+04  0.00000000000E+00 0.  1.
          1   -1    0    0  501    0  0.00000000000E+00 -0.00000000000E+00 -0.12495893688E+04  0.12495893688E+04  0.00000000000E+00 0. -1.
         23    2    1    2    0    0 -0.11593422199E+04 -0.28277440436E+03  0.27688836180E+03  0.12284196123E+04  0.91169250614E+02 0.  0.
         13    1    3    3    0    0 -0.55358151746E+03 -0.88253367910E+02  0.12740432558E+03  0.57486782446E+03  0.00000000000E+00 0.  1.
        -13    1    3    3    0    0 -0.60576070246E+03 -0.19452103645E+03  0.14948403622E+03  0.65355178781E+03  0.00000000000E+00 0. -1.
         22    1    1    2    0    0  0.11593422199E+04  0.28277440436E+03 -0.31375911052E+03  0.12338883767E+04  0.00000000000E+00 0.  1.
<mgrwt>
<rscale>  0 0.24620319E+04</rscale>
<asrwt>0</asrwt>
<pdfrwt beam="1">  1        1 0.19224452E+00 0.24620319E+04</pdfrwt>
<pdfrwt beam="2">  1       -1 0.18657210E+00 0.24620319E+04</pdfrwt>
<totfact> 0.16374858E+00</totfact>
</mgrwt>
</event>
<event>
 6    1  0.1568961E-005  0.8197533E+03  0.7818608E-02  0.9531857E-01
         -1   -1    0    0    0  501 -0.00000000000E+00  0.00000000000E+00  0.22329509715E+03  0.22329509715E+03  0.00000000000E+00 0.  1.
          1   -1    0    0  501    0  0.00000000000E+00 -0.00000000000E+00 -0.75236262054E+03  0.75236262054E+03  0.00000000000E+00 0. -1.
         23    2    1    2    0    0 -0.23920193958E+03  0.10787948365E+03 -0.63419514815E+03  0.69297880377E+03  0.95710948423E+02 0.  0.
         11    1    3    3    0    0 -0.65920770888E+02  0.13524480766E+02 -0.79051349866E+02  0.10381510261E+03  0.00000000000E+00 0.  1.
        -11    1    3    3    0    0 -0.17328116870E+03  0.94355002888E+02 -0.55514379828E+03  0.58916370116E+03  0.00000000000E+00 0. -1.
         22    1    1    2    0    0  0.23920193958E+03 -0.10787948365E+03  0.10512762475E+03  0.28267891393E+03  0.00000000000E+00 0.  1.
<mgrwt>
<rscale>  0 0.81975334E+03</rscale>
<asrwt>0</asrwt>
<pdfrwt beam="1">  1        1 0.11574810E+00 0.81975334E+03</pdfrwt>
<pdfrwt beam="2">  1       -1 0.34353091E-01 0.81975334E+03</pdfrwt>
<totfact> 0.19739876E+02</totfact>
</mgrwt>
</event>
<event>
 6    1  0.1568961E-005  0.5073289E+04  0.7818608E-02  0.7817300E-01
         -2   -1    0    0    0  501 -0.00000000000E+00  0.00000000000E+00  0.21453264818E+04  0.21453264818E+04  0.00000000000E+00 0.  1.
          2   -1    0    0  501    0  0.00000000000E+00 -0.00000000000E+00 -0.29993409242E+04  0.29993409242E+04  0.00000000000E+00 0. -1.
         23    2    1    2    0    0 -0.12020301567E+03  0.99442019073E+03 -0.27895276736E+04  0.29653253610E+04  0.91485378331E+02 0.  0.
         13    1    3    3    0    0 -0.68855718282E+02  0.63997123367E+03 -0.16622136593E+04  0.17824866168E+04  0.00000000000E+00 0. -1.
        -13    1    3    3    0    0 -0.51347297390E+02  0.35444895706E+03 -0.11273140143E+04  0.11828387443E+04  0.00000000000E+00 0.  1.
         22    1    1    2    0    0  0.12020301567E+03 -0.99442019073E+03  0.19355132312E+04  0.21793420450E+04  0.00000000000E+00 0.  1.
<mgrwt>
<rscale>  0 0.50732891E+04</rscale>
<asrwt>0</asrwt>
<pdfrwt beam="1">  1        2 0.46143707E+00 0.50732891E+04</pdfrwt>
<pdfrwt beam="2">  1       -2 0.33005023E+00 0.50732891E+04</pdfrwt>
<totfact> 0.26155297E-02</totfact>
</mgrwt>
</event>
<event>
 6    1  0.1568961E-005  0.3151048E+04  0.7818608E-02  0.8201866E-01
         -2   -1    0    0    0  501 -0.00000000000E+00  0.00000000000E+00  0.16007249407E+04  0.16007249407E+04  0.00000000000E+00 0.  1.
          2   -1    0    0  501    0  0.00000000000E+00 -0.00000000000E+00 -0.15507193328E+04  0.15507193328E+04  0.00000000000E+00 0. -1.
         23    2    1    2    0    0 -0.50465064269E+03 -0.72645130754E+03  0.13274196639E+04  0.15976777389E+04  0.90152204314E+02 0.  0.
         13    1    3    3    0    0 -0.45025157727E+03 -0.58999459773E+03  0.11020519952E+04  0.13286604940E+04  0.00000000000E+00 0.  1.
        -13    1    3    3    0    0 -0.54399065413E+02 -0.13645670981E+03  0.22536766871E+03  0.26901724493E+03  0.00000000000E+00 0. -1.
         22    1    1    2    0    0  0.50465064269E+03  0.72645130754E+03 -0.12774140560E+04  0.15537665345E+04  0.00000000000E+00 0. -1.
<mgrwt>
<rscale>  0 0.31510475E+04</rscale>
<asrwt>0</asrwt>
<pdfrwt beam="1">  1        2 0.23857221E+00 0.31510475E+04</pdfrwt>
<pdfrwt beam="2">  1       -2 0.24626537E+00 0.31510475E+04</pdfrwt>
<totfact> 0.68088535E-01</totfact>
</mgrwt>
</event>
<event>
 6    1  0.1568961E-005  0.2054368E+04  0.7818608E-02  0.8581615E-01
         -2   -1    0    0    0  501 -0.00000000000E+00  0.00000000000E+00  0.13478228491E+04  0.13478228491E+04  0.00000000000E+00 0. -1.
          2   -1    0    0  501    0  0.00000000000E+00 -0.00000000000E+00 -0.78282340122E+03  0.78282340122E+03  0.00000000000E+00 0.  1.
         23    2    1    2    0    0 -0.45646306480E+03 -0.54494748515E+03 -0.48314736095E+03  0.86417950226E+03  0.89713703781E+02 0.  0.
         11    1    3    3    0    0 -0.11585327324E+03 -0.88804893964E+02 -0.78541901509E+02  0.16576224059E+03  0.00000000000E+00 0. -1.
        -11    1    3    3    0    0 -0.34060979156E+03 -0.45614259119E+03 -0.40460545944E+03  0.69841726168E+03  0.00000000000E+00 0.  1.
         22    1    1    2    0    0  0.45646306480E+03  0.54494748515E+03  0.10481468089E+04  0.12664667481E+04  0.00000000000E+00 0. -1.
<mgrwt>
<rscale>  0 0.20543683E+04</rscale>
<asrwt>0</asrwt>
<pdfrwt beam="1">  1        2 0.12043437E+00 0.20543683E+04</pdfrwt>
<pdfrwt beam="2">  1       -2 0.20735736E+00 0.20543683E+04</pdfrwt>
<totfact> 0.39034967E+00</totfact>
</mgrwt>
</event>
<event>
 6    1  0.1568961E-005  0.1865787E+04  0.7818608E-02  0.8672076E-01
         -2   -1    0    0    0  501 -0.00000000000E+00  0.00000000000E+00  0.64396968295E+03  0.64396968295E+03  0.00000000000E+00 0.  1.
          2   -1    0    0  501    0  0.00000000000E+00 -0.00000000000E+00 -0.13514461096E+04  0.13514461096E+04  0.00000000000E+00 0. -1.
         23    2    1    2    0    0 -0.53138035608E+01  0.80043695208E+03 -0.86224677887E+03  0.11801358329E+04  0.92322941845E+02 0.  0.
         13    1    3    3    0    0  0.75935819294E+01  0.64385875157E+03 -0.74102070242E+03  0.98169416616E+03  0.00000000000E+00 0. -1.
        -13    1    3    3    0    0 -0.12907385490E+02  0.15657820051E+03 -0.12122607645E+03  0.19844166671E+03  0.00000000000E+00 0.  1.
         22    1    1    2    0    0  0.53138035608E+01 -0.80043695208E+03  0.15477035221E+03  0.81527995970E+03  0.00000000000E+00 0.  1.
<mgrwt>
<rscale>  0 0.18657870E+04</rscale>
<asrwt>0</asrwt>
<pdfrwt beam="1">  1        2 0.20791478E+00 0.18657870E+04</pdfrwt>
<pdfrwt beam="2">  1       -2 0.99072260E-01 0.18657870E+04</pdfrwt>
<totfact> 0.12239919E+01</totfact>
</mgrwt>
</event>
<event>
 6    1  0.1568961E-005  0.3741676E+04  0.7818608E-02  0.8058788E-01
          2   -1    0    0  501    0  0.00000000000E+00  0.00000000000E+00  0.25273552959E+04  0.25273552959E+04  0.00000000000E+00 0. -1.
         -2   -1    0    0    0  501 -0.00000000000E+00 -0.00000000000E+00 -0.13848607422E+04  0.13848607422E+04  0.00000000000E+00 0.  1.
         23    2    1    2    0    0 -0.37998465391E+03  0.26589280023E+03  0.24654789217E+04  0.25102977251E+04  0.89000208457E+02 0.  0.
         11    1    3    3    0    0 -0.13451494732E+03  0.12224827832E+03  0.11638971963E+04  0.11780049220E+04  0.00000000000E+00 0. -1.
        -11    1    3    3    0    0 -0.24546970659E+03  0.14364452191E+03  0.13015817254E+04  0.13322928032E+04  0.00000000000E+00 0.  1.
         22    1    1    2    0    0  0.37998465391E+03 -0.26589280023E+03 -0.13229843680E+04  0.14019183130E+04  0.00000000000E+00 0.  1.
<mgrwt>
<rscale>  0 0.37416762E+04</rscale>
<asrwt>0</asrwt>
<pdfrwt beam="1">  1        2 0.38882389E+00 0.37416762E+04</pdfrwt>
<pdfrwt beam="2">  1       -2 0.21305550E+00 0.37416762E+04</pdfrwt>
<totfact> 0.29588997E-01</totfact>
</mgrwt>
</event>
<event>
 6    1  0.1568961E-005  0.2943382E+04  0.7818608E-02  0.8260086E-01
         -1   -1    0    0    0  501 -0.00000000000E+00  0.00000000000E+00  0.22314000964E+04  0.22314000964E+04  0.00000000000E+00 0.  1.
          1   -1    0    0  501    0  0.00000000000E+00 -0.00000000000E+00 -0.97063467594E+03  0.97063467594E+03  0.00000000000E+00 0. -1.
         23    2    1    2    0    0  0.14934472260E+03 -0.12840365812E+04  0.13930453795E+04  0.19025919011E+04  0.90701294035E+02 0.  0.
         13    1    3    3    0    0  0.63249303995E+02 -0.90337900937E+03  0.97051066101E+03  0.13273978500E+04  0.00000000000E+00 0. -1.
        -13    1    3    3    0    0  0.86095418605E+02 -0.38065757180E+03  0.42253471854E+03  0.57519405112E+03  0.00000000000E+00 0.  1.
         22    1    1    2    0    0 -0.14934472260E+03  0.12840365812E+04 -0.13227995911E+03  0.12994428712E+04  0.00000000000E+00 0. -1.
<mgrwt>
<rscale>  0 0.29433819E+04</rscale>
<asrwt>0</asrwt>
<pdfrwt beam="1">  1        1 0.14932841E+00 0.29433819E+04</pdfrwt>
<pdfrwt beam="2">  1       -1 0.34329232E+00 0.29433819E+04</pdfrwt>
<totfact> 0.23483534E-01</totfact>
</mgrwt>
</event>
<event>
 6    1  0.1577116E-005  0.5566218E+04  0.7818608E-02  0.7746643E-01
         -2   -1    0    0    0  501 -0.00000000000E+00  0.00000000000E+00  0.23250974879E+04  0.23250974879E+04  0.00000000000E+00 0.  1.
          2   -1    0    0  501    0  0.00000000000E+00 -0.00000000000E+00 -0.33313419064E+04  0.33313419064E+04  0.00000000000E+00 0. -1.
         23    2    1    2    0    0  0.16593556052E+04 -0.22029171203E+04 -0.87641623110E+03  0.28954322915E+04  0.95487597244E+02 0.  0.
         11    1    3    3    0    0  0.86678079642E+03 -0.11062993204E+04 -0.40502015969E+03  0.14626169919E+04  0.00000000000E+00 0.  1.
        -11    1    3    3    0    0  0.79257480879E+03 -0.10966177999E+04 -0.47139607141E+03  0.14328152996E+04  0.00000000000E+00 0. -1.
         22    1    1    2    0    0 -0.16593556052E+04  0.22029171203E+04 -0.12982818739E+03  0.27610071028E+04  0.00000000000E+00 0.  1.
<mgrwt>
<rscale>  0 0.55662176E+04</rscale>
<asrwt>0</asrwt>
<pdfrwt beam="1">  1        2 0.51251414E+00 0.55662176E+04</pdfrwt>
<pdfrwt beam="2">  1       -2 0.35770730E+00 0.55662176E+04</pdfrwt>
<totfact> 0.10261895E-02</totfact>
</mgrwt>
</event>
<event>
 6    1  0.1568961E-005  0.2927356E+04  0.7818608E-02  0.8264784E-01
          1   -1    0    0  501    0  0.00000000000E+00  0.00000000000E+00  0.15068909254E+04  0.15068909254E+04  0.00000000000E+00 0. -1.
         -1   -1    0    0    0  501 -0.00000000000E+00 -0.00000000000E+00 -0.14217047358E+04  0.14217047358E+04  0.00000000000E+00 0.  1.
         23    2    1    2    0    0  0.34222976164E+02 -0.36040333792E+03 -0.13746506784E+04  0.14245393262E+04  0.92660812300E+02 0.  0.
         11    1    3    3    0    0  0.64660984760E+02 -0.28148310379E+03 -0.10863110299E+04  0.11240486797E+04  0.00000000000E+00 0.  1.
        -11    1    3    3    0    0 -0.30438008596E+02 -0.78920234123E+02 -0.28833964847E+03  0.30049064644E+03  0.00000000000E+00 0. -1.
         22    1    1    2    0    0 -0.34222976164E+02  0.36040333792E+03  0.14598368679E+04  0.15040563351E+04  0.00000000000E+00 0. -1.
<mgrwt>
<rscale>  0 0.29273565E+04</rscale>
<asrwt>0</asrwt>
<pdfrwt beam="1">  1        1 0.23182937E+00 0.29273565E+04</pdfrwt>
<pdfrwt beam="2">  1       -1 0.21872381E+00 0.29273565E+04</pdfrwt>
<totfact> 0.62192136E-01</totfact>
</mgrwt>
</event>
<event>
 6    1  0.1568961E-005  0.3638736E+04  0.7818608E-02  0.8081676E-01
          2   -1    0    0  501    0  0.00000000000E+00  0.00000000000E+00  0.17559834143E+04  0.17559834143E+04  0.00000000000E+00 0. -1.
         -2   -1    0    0    0  501 -0.00000000000E+00 -0.00000000000E+00 -0.18850410215E+04  0.18850410215E+04  0.00000000000E+00 0.  1.
         23    2    1    2    0    0 -0.99224372968E+03 -0.14850089538E+04 -0.40575532559E+03  0.18337168141E+04  0.89893037099E+02 0.  0.
         11    1    3    3    0    0 -0.44597114435E+03 -0.62356210962E+03 -0.21231571020E+03  0.79548596904E+03  0.00000000000E+00 0.  1.
        -11    1    3    3    0    0 -0.54627258533E+03 -0.86144684416E+03 -0.19343961540E+03  0.10382308451E+04  0.00000000000E+00 0. -1.
         22    1    1    2    0    0  0.99224372968E+03  0.14850089538E+04  0.27669771842E+03  0.18073076217E+04  0.00000000000E+00 0. -1.
<mgrwt>
<rscale>  0 0.36387365E+04</rscale>
<asrwt>0</asrwt>
<pdfrwt beam="1">  1        2 0.27015129E+00 0.36387365E+04</pdfrwt>
<pdfrwt beam="2">  1       -2 0.29000631E+00 0.36387365E+04</pdfrwt>
<totfact> 0.27133786E-01</totfact>
</mgrwt>
</event>
<event>
 6    1  0.1568961E-005  0.2678320E+04  0.7818608E-02  0.8342074E-01
         -2   -1    0    0    0  501 -0.00000000000E+00  0.00000000000E+00  0.57698518455E+03  0.57698518455E+03  0.00000000000E+00 0.  1.
          2   -1    0    0  501    0  0.00000000000E+00 -0.00000000000E+00 -0.31081372259E+04  0.31081372259E+04  0.00000000000E+00 0. -1.
         23    2    1    2    0    0 -0.39778635686E+03 -0.12571617679E+03 -0.30156811832E+04  0.30457422168E+04  0.90410784088E+02 0.  0.
         13    1    3    3    0    0 -0.23781592889E+03 -0.28308844365E+02 -0.17206646022E+04  0.17372519910E+04  0.00000000000E+00 0. -1.
        -13    1    3    3    0    0 -0.15997042796E+03 -0.97407332423E+02 -0.12950165810E+04  0.13084902259E+04  0.00000000000E+00 0.  1.
         22    1    1    2    0    0  0.39778635686E+03  0.12571617679E+03  0.48452914179E+03  0.63938019367E+03  0.00000000000E+00 0.  1.
<mgrwt>
<rscale>  0 0.26783197E+04</rscale>
<asrwt>0</asrwt>
<pdfrwt beam="1">  1        2 0.47817496E+00 0.26783197E+04</pdfrwt>
<pdfrwt beam="2">  1       -2 0.88766951E-01 0.26783197E+04</pdfrwt>
<totfact> 0.14253832E+00</totfact>
</mgrwt>
</event>
<event>
 6    1  0.1568961E-005  0.2764995E+04  0.7818608E-02  0.8314219E-01
          2   -1    0    0  501    0  0.00000000000E+00  0.00000000000E+00  0.16491073776E+04  0.16491073776E+04  0.00000000000E+00 0. -1.
         -2   -1    0    0    0  501 -0.00000000000E+00 -0.00000000000E+00 -0.11589903307E+04  0.11589903307E+04  0.00000000000E+00 0.  1.
         23    2    1    2    0    0 -0.52408346041E+03 -0.59930573374E+03  0.13913586973E+04  0.16055723039E+04  0.90291540328E+02 0.  0.
         13    1    3    3    0    0 -0.32227450737E+03 -0.37863259784E+03  0.95331328799E+03  0.10751882288E+04  0.00000000000E+00 0. -1.
        -13    1    3    3    0    0 -0.20180895304E+03 -0.22067313590E+03  0.43804540936E+03  0.53038407508E+03  0.00000000000E+00 0.  1.
         22    1    1    2    0    0  0.52408346041E+03  0.59930573374E+03 -0.90124165041E+03  0.12025254045E+04  0.00000000000E+00 0.  1.
<mgrwt>
<rscale>  0 0.27649951E+04</rscale>
<asrwt>0</asrwt>
<pdfrwt beam="1">  1        2 0.25370883E+00 0.27649951E+04</pdfrwt>
<pdfrwt beam="2">  1       -2 0.17830620E+00 0.27649951E+04</pdfrwt>
<totfact> 0.17022146E+00</totfact>
</mgrwt>
</event>
<event>
 6    1  0.1568961E-005  0.2550638E+04  0.7818608E-02  0.8385164E-01
         -1   -1    0    0    0  501 -0.00000000000E+00  0.00000000000E+00  0.13362882032E+04  0.13362882032E+04  0.00000000000E+00 0.  1.
          1   -1    0    0  501    0  0.00000000000E+00 -0.00000000000E+00 -0.12171317348E+04  0.12171317348E+04  0.00000000000E+00 0. -1.
         23    2    1    2    0    0  0.64462542765E+03 -0.49153864525E+03 -0.92409596097E+03  0.12322356915E+04  0.85435780276E+02 0.  0.
         13    1    3    3    0    0  0.33499926433E+03 -0.22556820800E+03 -0.40594382328E+03  0.57262196188E+03  0.00000000000E+00 0. -1.
        -13    1    3    3    0    0  0.30962616332E+03 -0.26597043725E+03 -0.51815213769E+03  0.65961372961E+03  0.00000000000E+00 0.  1.
         22    1    1    2    0    0 -0.64462542765E+03  0.49153864525E+03  0.10432524294E+04  0.13211842465E+04  0.00000000000E+00 0.  1.
<mgrwt>
<rscale>  0 0.25506382E+04</rscale>
<asrwt>0</asrwt>
<pdfrwt beam="1">  1        1 0.18725104E+00 0.25506382E+04</pdfrwt>
<pdfrwt beam="2">  1       -1 0.20558280E+00 0.25506382E+04</pdfrwt>
<totfact> 0.12652958E+00</totfact>
</mgrwt>
</event>
<event>
 6    1  0.1568961E-005  0.3541941E+04  0.7818608E-02  0.8103922E-01
          1   -1    0    0  501    0  0.00000000000E+00  0.00000000000E+00  0.23465196996E+04  0.23465196996E+04  0.00000000000E+00 0. -1.
         -1   -1    0    0    0  501 -0.00000000000E+00 -0.00000000000E+00 -0.13365909714E+04  0.13365909714E+04  0.00000000000E+00 0.  1.
         23    2    1    2    0    0 -0.16018317274E+04  0.32103100241E+03 -0.20244934623E+03  0.16487099281E+04  0.91284730435E+02 0.  0.
         11    1    3    3    0    0 -0.10180658557E+04  0.23087066033E+03 -0.93883800390E+02  0.10481285781E+04  0.00000000000E+00 0. -1.
        -11    1    3    3    0    0 -0.58376587170E+03  0.90160342082E+02 -0.10856554584E+03  0.60058135002E+03  0.00000000000E+00 0.  1.
         22    1    1    2    0    0  0.16018317274E+04 -0.32103100241E+03  0.12123780743E+04  0.20344007428E+04  0.00000000000E+00 0. -1.
<mgrwt>
<rscale>  0 0.35419413E+04</rscale>
<asrwt>0</asrwt>
<pdfrwt beam="1">  1        1 0.36100303E+00 0.35419413E+04</pdfrwt>
<pdfrwt beam="2">  1       -1 0.20562938E+00 0.35419413E+04</pdfrwt>
<totfact> 0.19355401E-01</totfact>
</mgrwt>
</event>
<event>
 6    1  0.1568961E-005  0.1318066E+04  0.7818608E-02  0.9015360E-01
         -1   -1    0    0    0  501 -0.00000000000E+00  0.00000000000E+00  0.40215836008E+03  0.40215836008E+03  0.00000000000E+00 0.  1.
          1   -1    0    0  501    0  0.00000000000E+00 -0.00000000000E+00 -0.10799844110E+04  0.10799844110E+04  0.00000000000E+00 0. -1.
         23    2    1    2    0    0  0.15615345476E+03 -0.55723164049E+03  0.79453006491E+01  0.58482825029E+03  0.84083006207E+02 0.  0.
         13    1    3    3    0    0  0.65889389895E+02 -0.20941909018E+03  0.43264383358E+02  0.22376231564E+03  0.00000000000E+00 0. -1.
        -13    1    3    3    0    0  0.90264064866E+02 -0.34781255031E+03 -0.35319082709E+02  0.36106593465E+03  0.00000000000E+00 0.  1.
         22    1    1    2    0    0 -0.15615345476E+03  0.55723164049E+03 -0.68577135157E+03  0.89731452079E+03  0.00000000000E+00 0. -1.
<mgrwt>
<rscale>  0 0.13180664E+04</rscale>
<asrwt>0</asrwt>
<pdfrwt beam="1">  1        1 0.16615145E+00 0.13180664E+04</pdfrwt>
<pdfrwt beam="2">  1       -1 0.61870517E-01 0.13180664E+04</pdfrwt>
<totfact> 0.34132990E+01</totfact>
</mgrwt>
</event>
<event>
 6    1  0.1568961E-005  0.1448608E+04  0.7818608E-02  0.8919366E-01
          2   -1    0    0  501    0  0.00000000000E+00  0.00000000000E+00  0.76741735530E+03  0.76741735530E+03  0.00000000000E+00 0. -1.
         -2   -1    0    0    0  501 -0.00000000000E+00 -0.00000000000E+00 -0.68361254704E+03  0.68361254704E+03  0.00000000000E+00 0.  1.
         23    2    1    2    0    0  0.68594403416E+03  0.11399865673E+03 -0.15039983921E+03  0.71729512150E+03  0.91527416436E+02 0.  0.
         13    1    3    3    0    0  0.48213527775E+03  0.48641225806E+02 -0.74898215565E+02  0.49033675938E+03  0.00000000000E+00 0. -1.
        -13    1    3    3    0    0  0.20380875641E+03  0.65357430921E+02 -0.75501623646E+02  0.22695836212E+03  0.00000000000E+00 0.  1.
         22    1    1    2    0    0 -0.68594403416E+03 -0.11399865673E+03  0.23420464747E+03  0.73373478085E+03  0.00000000000E+00 0. -1.
<mgrwt>
<rscale>  0 0.14486078E+04</rscale>
<asrwt>0</asrwt>
<pdfrwt beam="1">  1        2 0.11806421E+00 0.14486078E+04</pdfrwt>
<pdfrwt beam="2">  1       -2 0.10517116E+00 0.14486078E+04</pdfrwt>
<totfact> 0.25848630E+01</totfact>
</mgrwt>
</event>
<event>
 6    1  0.1568961E-005  0.2016561E+04  0.7818608E-02  0.8598917E-01
          1   -1    0    0  501    0  0.00000000000E+00  0.00000000000E+00  0.76805739183E+03  0.76805739183E+03  0.00000000000E+00 0. -1.
         -1   -1    0    0    0  501 -0.00000000000E+00 -0.00000000000E+00 -0.13236381147E+04  0.13236381147E+04  0.00000000000E+00 0.  1.
         23    2    1    2    0    0 -0.88302597737E+03  0.90549647394E+02 -0.76962295780E+03  0.11785973772E+04  0.94011515807E+02 0.  0.
         13    1    3    3    0    0 -0.37217109231E+03  0.67170743288E+02 -0.27947450103E+03  0.47024379574E+03  0.00000000000E+00 0. -1.
        -13    1    3    3    0    0 -0.51085488506E+03  0.23378904107E+02 -0.49014845677E+03  0.70835358149E+03  0.00000000000E+00 0.  1.
         22    1    1    2    0    0  0.88302597737E+03 -0.90549647394E+02  0.21404223495E+03  0.91309812928E+03  0.00000000000E+00 0.  1.
<mgrwt>
<rscale>  0 0.20165615E+04</rscale>
<asrwt>0</asrwt>
<pdfrwt beam="1">  1        1 0.11816268E+00 0.20165615E+04</pdfrwt>
<pdfrwt beam="2">  1       -1 0.20363663E+00 0.20165615E+04</pdfrwt>
<totfact> 0.31047873E+00</totfact>
</mgrwt>
</event>
<event>
 6    1  0.1568961E-005  0.1566079E+04  0.7818608E-02  0.8841662E-01
         -1   -1    0    0    0  501 -0.00000000000E+00  0.00000000000E+00  0.43889660244E+03  0.43889660244E+03  0.00000000000E+00 0.  1.
          1   -1    0    0  501    0  0.00000000000E+00 -0.00000000000E+00 -0.13970286839E+04  0.13970286839E+04  0.00000000000E+00 0. -1.
         23    2    1    2    0    0 -0.52045737971E+02  0.10463459188E+03 -0.13852129572E+04  0.13931440413E+04  0.91532651289E+02 0.  0.
         11    1    3    3    0    0  0.21307222615E+02  0.54160877316E+02 -0.46337761294E+03  0.46701842634E+03  0.00000000000E+00 0. -1.
        -11    1    3    3    0    0 -0.73352960586E+02  0.50473714560E+02 -0.92183534425E+03  0.92612561491E+03  0.00000000000E+00 0.  1.
         22    1    1    2    0    0  0.52045737971E+02 -0.10463459188E+03  0.42708087569E+03  0.44278124513E+03  0.00000000000E+00 0.  1.
<mgrwt>
<rscale>  0 0.15660794E+04</rscale>
<asrwt>0</asrwt>
<pdfrwt beam="1">  1        1 0.21492749E+00 0.15660794E+04</pdfrwt>
<pdfrwt beam="2">  1       -1 0.67522554E-01 0.15660794E+04</pdfrwt>
<totfact> 0.16499034E+01</totfact>
</mgrwt>
</event>
<event>
 6    1  0.1568961E-005  0.1935165E+04  0.7818608E-02  0.8637548E-01
         -2   -1    0    0    0  501 -0.00000000000E+00  0.00000000000E+00  0.29462023785E+04  0.29462023785E+04  0.00000000000E+00 0.  1.
          2   -1    0    0  501    0  0.00000000000E+00 -0.00000000000E+00 -0.31777028057E+03  0.31777028057E+03  0.00000000000E+00 0. -1.
         23    2    1    2    0    0 -0.28685184202E+03  0.48266439388E+02  0.28697121116E+04  0.28860445265E+04  0.96911180391E+02 0.  0.
         13    1    3    3    0    0 -0.21976388796E+03  0.59224812781E+02  0.18276705029E+04  0.18417880475E+04  0.00000000000E+00 0. -1.
        -13    1    3    3    0    0 -0.67087954058E+02 -0.10958373392E+02  0.10420416087E+04  0.10442564789E+04  0.00000000000E+00 0.  1.
         22    1    1    2    0    0  0.28685184202E+03 -0.48266439388E+02 -0.24128001365E+03  0.37792813262E+03  0.00000000000E+00 0. -1.
<mgrwt>
<rscale>  0 0.19351647E+04</rscale>
<asrwt>0</asrwt>
<pdfrwt beam="1">  1        2 0.48887738E-01 0.19351647E+04</pdfrwt>
<pdfrwt beam="2">  1       -2 0.45326189E+00 0.19351647E+04</pdfrwt>
<totfact> 0.31819596E-01</totfact>
</mgrwt>
</event>
<event>
 6    1  0.1568961E-005  0.2361632E+04  0.7818608E-02  0.8454009E-01
         -1   -1    0    0    0  501 -0.00000000000E+00  0.00000000000E+00  0.86111379824E+03  0.86111379824E+03  0.00000000000E+00 0.  1.
          1   -1    0    0  501    0  0.00000000000E+00 -0.00000000000E+00 -0.16192131874E+04  0.16192131874E+04  0.00000000000E+00 0. -1.
         23    2    1    2    0    0  0.21752659749E+03  0.18470827721E+03 -0.15810199877E+04  0.16093314176E+04  0.94278533343E+02 0.  0.
         11    1    3    3    0    0  0.31347774083E+02  0.14627083819E+02 -0.78313879185E+02  0.85613656586E+02  0.00000000000E+00 0. -1.
        -11    1    3    3    0    0  0.18617882340E+03  0.17008119339E+03 -0.15027061085E+04  0.15237177610E+04  0.00000000000E+00 0.  1.
         22    1    1    2    0    0 -0.21752659749E+03 -0.18470827721E+03  0.82292059847E+03  0.87099556811E+03  0.00000000000E+00 0.  1.
<mgrwt>
<rscale>  0 0.23616323E+04</rscale>
<asrwt>0</asrwt>
<pdfrwt beam="1">  1        1 0.24910972E+00 0.23616323E+04</pdfrwt>
<pdfrwt beam="2">  1       -1 0.13247905E+00 0.23616323E+04</pdfrwt>
<totfact> 0.23525982E+00</totfact>
</mgrwt>
</event>
<event>
 6    1  0.1568961E-005  0.4337754E+04  0.7818608E-02  0.7939674E-01
          1   -1    0    0  501    0  0.00000000000E+00  0.00000000000E+00  0.20552704191E+04  0.20552704191E+04  0.00000000000E+00 0. -1.
         -1   -1    0    0    0  501 -0.00000000000E+00 -0.00000000000E+00 -0.22887631772E+04  0.22887631772E+04  0.00000000000E+00 0.  1.
         23    2    1    2    0    0  0.34722214437E+03 -0.83121806428E+02 -0.22581082029E+04  0.22881785062E+04  0.96102903034E+02 0.  0.
         13    1    3    3    0    0  0.17398118455E+03 -0.44055673763E+02 -0.14316167387E+04  0.14428225260E+04  0.00000000000E+00 0.  1.
        -13    1    3    3    0    0  0.17324095982E+03 -0.39066132665E+02 -0.82649146419E+03  0.84535598020E+03  0.00000000000E+00 0. -1.
         22    1    1    2    0    0 -0.34722214437E+03  0.83121806428E+02  0.20246154448E+04  0.20558550902E+04  0.00000000000E+00 0. -1.
<mgrwt>
<rscale>  0 0.43377539E+04</rscale>
<asrwt>0</asrwt>
<pdfrwt beam="1">  1        1 0.31619545E+00 0.43377539E+04</pdfrwt>
<pdfrwt beam="2">  1       -1 0.35211741E+00 0.43377539E+04</pdfrwt>
<totfact> 0.31300465E-02</totfact>
</mgrwt>
</event>
<event>
 6    1  0.1568961E-005  0.4663204E+04  0.7818608E-02  0.7882671E-01
         -2   -1    0    0    0  501 -0.00000000000E+00  0.00000000000E+00  0.15988427109E+04  0.15988427109E+04  0.00000000000E+00 0. -1.
          2   -1    0    0  501    0  0.00000000000E+00 -0.00000000000E+00 -0.34001893620E+04  0.34001893620E+04  0.00000000000E+00 0.  1.
         23    2    1    2    0    0 -0.14392211290E+04  0.17583057158E+04 -0.34528714079E+03  0.23003090885E+04  0.95928331928E+02 0.  0.
         13    1    3    3    0    0 -0.23583914866E+03  0.34614849536E+03 -0.69181483349E+02  0.42452910680E+03  0.00000000000E+00 0.  1.
        -13    1    3    3    0    0 -0.12033819803E+04  0.14121572205E+04 -0.27610565744E+03  0.18757799817E+04  0.00000000000E+00 0. -1.
         22    1    1    2    0    0  0.14392211290E+04 -0.17583057158E+04 -0.14560595103E+04  0.26987229843E+04  0.00000000000E+00 0. -1.
<mgrwt>
<rscale>  0 0.46632040E+04</rscale>
<asrwt>0</asrwt>
<pdfrwt beam="1">  1        2 0.52310605E+00 0.46632040E+04</pdfrwt>
<pdfrwt beam="2">  1       -2 0.24597580E+00 0.46632040E+04</pdfrwt>
<totfact> 0.48416232E-02</totfact>
</mgrwt>
</event>
<event>
 6    1  0.1568961E-005  0.2442288E+04  0.7818608E-02  0.8423839E-01
          1   -1    0    0  501    0  0.00000000000E+00  0.00000000000E+00  0.10095523376E+04  0.10095523376E+04  0.00000000000E+00 0. -1.
         -1   -1    0    0    0  501 -0.00000000000E+00 -0.00000000000E+00 -0.14770825581E+04  0.14770825581E+04  0.00000000000E+00 0.  1.
         23    2    1    2    0    0 -0.22222871982E+03  0.58686200293E+03 -0.12986187832E+04  0.14452412077E+04  0.92297291116E+02 0.  0.
         13    1    3    3    0    0 -0.13916183397E+03  0.24972526010E+03 -0.54281214116E+03  0.61349306610E+03  0.00000000000E+00 0.  1.
        -13    1    3    3    0    0 -0.83066885853E+02  0.33713674283E+03 -0.75580664209E+03  0.83174814163E+03  0.00000000000E+00 0. -1.
         22    1    1    2    0    0  0.22222871982E+03 -0.58686200293E+03  0.83108856274E+03  0.10413936880E+04  0.00000000000E+00 0. -1.
<mgrwt>
<rscale>  0 0.24422876E+04</rscale>
<asrwt>0</asrwt>
<pdfrwt beam="1">  1        1 0.15531575E+00 0.24422876E+04</pdfrwt>
<pdfrwt beam="2">  1       -1 0.22724347E+00 0.24422876E+04</pdfrwt>
<totfact> 0.13074012E+00</totfact>
</mgrwt>
</event>
<event>
 6    1  0.1568961E-005  0.3627674E+04  0.7818608E-02  0.8084182E-01
          2   -1    0    0  501    0  0.00000000000E+00  0.00000000000E+00  0.43316262076E+04  0.43316262076E+04  0.00000000000E+00 0. -1.
         -2   -1    0    0    0  501 -0.00000000000E+00 -0.00000000000E+00 -0.75953107198E+03  0.75953107198E+03  0.00000000000E+00 0.  1.
         23    2    1    2    0    0  0.12101858805E+04  0.10724740629E+04  0.29369051587E+04  0.33538556973E+04  0.90474560696E+02 0.  0.
         13    1    3    3    0    0  0.62825091099E+03  0.60591040845E+03  0.15294707110E+04  0.17609961062E+04  0.00000000000E+00 0.  1.
        -13    1    3    3    0    0  0.58193496948E+03  0.46656365448E+03  0.14074344478E+04  0.15928595911E+04  0.00000000000E+00 0. -1.
         22    1    1    2    0    0 -0.12101858805E+04 -0.10724740629E+04  0.63518997687E+03  0.17373015822E+04  0.00000000000E+00 0.  1.
<mgrwt>
<rscale>  0 0.36276740E+04</rscale>
<asrwt>0</asrwt>
<pdfrwt beam="1">  1        2 0.66640402E+00 0.36276740E+04</pdfrwt>
<pdfrwt beam="2">  1       -2 0.11685094E+00 0.36276740E+04</pdfrwt>
<totfact> 0.81505361E-02</totfact>
</mgrwt>
</event>
<event>
 6    1  0.1568961E-005  0.1435452E+04  0.7818608E-02  0.8928549E-01
         -2   -1    0    0    0  501 -0.00000000000E+00  0.00000000000E+00  0.49446820015E+03  0.49446820015E+03  0.00000000000E+00 0.  1.
          2   -1    0    0  501    0  0.00000000000E+00 -0.00000000000E+00 -0.10417875010E+04  0.10417875010E+04  0.00000000000E+00 0. -1.
         23    2    1    2    0    0 -0.48100392290E+03 -0.45283281870E+03 -0.56897817690E+03  0.87527805975E+03  0.77156856859E+02 0.  0.
         11    1    3    3    0    0 -0.12793501654E+03 -0.16268756940E+03 -0.20162687492E+03  0.28894291890E+03  0.00000000000E+00 0.  1.
        -11    1    3    3    0    0 -0.35306890636E+03 -0.29014524929E+03 -0.36735130198E+03  0.58633514085E+03  0.00000000000E+00 0. -1.
         22    1    1    2    0    0  0.48100392290E+03  0.45283281870E+03  0.21658876044E+02  0.66097764141E+03  0.00000000000E+00 0.  1.
<mgrwt>
<rscale>  0 0.14354523E+04</rscale>
<asrwt>0</asrwt>
<pdfrwt beam="1">  1        2 0.16027500E+00 0.14354523E+04</pdfrwt>
<pdfrwt beam="2">  1       -2 0.76072031E-01 0.14354523E+04</pdfrwt>
<totfact> 0.35590649E+01</totfact>
</mgrwt>
</event>
<event>
 6    1  0.1568961E-005  0.1299393E+04  0.7818608E-02  0.9030047E-01
         -2   -1    0    0    0  501 -0.00000000000E+00  0.00000000000E+00  0.42601232497E+03  0.42601232497E+03  0.00000000000E+00 0.  1.
          2   -1    0    0  501    0  0.00000000000E+00 -0.00000000000E+00 -0.99082901016E+03  0.99082901016E+03  0.00000000000E+00 0. -1.
         23    2    1    2    0    0 -0.64288840993E+03  0.12415908623E+02 -0.21279302024E+03  0.68377904372E+03  0.93878904766E+02 0.  0.
         13    1    3    3    0    0 -0.32690448516E+03  0.23580972031E+02 -0.15419562459E+03  0.36221388060E+03  0.00000000000E+00 0. -1.
        -13    1    3    3    0    0 -0.31598392477E+03 -0.11165063407E+02 -0.58597395654E+02  0.32156516312E+03  0.00000000000E+00 0.  1.
         22    1    1    2    0    0  0.64288840993E+03 -0.12415908623E+02 -0.35202366495E+03  0.73306229141E+03  0.00000000000E+00 0.  1.
<mgrwt>
<rscale>  0 0.12993927E+04</rscale>
<asrwt>0</asrwt>
<pdfrwt beam="1">  1        2 0.15243523E+00 0.12993927E+04</pdfrwt>
<pdfrwt beam="2">  1       -2 0.65540358E-01 0.12993927E+04</pdfrwt>
<totfact> 0.53686803E+01</totfact>
</mgrwt>
</event>
<event>
 6    1  0.1568961E-005  0.1165137E+04  0.7818608E-02  0.9143932E-01
          2   -1    0    0  501    0  0.00000000000E+00  0.00000000000E+00  0.88640771725E+03  0.88640771725E+03  0.00000000000E+00 0. -1.
         -2   -1    0    0    0  501 -0.00000000000E+00 -0.00000000000E+00 -0.38287782577E+03  0.38287782577E+03  0.00000000000E+00 0.  1.
         23    2    1    2    0    0 -0.31659948462E+03  0.27829329819E+03  0.68569146587E+03  0.81008489770E+03  0.91555238169E+02 0.  0.
         11    1    3    3    0    0 -0.19712880059E+03  0.12400777700E+03  0.42265054526E+03  0.48256727633E+03  0.00000000000E+00 0. -1.
        -11    1    3    3    0    0 -0.11947068403E+03  0.15428552119E+03  0.26304092061E+03  0.32751762137E+03  0.00000000000E+00 0.  1.
         22    1    1    2    0    0  0.31659948462E+03 -0.27829329819E+03 -0.18216157439E+03  0.45920064532E+03  0.00000000000E+00 0.  1.
<mgrwt>
<rscale>  0 0.11651367E+04</rscale>
<asrwt>0</asrwt>
<pdfrwt beam="1">  1        2 0.13637042E+00 0.11651367E+04</pdfrwt>
<pdfrwt beam="2">  1       -2 0.58904281E-01 0.11651367E+04</pdfrwt>
<totfact> 0.79780952E+01</totfact>
</mgrwt>
</event>
<event>
 6    1  0.1568961E-005  0.1693195E+04  0.7818608E-02  0.8765255E-01
         -2   -1    0    0    0  501 -0.00000000000E+00  0.00000000000E+00  0.77515500445E+03  0.77515500445E+03  0.00000000000E+00 0.  1.
          2   -1    0    0  501    0  0.00000000000E+00 -0.00000000000E+00 -0.92462493426E+03  0.92462493426E+03  0.00000000000E+00 0. -1.
         23    2    1    2    0    0 -0.18334427565E+03 -0.49109547164E+03 -0.73930674603E+03  0.91066818779E+03  0.89175096547E+02 0.  0.
         11    1    3    3    0    0 -0.78010589024E+02 -0.30866688127E+03 -0.39921114273E+03  0.51061769659E+03  0.00000000000E+00 0. -1.
        -11    1    3    3    0    0 -0.10533368663E+03 -0.18242859038E+03 -0.34009560330E+03  0.40005049120E+03  0.00000000000E+00 0.  1.
         22    1    1    2    0    0  0.18334427565E+03  0.49109547164E+03  0.58983681621E+03  0.78911175092E+03  0.00000000000E+00 0.  1.
<mgrwt>
<rscale>  0 0.16931954E+04</rscale>
<asrwt>0</asrwt>
<pdfrwt beam="1">  1        2 0.14224999E+00 0.16931954E+04</pdfrwt>
<pdfrwt beam="2">  1       -2 0.11925462E+00 0.16931954E+04</pdfrwt>
<totfact> 0.14491407E+01</totfact>
</mgrwt>
</event>
<event>
 6    1  0.1568961E-005  0.1068510E+04  0.7818608E-02  0.9236440E-01
         -1   -1    0    0    0  501 -0.00000000000E+00  0.00000000000E+00  0.47011201041E+03  0.47011201041E+03  0.00000000000E+00 0.  1.
          1   -1    0    0  501    0  0.00000000000E+00 -0.00000000000E+00 -0.60714939219E+03  0.60714939219E+03  0.00000000000E+00 0. -1.
         23    2    1    2    0    0  0.45975919973E+03  0.71873574508E+02 -0.32281186551E+03  0.57620602517E+03  0.10612045266E+03 0.  0.
         11    1    3    3    0    0  0.35563074941E+03  0.22184129246E+02 -0.27988848205E+03  0.45310366132E+03  0.00000000000E+00 0.  1.
        -11    1    3    3    0    0  0.10412845033E+03  0.49689445262E+02 -0.42923383460E+02  0.12310236385E+03  0.00000000000E+00 0. -1.
         22    1    1    2    0    0 -0.45975919973E+03 -0.71873574508E+02  0.18577448373E+03  0.50105537743E+03  0.00000000000E+00 0.  1.
<mgrwt>
<rscale>  0 0.10685097E+04</rscale>
<asrwt>0</asrwt>
<pdfrwt beam="1">  1        1 0.93407599E-01 0.10685097E+04</pdfrwt>
<pdfrwt beam="2">  1       -1 0.72324925E-01 0.10685097E+04</pdfrwt>
<totfact> 0.64856144E+01</totfact>
</mgrwt>
</event>
<event>
 6    1  0.1568961E-005  0.2816793E+04  0.7818608E-02  0.8298074E-01
         -2   -1    0    0    0  501 -0.00000000000E+00  0.00000000000E+00  0.74824066073E+03  0.74824066073E+03  0.00000000000E+00 0. -1.
          2   -1    0    0  501    0  0.00000000000E+00 -0.00000000000E+00 -0.26509922088E+04  0.26509922088E+04  0.00000000000E+00 0.  1.
         23    2    1    2    0    0  0.33645801683E+03 -0.88983226581E+03 -0.22032659138E+04  0.24015784492E+04  0.90514652199E+02 0.  0.
         13    1    3    3    0    0  0.10282016205E+03 -0.17481487749E+03 -0.43436612757E+03  0.47938101745E+03  0.00000000000E+00 0. -1.
        -13    1    3    3    0    0  0.23363785478E+03 -0.71501738832E+03 -0.17688997863E+04  0.19221974317E+04  0.00000000000E+00 0.  1.
         22    1    1    2    0    0 -0.33645801683E+03  0.88983226581E+03  0.30051436576E+03  0.99765442033E+03  0.00000000000E+00 0. -1.
<mgrwt>
<rscale>  0 0.28167926E+04</rscale>
<asrwt>0</asrwt>
<pdfrwt beam="1">  1        2 0.40784497E+00 0.28167926E+04</pdfrwt>
<pdfrwt beam="2">  1       -2 0.11511394E+00 0.28167926E+04</pdfrwt>
<totfact> 0.14509978E+00</totfact>
</mgrwt>
</event>
<event>
 6    1  0.1568961E-005  0.1715652E+04  0.7818608E-02  0.8752487E-01
          1   -1    0    0  501    0  0.00000000000E+00  0.00000000000E+00  0.27657208506E+04  0.27657208506E+04  0.00000000000E+00 0. -1.
         -1   -1    0    0    0  501 -0.00000000000E+00 -0.00000000000E+00 -0.26606652745E+03  0.26606652745E+03  0.00000000000E+00 0.  1.
         23    2    1    2    0    0  0.56258421957E+03 -0.25912629727E+03  0.21055031901E+03  0.66036489695E+03  0.90016211065E+02 0.  0.
         11    1    3    3    0    0  0.35528089113E+03 -0.13187766077E+03  0.93021199930E+02  0.39021682773E+03  0.00000000000E+00 0. -1.
        -11    1    3    3    0    0  0.20730332844E+03 -0.12724863650E+03  0.11752911908E+03  0.27014806922E+03  0.00000000000E+00 0.  1.
         22    1    1    2    0    0 -0.56258421957E+03  0.25912629727E+03  0.22891040042E+04  0.23714224811E+04  0.00000000000E+00 0. -1.
<mgrwt>
<rscale>  0 0.17156523E+04</rscale>
<asrwt>0</asrwt>
<pdfrwt beam="1">  1        1 0.42549550E+00 0.17156523E+04</pdfrwt>
<pdfrwt beam="2">  1       -1 0.40933314E-01 0.17156523E+04</pdfrwt>
<totfact> 0.49040670E+00</totfact>
</mgrwt>
</event>
<event>
 6    1  0.1568961E-005  0.2889762E+04  0.7818608E-02  0.8275930E-01
         -2   -1    0    0    0  501 -0.00000000000E+00  0.00000000000E+00  0.17654610197E+04  0.17654610197E+04  0.00000000000E+00 0.  1.
          2   -1    0    0  501    0  0.00000000000E+00 -0.00000000000E+00 -0.11825135578E+04  0.11825135578E+04  0.00000000000E+00 0. -1.
         23    2    1    2    0    0 -0.13444576320E+04  0.11731190363E+03  0.81410153209E+03  0.15787555989E+04  0.91539769832E+02 0.  0.
         13    1    3    3    0    0 -0.12158000077E+04  0.11169111064E+03  0.76581247606E+03  0.14412193835E+04  0.00000000000E+00 0. -1.
        -13    1    3    3    0    0 -0.12865762433E+03  0.56207929867E+01  0.48289056029E+02  0.13753621539E+03  0.00000000000E+00 0.  1.
         22    1    1    2    0    0  0.13444576320E+04 -0.11731190363E+03 -0.23115407020E+03  0.13692189786E+04  0.00000000000E+00 0. -1.
<mgrwt>
<rscale>  0 0.28897623E+04</rscale>
<asrwt>0</asrwt>
<pdfrwt beam="1">  1        2 0.18192516E+00 0.28897623E+04</pdfrwt>
<pdfrwt beam="2">  1       -2 0.27160939E+00 0.28897623E+04</pdfrwt>
<totfact> 0.79415226E-01</totfact>
</mgrwt>
</event>
<event>
 6    1  0.1568961E-005  0.1947622E+04  0.7818608E-02  0.8631509E-01
         -1   -1    0    0    0  501 -0.00000000000E+00  0.00000000000E+00  0.66218737450E+03  0.66218737450E+03  0.00000000000E+00 0.  1.
          1   -1    0    0  501    0  0.00000000000E+00 -0.00000000000E+00 -0.14320832585E+04  0.14320832585E+04  0.00000000000E+00 0. -1.
         23    2    1    2    0    0 -0.29133022933E+03  0.53970488000E+03  0.42477503560E+03  0.75136584630E+03  0.89230847225E+02 0.  0.
         11    1    3    3    0    0 -0.75761325758E+02  0.22981753669E+03  0.17731045959E+03  0.29999146276E+03  0.00000000000E+00 0. -1.
        -11    1    3    3    0    0 -0.21556890357E+03  0.30988734330E+03  0.24746457601E+03  0.45137438353E+03  0.00000000000E+00 0.  1.
         22    1    1    2    0    0  0.29133022933E+03 -0.53970488000E+03 -0.11946709196E+04  0.13429047867E+04  0.00000000000E+00 0. -1.
<mgrwt>
<rscale>  0 0.19476216E+04</rscale>
<asrwt>0</asrwt>
<pdfrwt beam="1">  1        1 0.22032050E+00 0.19476216E+04</pdfrwt>
<pdfrwt beam="2">  1       -1 0.10187498E+00 0.19476216E+04</pdfrwt>
<totfact> 0.62075528E+00</totfact>
</mgrwt>
</event>
<event>
 6    1  0.1568961E-005  0.2818439E+04  0.7818608E-02  0.8297567E-01
         -2   -1    0    0    0  501 -0.00000000000E+00  0.00000000000E+00  0.78441028034E+03  0.78441028034E+03  0.00000000000E+00 0. -1.
          2   -1    0    0  501    0  0.00000000000E+00 -0.00000000000E+00 -0.25317100749E+04  0.25317100749E+04  0.00000000000E+00 0.  1.
         23    2    1    2    0    0  0.34427764757E+03  0.11889537000E+04 -0.85593393068E+02  0.12440667449E+04  0.90762533428E+02 0.  0.
         13    1    3    3    0    0  0.29245247180E+03  0.10155290986E+04 -0.40721340840E+02  0.10575849970E+04  0.00000000000E+00 0. -1.
        -13    1    3    3    0    0  0.51825175773E+02  0.17342460140E+03 -0.44872052228E+02  0.18648174786E+03  0.00000000000E+00 0.  1.
         22    1    1    2    0    0 -0.34427764757E+03 -0.11889537000E+04 -0.16617064015E+04  0.20720536103E+04  0.00000000000E+00 0.  1.
<mgrwt>
<rscale>  0 0.28184389E+04</rscale>
<asrwt>0</asrwt>
<pdfrwt beam="1">  1        2 0.38949386E+00 0.28184389E+04</pdfrwt>
<pdfrwt beam="2">  1       -2 0.12067850E+00 0.28184389E+04</pdfrwt>
<totfact> 0.15174782E+00</totfact>
</mgrwt>
</event>
<event>
 6    1  0.1568961E-005  0.2039205E+04  0.7818608E-02  0.8588507E-01
          1   -1    0    0  501    0  0.00000000000E+00  0.00000000000E+00  0.23449020248E+04  0.23449020248E+04  0.00000000000E+00 0. -1.
         -1   -1    0    0    0  501 -0.00000000000E+00 -0.00000000000E+00 -0.44334034440E+03  0.44334034440E+03  0.00000000000E+00 0.  1.
         23    2    1    2    0    0  0.33968906216E+03 -0.83114034321E+03  0.16072976143E+04  0.18433750401E+04  0.91885734677E+02 0.  0.
         13    1    3    3    0    0  0.22307330871E+03 -0.64149074011E+03  0.11771539148E+04  0.13590303197E+04  0.00000000000E+00 0.  1.
        -13    1    3    3    0    0  0.11661575345E+03 -0.18964960310E+03  0.43014369955E+03  0.48434472039E+03  0.00000000000E+00 0. -1.
         22    1    1    2    0    0 -0.33968906216E+03  0.83114034321E+03  0.29426406604E+03  0.94486732911E+03  0.00000000000E+00 0.  1.
<mgrwt>
<rscale>  0 0.20392054E+04</rscale>
<asrwt>0</asrwt>
<pdfrwt beam="1">  1        1 0.36075415E+00 0.20392054E+04</pdfrwt>
<pdfrwt beam="2">  1       -1 0.68206208E-01 0.20392054E+04</pdfrwt>
<totfact> 0.34883561E+00</totfact>
</mgrwt>
</event>
<event>
 6    1  0.1568961E-005  0.1612805E+04  0.7818608E-02  0.8812720E-01
         -1   -1    0    0    0  501 -0.00000000000E+00  0.00000000000E+00  0.84837926071E+03  0.84837926071E+03  0.00000000000E+00 0.  1.
          1   -1    0    0  501    0  0.00000000000E+00 -0.00000000000E+00 -0.76650279846E+03  0.76650279846E+03  0.00000000000E+00 0. -1.
         23    2    1    2    0    0  0.58162087060E+03  0.21804697106E+03  0.55197866820E+03  0.83589335402E+03  0.90608666483E+02 0.  0.
         11    1    3    3    0    0  0.47281201867E+03  0.19668156109E+03  0.49051282962E+03  0.70911048327E+03  0.00000000000E+00 0.  1.
        -11    1    3    3    0    0  0.10880885194E+03  0.21365409971E+02  0.61465838582E+02  0.12678287075E+03  0.00000000000E+00 0. -1.
         22    1    1    2    0    0 -0.58162087060E+03 -0.21804697106E+03 -0.47010220595E+03  0.77898870515E+03  0.00000000000E+00 0. -1.
<mgrwt>
<rscale>  0 0.16128051E+04</rscale>
<asrwt>0</asrwt>
<pdfrwt beam="1">  1        1 0.11792351E+00 0.16128051E+04</pdfrwt>
<pdfrwt beam="2">  1       -1 0.13051989E+00 0.16128051E+04</pdfrwt>
<totfact> 0.11392667E+01</totfact>
</mgrwt>
</event>
<event>
 6    1  0.1568961E-005  0.4643280E+04  0.7818608E-02  0.7886022E-01
          1   -1    0    0  501    0  0.00000000000E+00  0.00000000000E+00  0.21457571176E+04  0.21457571176E+04  0.00000000000E+00 0. -1.
         -1   -1    0    0    0  501 -0.00000000000E+00 -0.00000000000E+00 -0.25119392591E+04  0.25119392591E+04  0.00000000000E+00 0.  1.
         23    2    1    2    0    0  0.15840753338E+04  0.54859720098E+03 -0.17930080156E+04  0.24563137142E+04  0.91355167380E+02 0.  0.
         11    1    3    3    0    0  0.11067148778E+04  0.36964530374E+03 -0.11883345962E+04  0.16654112356E+04  0.00000000000E+00 0. -1.
        -11    1    3    3    0    0  0.47736045601E+03  0.17895189724E+03 -0.60467341941E+03  0.79090247858E+03  0.00000000000E+00 0.  1.
         22    1    1    2    0    0 -0.15840753338E+04 -0.54859720098E+03  0.14268258740E+04  0.22013826625E+04  0.00000000000E+00 0. -1.
<mgrwt>
<rscale>  0 0.46432797E+04</rscale>
<asrwt>0</asrwt>
<pdfrwt beam="1">  1        1 0.33011648E+00 0.46432797E+04</pdfrwt>
<pdfrwt beam="2">  1       -1 0.38645219E+00 0.46432797E+04</pdfrwt>
<totfact> 0.15587748E-02</totfact>
</mgrwt>
</event>
<event>
 6    1  0.1568961E-005  0.1661493E+04  0.7818608E-02  0.8783636E-01
          2   -1    0    0  501    0  0.00000000000E+00  0.00000000000E+00  0.12935418697E+04  0.12935418697E+04  0.00000000000E+00 0. -1.
         -2   -1    0    0    0  501 -0.00000000000E+00 -0.00000000000E+00 -0.53352748595E+03  0.53352748595E+03  0.00000000000E+00 0.  1.
         23    2    1    2    0    0 -0.81095638519E+03  0.16746594374E+03  0.40328055242E+03  0.92542966742E+03  0.89943117505E+02 0.  0.
         11    1    3    3    0    0 -0.30385168411E+03  0.22264670607E+02  0.16713925661E+03  0.34750121236E+03  0.00000000000E+00 0.  1.
        -11    1    3    3    0    0 -0.50710470108E+03  0.14520127313E+03  0.23614129581E+03  0.57792845506E+03  0.00000000000E+00 0. -1.
         22    1    1    2    0    0  0.81095638519E+03 -0.16746594374E+03  0.35673383133E+03  0.90163968824E+03  0.00000000000E+00 0.  1.
<mgrwt>
<rscale>  0 0.16614935E+04</rscale>
<asrwt>0</asrwt>
<pdfrwt beam="1">  1        2 0.19900644E+00 0.16614935E+04</pdfrwt>
<pdfrwt beam="2">  1       -2 0.82081152E-01 0.16614935E+04</pdfrwt>
<totfact> 0.20762472E+01</totfact>
</mgrwt>
</event>
<event>
 6    1  0.1568961E-005  0.1307557E+04  0.7818608E-02  0.9023594E-01
          2   -1    0    0  501    0  0.00000000000E+00  0.00000000000E+00  0.31531940579E+03  0.31531940579E+03  0.00000000000E+00 0. -1.
         -2   -1    0    0    0  501 -0.00000000000E+00 -0.00000000000E+00 -0.13555351361E+04  0.13555351361E+04  0.00000000000E+00 0.  1.
         23    2    1    2    0    0  0.96569184165E+02 -0.30999389143E+03  0.20041644055E+03  0.38843885131E+03  0.72774799967E+02 0.  0.
         11    1    3    3    0    0  0.95283327113E+02 -0.30768305739E+03  0.18225798320E+03  0.37008883889E+03  0.00000000000E+00 0.  1.
        -11    1    3    3    0    0  0.12858570526E+01 -0.23108340336E+01  0.18158457352E+02  0.18350012416E+02  0.00000000000E+00 0. -1.
         22    1    1    2    0    0 -0.96569184165E+02  0.30999389143E+03 -0.12406321709E+04  0.12824156906E+04  0.00000000000E+00 0.  1.
<mgrwt>
<rscale>  0 0.13075573E+04</rscale>
<asrwt>0</asrwt>
<pdfrwt beam="1">  1        2 0.48510678E-01 0.13075573E+04</pdfrwt>
<pdfrwt beam="2">  1       -2 0.20854386E+00 0.13075573E+04</pdfrwt>
<totfact> 0.11897798E+01</totfact>
</mgrwt>
</event>
<event>
 6    1  0.1568961E-005  0.3646319E+04  0.7818608E-02  0.8079963E-01
          2   -1    0    0  501    0  0.00000000000E+00  0.00000000000E+00  0.17109847277E+04  0.17109847277E+04  0.00000000000E+00 0. -1.
         -2   -1    0    0    0  501 -0.00000000000E+00 -0.00000000000E+00 -0.19426882504E+04  0.19426882504E+04  0.00000000000E+00 0.  1.
         23    2    1    2    0    0  0.13804946824E+04 -0.60777829509E+03  0.90821869143E+03  0.17630162989E+04  0.90582862030E+02 0.  0.
         11    1    3    3    0    0  0.35790233565E+03 -0.11688777731E+03  0.21224967089E+03  0.43221147271E+03  0.00000000000E+00 0. -1.
        -11    1    3    3    0    0  0.10225923467E+04 -0.49089051778E+03  0.69596902053E+03  0.13308048262E+04  0.00000000000E+00 0.  1.
         22    1    1    2    0    0 -0.13804946824E+04  0.60777829509E+03 -0.11399222141E+04  0.18906566791E+04  0.00000000000E+00 0.  1.
<mgrwt>
<rscale>  0 0.36463187E+04</rscale>
<asrwt>0</asrwt>
<pdfrwt beam="1">  1        2 0.26322842E+00 0.36463187E+04</pdfrwt>
<pdfrwt beam="2">  1       -2 0.29887511E+00 0.36463187E+04</pdfrwt>
<totfact> 0.25352138E-01</totfact>
</mgrwt>
</event>
<event>
 6    1  0.1568961E-005  0.4013331E+04  0.7818608E-02  0.8001863E-01
         -2   -1    0    0    0  501 -0.00000000000E+00  0.00000000000E+00  0.10581661266E+04  0.10581661266E+04  0.00000000000E+00 0.  1.
          2   -1    0    0  501    0  0.00000000000E+00 -0.00000000000E+00 -0.38053638667E+04  0.38053638667E+04  0.00000000000E+00 0. -1.
         23    2    1    2    0    0  0.94199281224E+03  0.16086228105E+04 -0.22710918558E+04  0.29395511427E+04  0.89916060987E+02 0.  0.
         11    1    3    3    0    0  0.63476377797E+03  0.10022792735E+04 -0.14641759467E+04  0.18844893204E+04  0.00000000000E+00 0.  1.
        -11    1    3    3    0    0  0.30722903428E+03  0.60634353701E+03 -0.80691590911E+03  0.10550618222E+04  0.00000000000E+00 0. -1.
         22    1    1    2    0    0 -0.94199281224E+03 -0.16086228105E+04 -0.47610588420E+03  0.19239788506E+04  0.00000000000E+00 0.  1.
<mgrwt>
<rscale>  0 0.40133314E+04</rscale>
<asrwt>0</asrwt>
<pdfrwt beam="1">  1        2 0.58544060E+00 0.40133314E+04</pdfrwt>
<pdfrwt beam="2">  1       -2 0.16279479E+00 0.40133314E+04</pdfrwt>
<totfact> 0.91844148E-02</totfact>
</mgrwt>
</event>
<event>
 6    1  0.1676181E-005  0.3445592E+04  0.7818608E-02  0.8126806E-01
         -2   -1    0    0    0  501 -0.00000000000E+00  0.00000000000E+00  0.91977864835E+03  0.91977864835E+03  0.00000000000E+00 0. -1.
          2   -1    0    0  501    0  0.00000000000E+00 -0.00000000000E+00 -0.32268919825E+04  0.32268919825E+04  0.00000000000E+00 0.  1.
         23    2    1    2    0    0 -0.15234636010E+04  0.37518954983E+03 -0.20071946465E+04  0.25492790817E+04  0.91021678230E+02 0.  0.
         11    1    3    3    0    0 -0.10261529896E+04  0.26481699895E+03 -0.12880319641E+04  0.16679761214E+04  0.00000000000E+00 0. -1.
        -11    1    3    3    0    0 -0.49731061135E+03  0.11037255088E+03 -0.71916268236E+03  0.88130296031E+03  0.00000000000E+00 0.  1.
         22    1    1    2    0    0  0.15234636010E+04 -0.37518954983E+03 -0.29991868763E+03  0.15973915491E+04  0.00000000000E+00 0. -1.
<mgrwt>
<rscale>  0 0.34455922E+04</rscale>
<asrwt>0</asrwt>
<pdfrwt beam="1">  1        2 0.49644491E+00 0.34455922E+04</pdfrwt>
<pdfrwt beam="2">  1       -2 0.14150441E+00 0.34455922E+04</pdfrwt>
<totfact> 0.35860717E-01</totfact>
</mgrwt>
</event>
<event>
 6    1  0.2401463E-005  0.3799073E+04  0.7818608E-02  0.8046354E-01
          2   -1    0    0  501    0  0.00000000000E+00  0.00000000000E+00  0.18676548332E+04  0.18676548332E+04  0.00000000000E+00 0.  1.
         -2   -1    0    0    0  501 -0.00000000000E+00 -0.00000000000E+00 -0.19319620364E+04  0.19319620364E+04  0.00000000000E+00 0. -1.
         23    2    1    2    0    0 -0.38788956202E+03 -0.43170050784E+03  0.17755186445E+04  0.18704246058E+04  0.95906768794E+02 0.  0.
         11    1    3    3    0    0 -0.13252052993E+03 -0.20069244424E+03  0.83056339503E+03  0.86468184970E+03  0.00000000000E+00 0.  1.
        -11    1    3    3    0    0 -0.25536903209E+03 -0.23100806361E+03  0.94495524944E+03  0.10057427561E+04  0.00000000000E+00 0. -1.
         22    1    1    2    0    0  0.38788956202E+03  0.43170050784E+03 -0.18398258477E+04  0.19291922638E+04  0.00000000000E+00 0. -1.
<mgrwt>
<rscale>  0 0.37990726E+04</rscale>
<asrwt>0</asrwt>
<pdfrwt beam="1">  1        2 0.28733151E+00 0.37990726E+04</pdfrwt>
<pdfrwt beam="2">  1       -2 0.29722493E+00 0.37990726E+04</pdfrwt>
<totfact> 0.20974244E-01</totfact>
</mgrwt>
</event>
<event>
 6    1  0.1568961E-005  0.1566621E+04  0.7818608E-02  0.8841321E-01
         -2   -1    0    0    0  501 -0.00000000000E+00  0.00000000000E+00  0.11521454648E+04  0.11521454648E+04  0.00000000000E+00 0. -1.
          2   -1    0    0  501    0  0.00000000000E+00 -0.00000000000E+00 -0.53255001016E+03  0.53255001016E+03  0.00000000000E+00 0.  1.
         23    2    1    2    0    0  0.73710156509E+03 -0.25518986512E+03  0.27978365947E+03  0.83386491564E+03  0.92796642707E+02 0.  0.
         13    1    3    3    0    0  0.56231288506E+03 -0.19504188934E+03  0.17045651137E+03  0.61910624417E+03  0.00000000000E+00 0.  1.
        -13    1    3    3    0    0  0.17478868004E+03 -0.60147975784E+02  0.10932714810E+03  0.21475867147E+03  0.00000000000E+00 0. -1.
         22    1    1    2    0    0 -0.73710156509E+03  0.25518986512E+03  0.33981179516E+03  0.85083055931E+03  0.00000000000E+00 0.  1.
<mgrwt>
<rscale>  0 0.15666207E+04</rscale>
<asrwt>0</asrwt>
<pdfrwt beam="1">  1        2 0.81930771E-01 0.15666207E+04</pdfrwt>
<pdfrwt beam="2">  1       -2 0.17725315E+00 0.15666207E+04</pdfrwt>
<totfact> 0.10406871E+01</totfact>
</mgrwt>
</event>
<event>
 6    1  0.1568961E-005  0.1519561E+04  0.7818608E-02  0.8871549E-01
          1   -1    0    0  501    0  0.00000000000E+00  0.00000000000E+00  0.50659153390E+03  0.50659153390E+03  0.00000000000E+00 0.  1.
         -1   -1    0    0    0  501 -0.00000000000E+00 -0.00000000000E+00 -0.11395099123E+04  0.11395099123E+04  0.00000000000E+00 0. -1.
         23    2    1    2    0    0 -0.66881653517E+03 -0.18590492729E+03  0.95274596136E+01  0.70026168468E+03  0.91648539746E+02 0.  0.
         11    1    3    3    0    0 -0.10114394422E+03 -0.46868623365E+02  0.30035150865E+02  0.11545074966E+03  0.00000000000E+00 0. -1.
        -11    1    3    3    0    0 -0.56767259095E+03 -0.13903630392E+03 -0.20507691251E+02  0.58481093502E+03  0.00000000000E+00 0.  1.
         22    1    1    2    0    0  0.66881653517E+03  0.18590492729E+03 -0.64244583801E+03  0.94583976152E+03  0.00000000000E+00 0. -1.
<mgrwt>
<rscale>  0 0.15195606E+04</rscale>
<asrwt>0</asrwt>
<pdfrwt beam="1">  1        1 0.77937161E-01 0.15195606E+04</pdfrwt>
<pdfrwt beam="2">  1       -1 0.17530921E+00 0.15195606E+04</pdfrwt>
<totfact> 0.94580638E+00</totfact>
</mgrwt>
</event>
<event>
 6    1  0.1568961E-005  0.3353642E+04  0.7818608E-02  0.8149379E-01
         -1   -1    0    0    0  501 -0.00000000000E+00  0.00000000000E+00  0.18884309696E+04  0.18884309696E+04  0.00000000000E+00 0.  1.
          1   -1    0    0  501    0  0.00000000000E+00 -0.00000000000E+00 -0.14889234275E+04  0.14889234275E+04  0.00000000000E+00 0. -1.
         23    2    1    2    0    0 -0.11140945837E+03 -0.11183024718E+04 -0.10517525636E+04  0.15418249421E+04  0.89600287030E+02 0.  0.
         13    1    3    3    0    0 -0.18888049575E+02 -0.61973989042E+03 -0.56079770574E+03  0.83601935202E+03  0.00000000000E+00 0. -1.
        -13    1    3    3    0    0 -0.92521408794E+02 -0.49856258136E+03 -0.49095485784E+03  0.70580559013E+03  0.00000000000E+00 0.  1.
         22    1    1    2    0    0  0.11140945837E+03  0.11183024718E+04  0.14512601057E+04  0.18355294550E+04  0.00000000000E+00 0.  1.
<mgrwt>
<rscale>  0 0.33536423E+04</rscale>
<asrwt>0</asrwt>
<pdfrwt beam="1">  1        1 0.22906514E+00 0.33536423E+04</pdfrwt>
<pdfrwt beam="2">  1       -1 0.29052784E+00 0.33536423E+04</pdfrwt>
<totfact> 0.20916899E-01</totfact>
</mgrwt>
</event>
<event>
 6    1  0.1568961E-005  0.1066122E+04  0.7818608E-02  0.9238855E-01
         -2   -1    0    0    0  501 -0.00000000000E+00  0.00000000000E+00  0.28732782948E+03  0.28732782948E+03  0.00000000000E+00 0. -1.
          2   -1    0    0  501    0  0.00000000000E+00 -0.00000000000E+00 -0.98895449134E+03  0.98895449134E+03  0.00000000000E+00 0.  1.
         23    2    1    2    0    0  0.12645565599E+03  0.13134783444E+03 -0.94779806855E+03  0.96994321458E+03  0.96048811625E+02 0.  0.
         13    1    3    3    0    0  0.53431153733E+01  0.68322403048E+02 -0.36375440359E+03  0.37015370560E+03  0.00000000000E+00 0. -1.
        -13    1    3    3    0    0  0.12111254062E+03  0.63025431389E+02 -0.58404366496E+03  0.59978950897E+03  0.00000000000E+00 0.  1.
         22    1    1    2    0    0 -0.12645565599E+03 -0.13134783444E+03  0.24617140669E+03  0.30633910625E+03  0.00000000000E+00 0. -1.
<mgrwt>
<rscale>  0 0.10661222E+04</rscale>
<asrwt>0</asrwt>
<pdfrwt beam="1">  1        2 0.15214684E+00 0.10661222E+04</pdfrwt>
<pdfrwt beam="2">  1       -2 0.44204281E-01 0.10661222E+04</pdfrwt>
<totfact> 0.12356003E+02</totfact>
</mgrwt>
</event>
<event>
 6    1  0.1568961E-005  0.1689020E+04  0.7818608E-02  0.8767651E-01
          1   -1    0    0  501    0  0.00000000000E+00  0.00000000000E+00  0.15402785398E+04  0.15402785398E+04  0.00000000000E+00 0. -1.
         -1   -1    0    0    0  501 -0.00000000000E+00 -0.00000000000E+00 -0.46303132766E+03  0.46303132766E+03  0.00000000000E+00 0.  1.
         23    2    1    2    0    0 -0.26128315783E+03 -0.80052365920E+03  0.53861166883E+03  0.10036923076E+04  0.90491441537E+02 0.  0.
         13    1    3    3    0    0 -0.22276443514E+03 -0.61795968999E+03  0.45595254353E+03  0.79961921811E+03  0.00000000000E+00 0.  1.
        -13    1    3    3    0    0 -0.38518722693E+02 -0.18256396921E+03  0.82659125295E+02  0.20407308947E+03  0.00000000000E+00 0. -1.
         22    1    1    2    0    0  0.26128315783E+03  0.80052365920E+03  0.53863554330E+03  0.99961755988E+03  0.00000000000E+00 0. -1.
<mgrwt>
<rscale>  0 0.16890201E+04</rscale>
<asrwt>0</asrwt>
<pdfrwt beam="1">  1        1 0.23696593E+00 0.16890201E+04</pdfrwt>
<pdfrwt beam="2">  1       -1 0.71235590E-01 0.16890201E+04</pdfrwt>
<totfact> 0.11628263E+01</totfact>
</mgrwt>
</event>
<event>
 6    1  0.1568961E-005  0.8014365E+03  0.7818608E-02  0.9557940E-01
          1   -1    0    0  501    0  0.00000000000E+00  0.00000000000E+00  0.12237278631E+04  0.12237278631E+04  0.00000000000E+00 0.  1.
         -1   -1    0    0    0  501 -0.00000000000E+00 -0.00000000000E+00 -0.13121799973E+03  0.13121799973E+03  0.00000000000E+00 0. -1.
         23    2    1    2    0    0 -0.14642326722E+03 -0.32168090105E+03  0.25349081698E+03  0.44452215076E+03  0.91782203832E+02 0.  0.
         13    1    3    3    0    0 -0.76606965330E+02 -0.73295362808E+02  0.58289340358E+02  0.12098960511E+03  0.00000000000E+00 0.  1.
        -13    1    3    3    0    0 -0.69816301889E+02 -0.24838553824E+03  0.19520147662E+03  0.32353254565E+03  0.00000000000E+00 0. -1.
         22    1    1    2    0    0  0.14642326722E+03  0.32168090105E+03  0.83901904635E+03  0.91042371202E+03  0.00000000000E+00 0.  1.
<mgrwt>
<rscale>  0 0.80143652E+03</rscale>
<asrwt>0</asrwt>
<pdfrwt beam="1">  1        1 0.18826582E+00 0.80143652E+03</pdfrwt>
<pdfrwt beam="2">  1       -1 0.20187385E-01 0.80143652E+03</pdfrwt>
<totfact> 0.20908962E+02</totfact>
</mgrwt>
</event>
<event>
 6    1  0.1568961E-005  0.1437857E+04  0.7818608E-02  0.8926863E-01
          2   -1    0    0  501    0  0.00000000000E+00  0.00000000000E+00  0.16454057674E+04  0.16454057674E+04  0.00000000000E+00 0.  1.
         -2   -1    0    0    0  501 -0.00000000000E+00 -0.00000000000E+00 -0.31412197352E+03  0.31412197352E+03  0.00000000000E+00 0. -1.
         23    2    1    2    0    0  0.21602756389E+03  0.16010777091E+03 -0.23610238762E+03  0.36924416601E+03  0.91074200641E+02 0.  0.
         11    1    3    3    0    0  0.11050341002E+03  0.12628805893E+03 -0.10660414179E+03  0.19880674159E+03  0.00000000000E+00 0.  1.
        -11    1    3    3    0    0  0.10552415387E+03  0.33819711981E+02 -0.12949824583E+03  0.17043742442E+03  0.00000000000E+00 0. -1.
         22    1    1    2    0    0 -0.21602756389E+03 -0.16010777091E+03  0.15673861815E+04  0.15902835749E+04  0.00000000000E+00 0.  1.
<mgrwt>
<rscale>  0 0.14378569E+04</rscale>
<asrwt>0</asrwt>
<pdfrwt beam="1">  1        2 0.25313934E+00 0.14378569E+04</pdfrwt>
<pdfrwt beam="2">  1       -2 0.48326459E-01 0.14378569E+04</pdfrwt>
<totfact> 0.41403872E+01</totfact>
</mgrwt>
</event>
<event>
 6    1  0.1568961E-005  0.2481204E+04  0.7818608E-02  0.8409712E-01
         -1   -1    0    0    0  501 -0.00000000000E+00  0.00000000000E+00  0.12299022938E+04  0.12299022938E+04  0.00000000000E+00 0.  1.
          1   -1    0    0  501    0  0.00000000000E+00 -0.00000000000E+00 -0.12513948335E+04  0.12513948335E+04  0.00000000000E+00 0. -1.
         23    2    1    2    0    0  0.77815596398E+03  0.34608897178E+03 -0.91060763420E+03  0.12501066741E+04  0.90863372557E+02 0.  0.
         13    1    3    3    0    0  0.34237118362E+03  0.11744347479E+03 -0.34006446165E+03  0.49664356960E+03  0.00000000000E+00 0. -1.
        -13    1    3    3    0    0  0.43578478036E+03  0.22864549700E+03 -0.57054317255E+03  0.75346310449E+03  0.00000000000E+00 0.  1.
         22    1    1    2    0    0 -0.77815596398E+03 -0.34608897178E+03  0.88911509451E+03  0.12311904532E+04  0.00000000000E+00 0.  1.
<mgrwt>
<rscale>  0 0.24812040E+04</rscale>
<asrwt>0</asrwt>
<pdfrwt beam="1">  1        1 0.19252228E+00 0.24812040E+04</pdfrwt>
<pdfrwt beam="2">  1       -1 0.18921574E+00 0.24812040E+04</pdfrwt>
<totfact> 0.15613128E+00</totfact>
</mgrwt>
</event>
<event>
 6    1  0.1568961E-005  0.5827823E+04  0.7818608E-02  0.7712124E-01
          1   -1    0    0  501    0  0.00000000000E+00  0.00000000000E+00  0.27942538960E+04  0.27942538960E+04  0.00000000000E+00 0. -1.
         -1   -1    0    0    0  501 -0.00000000000E+00 -0.00000000000E+00 -0.30386936671E+04  0.30386936671E+04  0.00000000000E+00 0.  1.
         23    2    1    2    0    0  0.16918416599E+04 -0.19060830379E+04 -0.15346488663E+04  0.29763551422E+04  0.89788865396E+02 0.  0.
         13    1    3    3    0    0  0.43765300110E+03 -0.46966302122E+03 -0.34519568807E+03  0.72889201253E+03  0.00000000000E+00 0. -1.
        -13    1    3    3    0    0  0.12541886588E+04 -0.14364200167E+04 -0.11894531782E+04  0.22474631297E+04  0.00000000000E+00 0.  1.
         22    1    1    2    0    0 -0.16918416599E+04  0.19060830379E+04  0.12902090952E+04  0.28565924208E+04  0.00000000000E+00 0. -1.
<mgrwt>
<rscale>  0 0.58278235E+04</rscale>
<asrwt>0</asrwt>
<pdfrwt beam="1">  1        1 0.42988522E+00 0.58278235E+04</pdfrwt>
<pdfrwt beam="2">  1       -1 0.46749133E+00 0.58278235E+04</pdfrwt>
<totfact> 0.14054244E-03</totfact>
</mgrwt>
</event>
<event>
 6    1  0.1568961E-005  0.5573387E+04  0.7818608E-02  0.7745671E-01
         -2   -1    0    0    0  501 -0.00000000000E+00  0.00000000000E+00  0.23243683944E+04  0.23243683944E+04  0.00000000000E+00 0.  1.
          2   -1    0    0  501    0  0.00000000000E+00 -0.00000000000E+00 -0.33409762468E+04  0.33409762468E+04  0.00000000000E+00 0. -1.
         23    2    1    2    0    0  0.21613033849E+04  0.80331441940E+03  0.10809715328E+04  0.25482328923E+04  0.91896900919E+02 0.  0.
         13    1    3    3    0    0  0.88941182377E+03  0.36033823226E+03  0.48925100396E+03  0.10771553178E+04  0.00000000000E+00 0.  1.
        -13    1    3    3    0    0  0.12718915612E+04  0.44297618715E+03  0.59172052888E+03  0.14710775745E+04  0.00000000000E+00 0. -1.
         22    1    1    2    0    0 -0.21613033849E+04 -0.80331441940E+03 -0.20975793852E+04  0.31171117489E+04  0.00000000000E+00 0. -1.
<mgrwt>
<rscale>  0 0.55733866E+04</rscale>
<asrwt>0</asrwt>
<pdfrwt beam="1">  1        2 0.51399634E+00 0.55733866E+04</pdfrwt>
<pdfrwt beam="2">  1       -2 0.35759514E+00 0.55733866E+04</pdfrwt>
<totfact> 0.10120256E-02</totfact>
</mgrwt>
</event>
<event>
 6    1  0.1568961E-005  0.3295318E+04  0.7818608E-02  0.8164088E-01
          1   -1    0    0  501    0  0.00000000000E+00  0.00000000000E+00  0.20849252974E+04  0.20849252974E+04  0.00000000000E+00 0. -1.
         -1   -1    0    0    0  501 -0.00000000000E+00 -0.00000000000E+00 -0.13020997841E+04  0.13020997841E+04  0.00000000000E+00 0.  1.
         23    2    1    2    0    0 -0.10929812071E+02  0.95862295449E+03 -0.98403880065E+03  0.13768293365E+04  0.90825276703E+02 0.  0.
         11    1    3    3    0    0  0.25573121101E+02  0.20835109899E+03 -0.25181331287E+03  0.32783244122E+03  0.00000000000E+00 0. -1.
        -11    1    3    3    0    0 -0.36502933172E+02  0.75027185550E+03 -0.73222548778E+03  0.10489968952E+04  0.00000000000E+00 0.  1.
         22    1    1    2    0    0  0.10929812071E+02 -0.95862295449E+03  0.17668643139E+04  0.20101957450E+04  0.00000000000E+00 0. -1.
<mgrwt>
<rscale>  0 0.32953184E+04</rscale>
<asrwt>0</asrwt>
<pdfrwt beam="1">  1        1 0.32075774E+00 0.32953184E+04</pdfrwt>
<pdfrwt beam="2">  1       -1 0.20032304E+00 0.32953184E+04</pdfrwt>
<totfact> 0.32427061E-01</totfact>
</mgrwt>
</event>
<event>
 6    1  0.1568961E-005  0.1965816E+04  0.7818608E-02  0.8622772E-01
          1   -1    0    0  501    0  0.00000000000E+00  0.00000000000E+00  0.41434513746E+04  0.41434513746E+04  0.00000000000E+00 0. -1.
         -1   -1    0    0    0  501 -0.00000000000E+00 -0.00000000000E+00 -0.23316505089E+03  0.23316505089E+03  0.00000000000E+00 0.  1.
         23    2    1    2    0    0 -0.10878767953E+03  0.37827950381E+03  0.39594067288E+04  0.39799516345E+04  0.90461191091E+02 0.  0.
         11    1    3    3    0    0  0.28646485897E+01  0.80606187382E+02  0.10917429560E+04  0.10947183408E+04  0.00000000000E+00 0.  1.
        -11    1    3    3    0    0 -0.11165232812E+03  0.29767331643E+03  0.28676637727E+04  0.28852332937E+04  0.00000000000E+00 0. -1.
         22    1    1    2    0    0  0.10878767953E+03 -0.37827950381E+03 -0.49120405039E+02  0.39666479099E+03  0.00000000000E+00 0.  1.
<mgrwt>
<rscale>  0 0.19658159E+04</rscale>
<asrwt>0</asrwt>
<pdfrwt beam="1">  1        1 0.63745400E+00 0.19658159E+04</pdfrwt>
<pdfrwt beam="2">  1       -1 0.35871549E-01 0.19658159E+04</pdfrwt>
<totfact> 0.49772833E-01</totfact>
</mgrwt>
</event>
<event>
 6    1  0.1568961E-005  0.9552270E+03  0.7818608E-02  0.9359062E-01
         -1   -1    0    0    0  501 -0.00000000000E+00  0.00000000000E+00  0.24674815148E+03  0.24674815148E+03  0.00000000000E+00 0.  1.
          1   -1    0    0  501    0  0.00000000000E+00 -0.00000000000E+00 -0.92448379551E+03  0.92448379551E+03  0.00000000000E+00 0. -1.
         23    2    1    2    0    0  0.29035235057E+02 -0.32318635063E+03  0.80260218221E+02  0.34670166294E+03  0.92021075588E+02 0.  0.
         11    1    3    3    0    0 -0.63763476956E+01 -0.28519060700E+03  0.65108565945E+02  0.29259778791E+03  0.00000000000E+00 0. -1.
        -11    1    3    3    0    0  0.35411582753E+02 -0.37995743627E+02  0.15151652276E+02  0.54103875032E+02  0.00000000000E+00 0.  1.
         22    1    1    2    0    0 -0.29035235057E+02  0.32318635063E+03 -0.75799586226E+03  0.82453028404E+03  0.00000000000E+00 0. -1.
<mgrwt>
<rscale>  0 0.95522703E+03</rscale>
<asrwt>0</asrwt>
<pdfrwt beam="1">  1        1 0.14222828E+00 0.95522703E+03</pdfrwt>
<pdfrwt beam="2">  1       -1 0.37961254E-01 0.95522703E+03</pdfrwt>
<totfact> 0.11691191E+02</totfact>
</mgrwt>
</event>
<event>
 6    1  0.3070023E-005  0.2831252E+04  0.7818608E-02  0.8293631E-01
          2   -1    0    0  501    0  0.00000000000E+00  0.00000000000E+00  0.31238307990E+04  0.31238307990E+04  0.00000000000E+00 0. -1.
         -2   -1    0    0    0  501 -0.00000000000E+00 -0.00000000000E+00 -0.64151902631E+03  0.64151902631E+03  0.00000000000E+00 0.  1.
         23    2    1    2    0    0 -0.17084316213E+03  0.13184734776E+04  0.18834186874E+04  0.23071891261E+04  0.91082456795E+02 0.  0.
         11    1    3    3    0    0 -0.10745396824E+03  0.84594281860E+03  0.11312260852E+04  0.14166291199E+04  0.00000000000E+00 0. -1.
        -11    1    3    3    0    0 -0.63389193887E+02  0.47253065903E+03  0.75219260225E+03  0.89056000612E+03  0.00000000000E+00 0.  1.
         22    1    1    2    0    0  0.17084316213E+03 -0.13184734776E+04  0.59889308525E+03  0.14581606992E+04  0.00000000000E+00 0.  1.
<mgrwt>
<rscale>  0 0.28312519E+04</rscale>
<asrwt>0</asrwt>
<pdfrwt beam="1">  1        2 0.48058934E+00 0.28312519E+04</pdfrwt>
<pdfrwt beam="2">  1       -2 0.98695237E-01 0.28312519E+04</pdfrwt>
<totfact> 0.10739419E+00</totfact>
</mgrwt>
</event>
<event>
 6    1  0.1568961E-005  0.9824765E+03  0.7818608E-02  0.9327976E-01
          1   -1    0    0  501    0  0.00000000000E+00  0.00000000000E+00  0.96979917834E+03  0.96979917834E+03  0.00000000000E+00 0. -1.
         -1   -1    0    0    0  501 -0.00000000000E+00 -0.00000000000E+00 -0.24882987556E+03  0.24882987556E+03  0.00000000000E+00 0.  1.
         23    2    1    2    0    0  0.30221151290E+03  0.78078682256E+02 -0.10284872930E+03  0.33766127405E+03  0.77519002294E+02 0.  0.
         11    1    3    3    0    0  0.25299356901E+02  0.20165280380E+02  0.87927440166E+01  0.33526233605E+02  0.00000000000E+00 0.  1.
        -11    1    3    3    0    0  0.27691215600E+03  0.57913401876E+02 -0.11164147332E+03  0.30413504044E+03  0.00000000000E+00 0. -1.
         22    1    1    2    0    0 -0.30221151290E+03 -0.78078682256E+02  0.82381803208E+03  0.88096777985E+03  0.00000000000E+00 0. -1.
<mgrwt>
<rscale>  0 0.98247648E+03</rscale>
<asrwt>0</asrwt>
<pdfrwt beam="1">  1        1 0.14919987E+00 0.98247648E+03</pdfrwt>
<pdfrwt beam="2">  1       -1 0.38281520E-01 0.98247648E+03</pdfrwt>
<totfact> 0.10574892E+02</totfact>
</mgrwt>
</event>
<event>
 6    1  0.1568961E-005  0.3214348E+04  0.7818608E-02  0.8185038E-01
          1   -1    0    0  501    0  0.00000000000E+00  0.00000000000E+00  0.26154130672E+04  0.26154130672E+04  0.00000000000E+00 0. -1.
         -1   -1    0    0    0  501 -0.00000000000E+00 -0.00000000000E+00 -0.98761021663E+03  0.98761021663E+03  0.00000000000E+00 0.  1.
         23    2    1    2    0    0  0.83894626302E+03  0.13636345997E+04  0.67494884871E+03  0.17398912696E+04  0.91299111609E+02 0.  0.
         11    1    3    3    0    0  0.55684087690E+03  0.97130094564E+03  0.44584547355E+03  0.12051039272E+04  0.00000000000E+00 0. -1.
        -11    1    3    3    0    0  0.28210538611E+03  0.39233365406E+03  0.22910337515E+03  0.53478734231E+03  0.00000000000E+00 0.  1.
         22    1    1    2    0    0 -0.83894626302E+03 -0.13636345997E+04  0.95285400183E+03  0.18631320143E+04  0.00000000000E+00 0. -1.
<mgrwt>
<rscale>  0 0.32143482E+04</rscale>
<asrwt>0</asrwt>
<pdfrwt beam="1">  1        1 0.40237124E+00 0.32143482E+04</pdfrwt>
<pdfrwt beam="2">  1       -1 0.15194003E+00 0.32143482E+04</pdfrwt>
<totfact> 0.31678646E-01</totfact>
</mgrwt>
</event>
<event>
 6    1  0.1568961E-005  0.2273531E+04  0.7818608E-02  0.8488431E-01
         -2   -1    0    0    0  501 -0.00000000000E+00  0.00000000000E+00  0.10049750694E+04  0.10049750694E+04  0.00000000000E+00 0.  1.
          2   -1    0    0  501    0  0.00000000000E+00 -0.00000000000E+00 -0.12858386211E+04  0.12858386211E+04  0.00000000000E+00 0. -1.
         23    2    1    2    0    0 -0.44876393013E+03  0.18829989596E+02 -0.11910011706E+04  0.12758781660E+04  0.87393778400E+02 0.  0.
         13    1    3    3    0    0 -0.20953571922E+03 -0.15643499067E+02 -0.65561406541E+03  0.68846186492E+03  0.00000000000E+00 0. -1.
        -13    1    3    3    0    0 -0.23922821091E+03  0.34473488664E+02 -0.53538710520E+03  0.58741630104E+03  0.00000000000E+00 0.  1.
         22    1    1    2    0    0  0.44876393013E+03 -0.18829989596E+02  0.91013761890E+03  0.10149355245E+04  0.00000000000E+00 0.  1.
<mgrwt>
<rscale>  0 0.22735310E+04</rscale>
<asrwt>0</asrwt>
<pdfrwt beam="1">  1        2 0.19782133E+00 0.22735310E+04</pdfrwt>
<pdfrwt beam="2">  1       -2 0.15461155E+00 0.22735310E+04</pdfrwt>
<totfact> 0.42315957E+00</totfact>
</mgrwt>
</event>
<event>
 6    1  0.1568961E-005  0.1509357E+04  0.7818608E-02  0.8878255E-01
          1   -1    0    0  501    0  0.00000000000E+00  0.00000000000E+00  0.11933888144E+04  0.11933888144E+04  0.00000000000E+00 0. -1.
         -1   -1    0    0    0  501 -0.00000000000E+00 -0.00000000000E+00 -0.47724550717E+03  0.47724550717E+03  0.00000000000E+00 0.  1.
         23    2    1    2    0    0 -0.23588743527E+03 -0.42175136407E+03  0.99728615865E+03  0.11115650967E+04  0.86488073023E+02 0.  0.
         13    1    3    3    0    0 -0.21098194292E+03 -0.30143273675E+03  0.75779301020E+03  0.84239261709E+03  0.00000000000E+00 0. -1.
        -13    1    3    3    0    0 -0.24905492354E+02 -0.12031862732E+03  0.23949314845E+03  0.26917247962E+03  0.00000000000E+00 0.  1.
         22    1    1    2    0    0  0.23588743527E+03  0.42175136407E+03 -0.28114285147E+03  0.55906922482E+03  0.00000000000E+00 0.  1.
<mgrwt>
<rscale>  0 0.15093568E+04</rscale>
<asrwt>0</asrwt>
<pdfrwt beam="1">  1        1 0.18359828E+00 0.15093568E+04</pdfrwt>
<pdfrwt beam="2">  1       -1 0.73422386E-01 0.15093568E+04</pdfrwt>
<totfact> 0.19523879E+01</totfact>
</mgrwt>
</event>
<event>
 6    1  0.1662524E-005  0.2943503E+04  0.7818608E-02  0.8260050E-01
         -1   -1    0    0    0  501 -0.00000000000E+00  0.00000000000E+00  0.15882209818E+04  0.15882209818E+04  0.00000000000E+00 0.  1.
          1   -1    0    0  501    0  0.00000000000E+00 -0.00000000000E+00 -0.13638230775E+04  0.13638230775E+04  0.00000000000E+00 0. -1.
         23    2    1    2    0    0 -0.18833287157E+03 -0.12311799975E+04  0.89601145076E+03  0.15370040554E+04  0.90947729757E+02 0.  0.
         13    1    3    3    0    0 -0.10550855207E+03 -0.81226684854E+03  0.63634638441E+03  0.10372300655E+04  0.00000000000E+00 0.  1.
        -13    1    3    3    0    0 -0.82824319504E+02 -0.41891314898E+03  0.25966506634E+03  0.49977398989E+03  0.00000000000E+00 0. -1.
         22    1    1    2    0    0  0.18833287157E+03  0.12311799975E+04 -0.67161354645E+03  0.14150400039E+04  0.00000000000E+00 0. -1.
<mgrwt>
<rscale>  0 0.29435030E+04</rscale>
<asrwt>0</asrwt>
<pdfrwt beam="1">  1        1 0.20981893E+00 0.29435030E+04</pdfrwt>
<pdfrwt beam="2">  1       -1 0.24434169E+00 0.29435030E+04</pdfrwt>
<totfact> 0.52901832E-01</totfact>
</mgrwt>
</event>
<event>
 6    1  0.1568961E-005  0.3756696E+04  0.7818608E-02  0.8055512E-01
         -2   -1    0    0    0  501 -0.00000000000E+00  0.00000000000E+00  0.10756580303E+04  0.10756580303E+04  0.00000000000E+00 0.  1.
          2   -1    0    0  501    0  0.00000000000E+00 -0.00000000000E+00 -0.32800301463E+04  0.32800301463E+04  0.00000000000E+00 0. -1.
         23    2    1    2    0    0 -0.16352441381E+04 -0.92104224128E+03 -0.11506386081E+04  0.22033182021E+04  0.91102643318E+02 0.  0.
         11    1    3    3    0    0 -0.14342248770E+04 -0.77498229743E+03 -0.10117900488E+04  0.19186760180E+04  0.00000000000E+00 0.  1.
        -11    1    3    3    0    0 -0.20101926116E+03 -0.14605994385E+03 -0.13884855929E+03  0.28464218410E+03  0.00000000000E+00 0. -1.
         22    1    1    2    0    0  0.16352441381E+04  0.92104224128E+03 -0.10537335079E+04  0.21523699745E+04  0.00000000000E+00 0.  1.
<mgrwt>
<rscale>  0 0.37566958E+04</rscale>
<asrwt>0</asrwt>
<pdfrwt beam="1">  1        2 0.50462002E+00 0.37566958E+04</pdfrwt>
<pdfrwt beam="2">  1       -2 0.16548585E+00 0.37566958E+04</pdfrwt>
<totfact> 0.21197167E-01</totfact>
</mgrwt>
</event>
<event>
 6    1  0.1568961E-005  0.2968334E+04  0.7818608E-02  0.8252831E-01
          2   -1    0    0  501    0  0.00000000000E+00  0.00000000000E+00  0.70168253954E+03  0.70168253954E+03  0.00000000000E+00 0. -1.
         -2   -1    0    0    0  501 -0.00000000000E+00 -0.00000000000E+00 -0.31392430286E+04  0.31392430286E+04  0.00000000000E+00 0.  1.
         23    2    1    2    0    0  0.13374274300E+04  0.22306025087E+03 -0.44355365636E+03  0.14295916521E+04  0.92327891971E+02 0.  0.
         13    1    3    3    0    0  0.56222192990E+03  0.12470249571E+03 -0.15258715387E+03  0.59575754332E+03  0.00000000000E+00 0.  1.
        -13    1    3    3    0    0  0.77520550008E+03  0.98357755159E+02 -0.29096650249E+03  0.83383410876E+03  0.00000000000E+00 0. -1.
         22    1    1    2    0    0 -0.13374274300E+04 -0.22306025087E+03 -0.19940068327E+04  0.24113339161E+04  0.00000000000E+00 0.  1.
<mgrwt>
<rscale>  0 0.29683342E+04</rscale>
<asrwt>0</asrwt>
<pdfrwt beam="1">  1        2 0.10795116E+00 0.29683342E+04</pdfrwt>
<pdfrwt beam="2">  1       -2 0.48296047E+00 0.29683342E+04</pdfrwt>
<totfact> 0.73912494E-02</totfact>
</mgrwt>
</event>
<event>
 6    1  0.1568961E-005  0.1896930E+04  0.7818608E-02  0.8656386E-01
         -1   -1    0    0    0  501 -0.00000000000E+00  0.00000000000E+00  0.52086088513E+03  0.52086088513E+03  0.00000000000E+00 0.  1.
          1   -1    0    0  501    0  0.00000000000E+00 -0.00000000000E+00 -0.17271143022E+04  0.17271143022E+04  0.00000000000E+00 0. -1.
         23    2    1    2    0    0 -0.80311660415E+03  0.48195785781E+03 -0.44521881956E+03  0.10411391110E+04  0.92039092527E+02 0.  0.
         13    1    3    3    0    0 -0.18922974432E+03  0.13136192293E+03 -0.15084979449E+03  0.27535343003E+03  0.00000000000E+00 0. -1.
        -13    1    3    3    0    0 -0.61388685983E+03  0.35059593488E+03 -0.29436902507E+03  0.76578568095E+03  0.00000000000E+00 0.  1.
         22    1    1    2    0    0  0.80311660415E+03 -0.48195785781E+03 -0.76103459751E+03  0.12068360764E+04  0.00000000000E+00 0. -1.
<mgrwt>
<rscale>  0 0.18969305E+04</rscale>
<asrwt>0</asrwt>
<pdfrwt beam="1">  1        1 0.26570989E+00 0.18969305E+04</pdfrwt>
<pdfrwt beam="2">  1       -1 0.80132443E-01 0.18969305E+04</pdfrwt>
<totfact> 0.66433471E+00</totfact>
</mgrwt>
</event>
<event>
 6    1  0.1568961E-005  0.1930144E+04  0.7818608E-02  0.8639996E-01
          2   -1    0    0  501    0  0.00000000000E+00  0.00000000000E+00  0.22420479322E+04  0.22420479322E+04  0.00000000000E+00 0. -1.
         -2   -1    0    0    0  501 -0.00000000000E+00 -0.00000000000E+00 -0.41540764116E+03  0.41540764116E+03  0.00000000000E+00 0.  1.
         23    2    1    2    0    0  0.51373288464E+03 -0.65400423125E+03  0.24723147374E+03  0.87246951642E+03  0.91851206909E+02 0.  0.
         13    1    3    3    0    0  0.27647600055E+03 -0.41764630448E+03  0.12780266427E+03  0.51691482424E+03  0.00000000000E+00 0.  1.
        -13    1    3    3    0    0  0.23725688409E+03 -0.23635792678E+03  0.11942880947E+03  0.35555469218E+03  0.00000000000E+00 0. -1.
         22    1    1    2    0    0 -0.51373288464E+03  0.65400423125E+03  0.15794088173E+04  0.17849860569E+04  0.00000000000E+00 0. -1.
<mgrwt>
<rscale>  0 0.19301439E+04</rscale>
<asrwt>0</asrwt>
<pdfrwt beam="1">  1        2 0.34493045E+00 0.19301439E+04</pdfrwt>
<pdfrwt beam="2">  1       -2 0.63908869E-01 0.19301439E+04</pdfrwt>
<totfact> 0.10344280E+01</totfact>
</mgrwt>
</event>
<event>
 6    1  0.1568961E-005  0.1907475E+04  0.7818608E-02  0.8651145E-01
         -2   -1    0    0    0  501 -0.00000000000E+00  0.00000000000E+00  0.89603777298E+03  0.89603777298E+03  0.00000000000E+00 0. -1.
          2   -1    0    0  501    0  0.00000000000E+00 -0.00000000000E+00 -0.10151523436E+04  0.10151523436E+04  0.00000000000E+00 0.  1.
         23    2    1    2    0    0  0.31310127769E+03 -0.56936961771E+03  0.63685430346E+03  0.91434353348E+03  0.90700174912E+02 0.  0.
         11    1    3    3    0    0  0.37042019587E+02 -0.13685713033E+03  0.11580333566E+03  0.18306391749E+03  0.00000000000E+00 0.  1.
        -11    1    3    3    0    0  0.27605925811E+03 -0.43251248738E+03  0.52105096780E+03  0.73127961600E+03  0.00000000000E+00 0. -1.
         22    1    1    2    0    0 -0.31310127769E+03  0.56936961771E+03 -0.75596887406E+03  0.99684658309E+03  0.00000000000E+00 0.  1.
<mgrwt>
<rscale>  0 0.19074746E+04</rscale>
<asrwt>0</asrwt>
<pdfrwt beam="1">  1        2 0.15617728E+00 0.19074746E+04</pdfrwt>
<pdfrwt beam="2">  1       -2 0.13785197E+00 0.19074746E+04</pdfrwt>
<totfact> 0.86191356E+00</totfact>
</mgrwt>
</event>
<event>
 6    1  0.1568961E-005  0.1385724E+04  0.7818608E-02  0.8964217E-01
         -2   -1    0    0    0  501 -0.00000000000E+00  0.00000000000E+00  0.18523002576E+03  0.18523002576E+03  0.00000000000E+00 0.  1.
          2   -1    0    0  501    0  0.00000000000E+00 -0.00000000000E+00 -0.25916859690E+04  0.25916859690E+04  0.00000000000E+00 0. -1.
         23    2    1    2    0    0 -0.39193648202E+03  0.33105825722E+03 -0.21328952433E+04  0.21954959812E+04  0.88015389777E+02 0.  0.
         11    1    3    3    0    0 -0.17976546859E+03  0.10554844655E+03 -0.75587180563E+03  0.78409073762E+03  0.00000000000E+00 0. -1.
        -11    1    3    3    0    0 -0.21217101343E+03  0.22550981067E+03 -0.13770234377E+04  0.14114052436E+04  0.00000000000E+00 0.  1.
         22    1    1    2    0    0  0.39193648202E+03 -0.33105825722E+03 -0.27356069990E+03  0.58142001354E+03  0.00000000000E+00 0.  1.
<mgrwt>
<rscale>  0 0.13857244E+04</rscale>
<asrwt>0</asrwt>
<pdfrwt beam="1">  1        2 0.39872093E+00 0.13857244E+04</pdfrwt>
<pdfrwt beam="2">  1       -2 0.28496926E-01 0.13857244E+04</pdfrwt>
<totfact> 0.33992897E+01</totfact>
</mgrwt>
</event>
<event>
 6    1  0.1568961E-005  0.9273267E+03  0.7818608E-02  0.9392052E-01
         -2   -1    0    0    0  501 -0.00000000000E+00  0.00000000000E+00  0.31932545588E+03  0.31932545588E+03  0.00000000000E+00 0.  1.
          2   -1    0    0  501    0  0.00000000000E+00 -0.00000000000E+00 -0.67324320245E+03  0.67324320245E+03  0.00000000000E+00 0. -1.
         23    2    1    2    0    0  0.12062869399E+03 -0.27766737383E+03  0.19128271567E+03  0.36895499883E+03  0.88815885635E+02 0.  0.
         13    1    3    3    0    0 -0.10584798129E+02 -0.33141779672E+02  0.39554080488E+02  0.52677706808E+02  0.00000000000E+00 0.  1.
        -13    1    3    3    0    0  0.13121349212E+03 -0.24452559416E+03  0.15172863518E+03  0.31627729202E+03  0.00000000000E+00 0. -1.
         22    1    1    2    0    0 -0.12062869399E+03  0.27766737383E+03 -0.54520046224E+03  0.62361365951E+03  0.00000000000E+00 0. -1.
<mgrwt>
<rscale>  0 0.92732668E+03</rscale>
<asrwt>0</asrwt>
<pdfrwt beam="1">  1        2 0.10357588E+00 0.92732668E+03</pdfrwt>
<pdfrwt beam="2">  1       -2 0.49126993E-01 0.92732668E+03</pdfrwt>
<totfact> 0.16915637E+02</totfact>
</mgrwt>
</event>
<event>
 6    1  0.1568961E-005  0.1092925E+04  0.7818608E-02  0.9212115E-01
         -2   -1    0    0    0  501 -0.00000000000E+00  0.00000000000E+00  0.14186925654E+03  0.14186925654E+03  0.00000000000E+00 0. -1.
          2   -1    0    0  501    0  0.00000000000E+00 -0.00000000000E+00 -0.21049058335E+04  0.21049058335E+04  0.00000000000E+00 0.  1.
         23    2    1    2    0    0  0.43178911090E+03 -0.17959316058E+03 -0.42226239433E+03  0.63659478291E+03  0.90839684889E+02 0.  0.
         11    1    3    3    0    0  0.21134089365E+03 -0.12997421148E+03 -0.18957651488E+03  0.31224593508E+03  0.00000000000E+00 0. -1.
        -11    1    3    3    0    0  0.22044821725E+03 -0.49618949100E+02 -0.23268587945E+03  0.32434884784E+03  0.00000000000E+00 0.  1.
         22    1    1    2    0    0 -0.43178911090E+03  0.17959316058E+03 -0.15407741826E+04  0.16101803071E+04  0.00000000000E+00 0.  1.
<mgrwt>
<rscale>  0 0.10929253E+04</rscale>
<asrwt>0</asrwt>
<pdfrwt beam="1">  1        2 0.32383166E+00 0.10929253E+04</pdfrwt>
<pdfrwt beam="2">  1       -2 0.21826040E-01 0.10929253E+04</pdfrwt>
<totfact> 0.10656500E+02</totfact>
</mgrwt>
</event>
<event>
 6    1  0.1568961E-005  0.1375290E+04  0.7818608E-02  0.8971901E-01
          2   -1    0    0  501    0  0.00000000000E+00  0.00000000000E+00  0.14408464122E+04  0.14408464122E+04  0.00000000000E+00 0. -1.
         -2   -1    0    0    0  501 -0.00000000000E+00 -0.00000000000E+00 -0.32817920287E+03  0.32817920287E+03  0.00000000000E+00 0.  1.
         23    2    1    2    0    0  0.28093549926E+03 -0.31636764373E+03 -0.13340929567E+03  0.45307732694E+03  0.92020558956E+02 0.  0.
         13    1    3    3    0    0  0.18260408626E+03 -0.18009130383E+03 -0.12371358518E+03  0.28474933045E+03  0.00000000000E+00 0. -1.
        -13    1    3    3    0    0  0.98331413003E+02 -0.13627633990E+03 -0.96957104887E+01  0.16832799649E+03  0.00000000000E+00 0.  1.
         22    1    1    2    0    0 -0.28093549926E+03  0.31636764373E+03  0.12460765050E+04  0.13159482882E+04  0.00000000000E+00 0. -1.
<mgrwt>
<rscale>  0 0.13752903E+04</rscale>
<asrwt>0</asrwt>
<pdfrwt beam="1">  1        2 0.22166867E+00 0.13752903E+04</pdfrwt>
<pdfrwt beam="2">  1       -2 0.50489109E-01 0.13752903E+04</pdfrwt>
<totfact> 0.49590752E+01</totfact>
</mgrwt>
</event>
<event>
 6    1  0.1580650E-005  0.2440428E+04  0.7818608E-02  0.8424521E-01
          2   -1    0    0  501    0  0.00000000000E+00  0.00000000000E+00  0.19294115836E+04  0.19294115836E+04  0.00000000000E+00 0. -1.
         -2   -1    0    0    0  501 -0.00000000000E+00 -0.00000000000E+00 -0.77169757319E+03  0.77169757319E+03  0.00000000000E+00 0.  1.
         23    2    1    2    0    0  0.70110496234E+03 -0.12959747221E+03  0.16733546284E+04  0.18212063667E+04  0.91286608218E+02 0.  0.
         11    1    3    3    0    0  0.39211083526E+03 -0.61415587209E+02  0.81806053149E+03  0.90925563768E+03  0.00000000000E+00 0.  1.
        -11    1    3    3    0    0  0.30899412708E+03 -0.68181885004E+02  0.85529409690E+03  0.91195072905E+03  0.00000000000E+00 0. -1.
         22    1    1    2    0    0 -0.70110496234E+03  0.12959747221E+03 -0.51564061799E+03  0.87990279005E+03  0.00000000000E+00 0.  1.
<mgrwt>
<rscale>  0 0.24404280E+04</rscale>
<asrwt>0</asrwt>
<pdfrwt beam="1">  1        2 0.29683255E+00 0.24404280E+04</pdfrwt>
<pdfrwt beam="2">  1       -2 0.11872270E+00 0.24404280E+04</pdfrwt>
<totfact> 0.35743115E+00</totfact>
</mgrwt>
</event>
<event>
 6    1  0.1568961E-005  0.2360596E+04  0.7818608E-02  0.8454405E-01
          2   -1    0    0  501    0  0.00000000000E+00  0.00000000000E+00  0.79231536855E+03  0.79231536855E+03  0.00000000000E+00 0. -1.
         -2   -1    0    0    0  501 -0.00000000000E+00 -0.00000000000E+00 -0.17582686211E+04  0.17582686211E+04  0.00000000000E+00 0.  1.
         23    2    1    2    0    0 -0.82255061355E+02 -0.89691490403E+03 -0.13049231456E+04  0.15882312328E+04  0.91824793191E+02 0.  0.
         13    1    3    3    0    0 -0.46258837917E+01 -0.30028847481E+03 -0.37157656990E+03  0.47776951996E+03  0.00000000000E+00 0.  1.
        -13    1    3    3    0    0 -0.77629177563E+02 -0.59662642923E+03 -0.93334657571E+03  0.11104617128E+04  0.00000000000E+00 0. -1.
         22    1    1    2    0    0  0.82255061355E+02  0.89691490403E+03  0.33896989308E+03  0.96235275685E+03  0.00000000000E+00 0. -1.
<mgrwt>
<rscale>  0 0.23605959E+04</rscale>
<asrwt>0</asrwt>
<pdfrwt beam="1">  1        2 0.12189467E+00 0.23605959E+04</pdfrwt>
<pdfrwt beam="2">  1       -2 0.27050287E+00 0.23605959E+04</pdfrwt>
<totfact> 0.15148205E+00</totfact>
</mgrwt>
</event>
<event>
 6    1  0.1568961E-005  0.1473472E+04  0.7818608E-02  0.8902288E-01
         -2   -1    0    0    0  501 -0.00000000000E+00  0.00000000000E+00  0.20652907568E+03  0.20652907568E+03  0.00000000000E+00 0.  1.
          2   -1    0    0  501    0  0.00000000000E+00 -0.00000000000E+00 -0.26281030421E+04  0.26281030421E+04  0.00000000000E+00 0. -1.
         23    2    1    2    0    0  0.71754747517E+03  0.50088139030E+02 -0.93342143748E+03  0.11817615390E+04  0.88890687571E+02 0.  0.
         11    1    3    3    0    0  0.51636248091E+03  0.34476871783E+02 -0.73366927731E+03  0.89782485756E+03  0.00000000000E+00 0. -1.
        -11    1    3    3    0    0  0.20118499426E+03  0.15611267248E+02 -0.19975216017E+03  0.28393668144E+03  0.00000000000E+00 0.  1.
         22    1    1    2    0    0 -0.71754747517E+03 -0.50088139030E+02 -0.14881525290E+04  0.16528705788E+04  0.00000000000E+00 0. -1.
<mgrwt>
<rscale>  0 0.14734717E+04</rscale>
<asrwt>0</asrwt>
<pdfrwt beam="1">  1        2 0.40432356E+00 0.14734717E+04</pdfrwt>
<pdfrwt beam="2">  1       -2 0.31773703E-01 0.14734717E+04</pdfrwt>
<totfact> 0.26214971E+01</totfact>
</mgrwt>
</event>
<event>
 6    1  0.1568961E-005  0.1593229E+04  0.7818608E-02  0.8824718E-01
         -2   -1    0    0    0  501 -0.00000000000E+00  0.00000000000E+00  0.55608128644E+03  0.55608128644E+03  0.00000000000E+00 0.  1.
          2   -1    0    0  501    0  0.00000000000E+00 -0.00000000000E+00 -0.11411911349E+04  0.11411911349E+04  0.00000000000E+00 0. -1.
         23    2    1    2    0    0 -0.47904916964E+03 -0.14740852334E+03  0.36275593046E+03  0.62504720501E+03  0.88739865441E+02 0.  0.
         11    1    3    3    0    0 -0.25706490660E+03 -0.39753127024E+02  0.15726102703E+03  0.30396333321E+03  0.00000000000E+00 0.  1.
        -11    1    3    3    0    0 -0.22198426304E+03 -0.10765539631E+03  0.20549490343E+03  0.32108387179E+03  0.00000000000E+00 0. -1.
         22    1    1    2    0    0  0.47904916964E+03  0.14740852334E+03 -0.94786577895E+03  0.10722252164E+04  0.00000000000E+00 0. -1.
<mgrwt>
<rscale>  0 0.15932295E+04</rscale>
<asrwt>0</asrwt>
<pdfrwt beam="1">  1        2 0.17556786E+00 0.15932295E+04</pdfrwt>
<pdfrwt beam="2">  1       -2 0.85550968E-01 0.15932295E+04</pdfrwt>
<totfact> 0.23417933E+01</totfact>
</mgrwt>
</event>
<event>
 6    1  0.1568961E-005  0.1835005E+04  0.7818608E-02  0.8687902E-01
         -1   -1    0    0    0  501 -0.00000000000E+00  0.00000000000E+00  0.51349220163E+03  0.51349220163E+03  0.00000000000E+00 0.  1.
          1   -1    0    0  501    0  0.00000000000E+00 -0.00000000000E+00 -0.16393844046E+04  0.16393844046E+04  0.00000000000E+00 0. -1.
         23    2    1    2    0    0 -0.22074531716E+03  0.36635127707E+03  0.38500173446E+03  0.58260839875E+03  0.90909061685E+02 0.  0.
         11    1    3    3    0    0 -0.18668425275E+03  0.22743892752E+03  0.25883828159E+03  0.39188867296E+03  0.00000000000E+00 0.  1.
        -11    1    3    3    0    0 -0.34061064414E+02  0.13891234955E+03  0.12616345287E+03  0.19071972579E+03  0.00000000000E+00 0. -1.
         22    1    1    2    0    0  0.22074531716E+03 -0.36635127707E+03 -0.15108939374E+04  0.15702682075E+04  0.00000000000E+00 0. -1.
<mgrwt>
<rscale>  0 0.18350053E+04</rscale>
<asrwt>0</asrwt>
<pdfrwt beam="1">  1        1 0.25221298E+00 0.18350053E+04</pdfrwt>
<pdfrwt beam="2">  1       -1 0.78998800E-01 0.18350053E+04</pdfrwt>
<totfact> 0.79034343E+00</totfact>
</mgrwt>
</event>
<event>
 6    1  0.1568961E-005  0.1307210E+04  0.7818608E-02  0.9023867E-01
          2   -1    0    0  501    0  0.00000000000E+00  0.00000000000E+00  0.14412559729E+04  0.14412559729E+04  0.00000000000E+00 0. -1.
         -2   -1    0    0    0  501 -0.00000000000E+00 -0.00000000000E+00 -0.29640767269E+03  0.29640767269E+03  0.00000000000E+00 0.  1.
         23    2    1    2    0    0 -0.57985633684E+03  0.10619649528E+02  0.96720604785E+03  0.11311136327E+04  0.87088247084E+02 0.  0.
         11    1    3    3    0    0 -0.72434475210E+02  0.21452725711E+02  0.17039199821E+03  0.18638778311E+03  0.00000000000E+00 0. -1.
        -11    1    3    3    0    0 -0.50742186163E+03 -0.10833076183E+02  0.79681404964E+03  0.94472584960E+03  0.00000000000E+00 0.  1.
         22    1    1    2    0    0  0.57985633684E+03 -0.10619649528E+02  0.17764225240E+03  0.60655001291E+03  0.00000000000E+00 0.  1.
<mgrwt>
<rscale>  0 0.13072097E+04</rscale>
<asrwt>0</asrwt>
<pdfrwt beam="1">  1        2 0.22173168E+00 0.13072097E+04</pdfrwt>
<pdfrwt beam="2">  1       -2 0.45601181E-01 0.13072097E+04</pdfrwt>
<totfact> 0.61211887E+01</totfact>
</mgrwt>
</event>
<event>
 6    1  0.1568961E-005  0.1600011E+04  0.7818608E-02  0.8820541E-01
          1   -1    0    0  501    0  0.00000000000E+00  0.00000000000E+00  0.11659113059E+04  0.11659113059E+04  0.00000000000E+00 0. -1.
         -1   -1    0    0    0  501 -0.00000000000E+00 -0.00000000000E+00 -0.54893417022E+03  0.54893417022E+03  0.00000000000E+00 0.  1.
         23    2    1    2    0    0  0.31670369090E+03  0.10376591339E+03 -0.46679140806E+03  0.58099237760E+03  0.92678646824E+02 0.  0.
         11    1    3    3    0    0  0.26969989056E+03  0.50104455978E+02 -0.36103976439E+03  0.45342937592E+03  0.00000000000E+00 0.  1.
        -11    1    3    3    0    0  0.47003800341E+02  0.53661457415E+02 -0.10575164367E+03  0.12756300168E+03  0.00000000000E+00 0. -1.
         22    1    1    2    0    0 -0.31670369090E+03 -0.10376591339E+03  0.10837685438E+04  0.11338530986E+04  0.00000000000E+00 0. -1.
<mgrwt>
<rscale>  0 0.16000107E+04</rscale>
<asrwt>0</asrwt>
<pdfrwt beam="1">  1        1 0.17937097E+00 0.16000107E+04</pdfrwt>
<pdfrwt beam="2">  1       -1 0.84451411E-01 0.16000107E+04</pdfrwt>
<totfact> 0.15084267E+01</totfact>
</mgrwt>
</event>
<event>
 6    1  0.1568961E-005  0.1648138E+04  0.7818608E-02  0.8791509E-01
         -1   -1    0    0    0  501 -0.00000000000E+00  0.00000000000E+00  0.70836705630E+03  0.70836705630E+03  0.00000000000E+00 0.  1.
          1   -1    0    0  501    0  0.00000000000E+00 -0.00000000000E+00 -0.95866912991E+03  0.95866912991E+03  0.00000000000E+00 0. -1.
         23    2    1    2    0    0 -0.82131540492E+03 -0.23315528883E+02 -0.12783019436E+03  0.83631242378E+03  0.89304553907E+02 0.  0.
         13    1    3    3    0    0 -0.32499207646E+03 -0.82882479513E+01 -0.65435024759E+01  0.32516359304E+03  0.00000000000E+00 0. -1.
        -13    1    3    3    0    0 -0.49632332846E+03 -0.15027280931E+02 -0.12128669188E+03  0.51114883074E+03  0.00000000000E+00 0.  1.
         22    1    1    2    0    0  0.82131540492E+03  0.23315528883E+02 -0.12247187926E+03  0.83072376242E+03  0.00000000000E+00 0. -1.
<mgrwt>
<rscale>  0 0.16481379E+04</rscale>
<asrwt>0</asrwt>
<pdfrwt beam="1">  1        1 0.14748756E+00 0.16481379E+04</pdfrwt>
<pdfrwt beam="2">  1       -1 0.10897955E+00 0.16481379E+04</pdfrwt>
<totfact> 0.12166270E+01</totfact>
</mgrwt>
</event>
<event>
 6    1  0.1568961E-005  0.3244790E+04  0.7818608E-02  0.8177087E-01
         -2   -1    0    0    0  501 -0.00000000000E+00  0.00000000000E+00  0.92437488876E+03  0.92437488876E+03  0.00000000000E+00 0.  1.
          2   -1    0    0  501    0  0.00000000000E+00 -0.00000000000E+00 -0.28475082154E+04  0.28475082154E+04  0.00000000000E+00 0. -1.
         23    2    1    2    0    0 -0.44562554291E+03  0.13584657255E+04 -0.73797977734E+02  0.14343518243E+04  0.88925600906E+02 0.  0.
         11    1    3    3    0    0 -0.11139155347E+03  0.34804625010E+03 -0.57706159619E+02  0.36996522978E+03  0.00000000000E+00 0.  1.
        -11    1    3    3    0    0 -0.33423398945E+03  0.10104194754E+04 -0.16091818116E+02  0.10643865945E+04  0.00000000000E+00 0. -1.
         22    1    1    2    0    0  0.44562554291E+03 -0.13584657255E+04 -0.18493353489E+04  0.23375312799E+04  0.00000000000E+00 0. -1.
<mgrwt>
<rscale>  0 0.32447897E+04</rscale>
<asrwt>0</asrwt>
<pdfrwt beam="1">  1        2 0.43807819E+00 0.32447897E+04</pdfrwt>
<pdfrwt beam="2">  1       -2 0.14221152E+00 0.32447897E+04</pdfrwt>
<totfact> 0.62550932E-01</totfact>
</mgrwt>
</event>
<event>
 6    1  0.1568961E-005  0.3208019E+04  0.7818608E-02  0.8186703E-01
          1   -1    0    0  501    0  0.00000000000E+00  0.00000000000E+00  0.14229331834E+04  0.14229331834E+04  0.00000000000E+00 0. -1.
         -1   -1    0    0    0  501 -0.00000000000E+00 -0.00000000000E+00 -0.18081286487E+04  0.18081286487E+04  0.00000000000E+00 0.  1.
         23    2    1    2    0    0 -0.10935948645E+04 -0.10953586233E+04  0.22614023158E+03  0.15668828827E+04  0.90677023750E+02 0.  0.
         13    1    3    3    0    0 -0.35855946588E+03 -0.30294031781E+03  0.55769532099E+02  0.47270283205E+03  0.00000000000E+00 0.  1.
        -13    1    3    3    0    0 -0.73503539862E+03 -0.79241830548E+03  0.17037069948E+03  0.10941800507E+04  0.00000000000E+00 0. -1.
         22    1    1    2    0    0  0.10935948645E+04  0.10953586233E+04 -0.61133569691E+03  0.16641789494E+04  0.00000000000E+00 0.  1.
<mgrwt>
<rscale>  0 0.32080189E+04</rscale>
<asrwt>0</asrwt>
<pdfrwt beam="1">  1        1 0.21891280E+00 0.32080189E+04</pdfrwt>
<pdfrwt beam="2">  1       -1 0.27817364E+00 0.32080189E+04</pdfrwt>
<totfact> 0.28306957E-01</totfact>
</mgrwt>
</event>
<event>
 6    1  0.1568961E-005  0.1507049E+04  0.7818608E-02  0.8879779E-01
         -1   -1    0    0    0  501 -0.00000000000E+00  0.00000000000E+00  0.26839967974E+03  0.26839967974E+03  0.00000000000E+00 0.  1.
          1   -1    0    0  501    0  0.00000000000E+00 -0.00000000000E+00 -0.21154978440E+04  0.21154978440E+04  0.00000000000E+00 0. -1.
         23    2    1    2    0    0  0.44729642697E+03 -0.60265280654E+03 -0.90517589363E+03  0.11795379168E+04  0.93283439174E+02 0.  0.
         13    1    3    3    0    0  0.10823040588E+03 -0.20630935872E+03 -0.31702679497E+03  0.39342516567E+03  0.00000000000E+00 0. -1.
        -13    1    3    3    0    0  0.33906602109E+03 -0.39634344782E+03 -0.58814909866E+03  0.78611275116E+03  0.00000000000E+00 0.  1.
         22    1    1    2    0    0 -0.44729642697E+03  0.60265280654E+03 -0.94192227058E+03  0.12043596069E+04  0.00000000000E+00 0.  1.
<mgrwt>
<rscale>  0 0.15070487E+04</rscale>
<asrwt>0</asrwt>
<pdfrwt beam="1">  1        1 0.32546121E+00 0.15070487E+04</pdfrwt>
<pdfrwt beam="2">  1       -1 0.41292259E-01 0.15070487E+04</pdfrwt>
<totfact> 0.13828660E+01</totfact>
</mgrwt>
</event>
<event>
 6    1  0.1568961E-005  0.2502994E+04  0.7818608E-02  0.8401920E-01
          2   -1    0    0  501    0  0.00000000000E+00  0.00000000000E+00  0.20346153150E+04  0.20346153150E+04  0.00000000000E+00 0. -1.
         -2   -1    0    0    0  501 -0.00000000000E+00 -0.00000000000E+00 -0.76979881743E+03  0.76979881743E+03  0.00000000000E+00 0.  1.
         23    2    1    2    0    0  0.12303772873E+04 -0.20366888362E+03  0.72378895565E+03  0.14449951079E+04  0.93974072576E+02 0.  0.
         11    1    3    3    0    0  0.62310832066E+03 -0.55675913257E+02  0.36645676701E+03  0.72502024019E+03  0.00000000000E+00 0.  1.
        -11    1    3    3    0    0  0.60726896661E+03 -0.14799297036E+03  0.35733218864E+03  0.71997486770E+03  0.00000000000E+00 0. -1.
         22    1    1    2    0    0 -0.12303772873E+04  0.20366888362E+03  0.54102754193E+03  0.13594190246E+04  0.00000000000E+00 0. -1.
<mgrwt>
<rscale>  0 0.25029938E+04</rscale>
<asrwt>0</asrwt>
<pdfrwt beam="1">  1        2 0.31301774E+00 0.25029938E+04</pdfrwt>
<pdfrwt beam="2">  1       -2 0.11843059E+00 0.25029938E+04</pdfrwt>
<totfact> 0.31265452E+00</totfact>
</mgrwt>
</event>
<event>
 6    1  0.1568961E-005  0.2092708E+04  0.7818608E-02  0.8564462E-01
         -1   -1    0    0    0  501 -0.00000000000E+00  0.00000000000E+00  0.15081849742E+04  0.15081849742E+04  0.00000000000E+00 0.  1.
          1   -1    0    0  501    0  0.00000000000E+00 -0.00000000000E+00 -0.72594329146E+03  0.72594329146E+03  0.00000000000E+00 0. -1.
         23    2    1    2    0    0 -0.98116456108E+03  0.13608378827E+03  0.38827099244E+02  0.99563404432E+03  0.92611625810E+02 0.  0.
         13    1    3    3    0    0 -0.58406765997E+03  0.44954772018E+02  0.51187707614E+02  0.58802733300E+03  0.00000000000E+00 0.  1.
        -13    1    3    3    0    0 -0.39709690111E+03  0.91129016255E+02 -0.12360608370E+02  0.40760671132E+03  0.00000000000E+00 0. -1.
         22    1    1    2    0    0  0.98116456108E+03 -0.13608378827E+03  0.74341458350E+03  0.12384942213E+04  0.00000000000E+00 0. -1.
<mgrwt>
<rscale>  0 0.20927081E+04</rscale>
<asrwt>0</asrwt>
<pdfrwt beam="1">  1        1 0.11168358E+00 0.20927081E+04</pdfrwt>
<pdfrwt beam="2">  1       -1 0.23202846E+00 0.20927081E+04</pdfrwt>
<totfact> 0.21696267E+00</totfact>
</mgrwt>
</event>
<event>
 6    1  0.1568961E-005  0.3597537E+04  0.7818608E-02  0.8091056E-01
          1   -1    0    0  501    0  0.00000000000E+00  0.00000000000E+00  0.17177448406E+04  0.17177448406E+04  0.00000000000E+00 0. -1.
         -1   -1    0    0    0  501 -0.00000000000E+00 -0.00000000000E+00 -0.18836138817E+04  0.18836138817E+04  0.00000000000E+00 0.  1.
         23    2    1    2    0    0  0.96738546537E+03 -0.73512450147E+03 -0.14092888471E+04  0.18628721721E+04  0.89190827091E+02 0.  0.
         13    1    3    3    0    0  0.33089781206E+03 -0.26472902025E+03 -0.55548169410E+03  0.69866639297E+03  0.00000000000E+00 0. -1.
        -13    1    3    3    0    0  0.63648765331E+03 -0.47039548123E+03 -0.85380715301E+03  0.11642057791E+04  0.00000000000E+00 0.  1.
         22    1    1    2    0    0 -0.96738546537E+03  0.73512450147E+03  0.12434198061E+04  0.17384865502E+04  0.00000000000E+00 0. -1.
<mgrwt>
<rscale>  0 0.35975370E+04</rscale>
<asrwt>0</asrwt>
<pdfrwt beam="1">  1        1 0.26426844E+00 0.35975370E+04</pdfrwt>
<pdfrwt beam="2">  1       -1 0.28978675E+00 0.35975370E+04</pdfrwt>
<totfact> 0.14425174E-01</totfact>
</mgrwt>
</event>
<event>
 6    1  0.1568961E-005  0.1986298E+04  0.7818608E-02  0.8613054E-01
         -1   -1    0    0    0  501 -0.00000000000E+00  0.00000000000E+00  0.50682558635E+03  0.50682558635E+03  0.00000000000E+00 0.  1.
          1   -1    0    0  501    0  0.00000000000E+00 -0.00000000000E+00 -0.19461227312E+04  0.19461227312E+04  0.00000000000E+00 0. -1.
         23    2    1    2    0    0 -0.44379398320E+03 -0.53122271568E+03  0.15465310313E+03  0.71518306695E+03  0.91752731677E+02 0.  0.
         11    1    3    3    0    0 -0.24123682831E+03 -0.23852581916E+03  0.10892772303E+03  0.35630748320E+03  0.00000000000E+00 0. -1.
        -11    1    3    3    0    0 -0.20255715489E+03 -0.29269689652E+03  0.45725380094E+02  0.35887558376E+03  0.00000000000E+00 0.  1.
         22    1    1    2    0    0  0.44379398320E+03  0.53122271568E+03 -0.15939502480E+04  0.17377652506E+04  0.00000000000E+00 0. -1.
<mgrwt>
<rscale>  0 0.19862979E+04</rscale>
<asrwt>0</asrwt>
<pdfrwt beam="1">  1        1 0.29940350E+00 0.19862979E+04</pdfrwt>
<pdfrwt beam="2">  1       -1 0.77973166E-01 0.19862979E+04</pdfrwt>
<totfact> 0.49593749E+00</totfact>
</mgrwt>
</event>
<event>
 6    1  0.1568961E-005  0.3781131E+04  0.7818608E-02  0.8050216E-01
         -1   -1    0    0    0  501 -0.00000000000E+00  0.00000000000E+00  0.27804643323E+04  0.27804643323E+04  0.00000000000E+00 0.  1.
          1   -1    0    0  501    0  0.00000000000E+00 -0.00000000000E+00 -0.12854821011E+04  0.12854821011E+04  0.00000000000E+00 0. -1.
         23    2    1    2    0    0 -0.16193017153E+04 -0.54826075612E+03 -0.11747206335E+03  0.17158960608E+04  0.88157268302E+02 0.  0.
         11    1    3    3    0    0 -0.14130024645E+04 -0.49538176732E+03 -0.78415461076E+02  0.14993758850E+04  0.00000000000E+00 0. -1.
        -11    1    3    3    0    0 -0.20629925081E+03 -0.52878988792E+02 -0.39056602274E+02  0.21652017578E+03  0.00000000000E+00 0.  1.
         22    1    1    2    0    0  0.16193017153E+04  0.54826075612E+03  0.16124542946E+04  0.23500503726E+04  0.00000000000E+00 0.  1.
<mgrwt>
<rscale>  0 0.37811306E+04</rscale>
<asrwt>0</asrwt>
<pdfrwt beam="1">  1        1 0.19776648E+00 0.37811306E+04</pdfrwt>
<pdfrwt beam="2">  1       -1 0.42776374E+00 0.37811306E+04</pdfrwt>
<totfact> 0.34003511E-02</totfact>
</mgrwt>
</event>
<event>
 6    1  0.1568961E-005  0.2922842E+04  0.7818608E-02  0.8266114E-01
         -2   -1    0    0    0  501 -0.00000000000E+00  0.00000000000E+00  0.72368618408E+03  0.72368618408E+03  0.00000000000E+00 0.  1.
          2   -1    0    0  501    0  0.00000000000E+00 -0.00000000000E+00 -0.29512125733E+04  0.29512125733E+04  0.00000000000E+00 0. -1.
         23    2    1    2    0    0  0.74432240084E+03  0.80122123732E+03  0.10191610858E+03  0.11015208881E+04  0.83606615755E+02 0.  0.
         13    1    3    3    0    0  0.62134739925E+03  0.64394860105E+03  0.55554377081E+02  0.89656493360E+03  0.00000000000E+00 0. -1.
        -13    1    3    3    0    0  0.12297500159E+03  0.15727263627E+03  0.46361731498E+02  0.20495595449E+03  0.00000000000E+00 0.  1.
         22    1    1    2    0    0 -0.74432240084E+03 -0.80122123732E+03 -0.23294424978E+04  0.25733778692E+04  0.00000000000E+00 0. -1.
<mgrwt>
<rscale>  0 0.29228423E+04</rscale>
<asrwt>0</asrwt>
<pdfrwt beam="1">  1        2 0.45403270E+00 0.29228423E+04</pdfrwt>
<pdfrwt beam="2">  1       -2 0.11133634E+00 0.29228423E+04</pdfrwt>
<totfact> 0.10260295E+00</totfact>
</mgrwt>
</event>
<event>
 6    1  0.1568961E-005  0.2506042E+04  0.7818608E-02  0.8400836E-01
         -2   -1    0    0    0  501 -0.00000000000E+00  0.00000000000E+00  0.18630954137E+04  0.18630954137E+04  0.00000000000E+00 0.  1.
          2   -1    0    0  501    0  0.00000000000E+00 -0.00000000000E+00 -0.84271698392E+03  0.84271698392E+03  0.00000000000E+00 0. -1.
         23    2    1    2    0    0  0.80923533950E+03  0.18667782967E+03 -0.49969733101E+03  0.97366322237E+03  0.92801946018E+02 0.  0.
         13    1    3    3    0    0  0.41579179549E+03  0.10779077601E+03 -0.20592544705E+03  0.47634751845E+03  0.00000000000E+00 0.  1.
        -13    1    3    3    0    0  0.39344354401E+03  0.78887053659E+02 -0.29377188396E+03  0.49731570392E+03  0.00000000000E+00 0. -1.
         22    1    1    2    0    0 -0.80923533950E+03 -0.18667782967E+03  0.15200757608E+04  0.17321491752E+04  0.00000000000E+00 0.  1.
<mgrwt>
<rscale>  0 0.25060424E+04</rscale>
<asrwt>0</asrwt>
<pdfrwt beam="1">  1        2 0.12964877E+00 0.25060424E+04</pdfrwt>
<pdfrwt beam="2">  1       -2 0.28663006E+00 0.25060424E+04</pdfrwt>
<totfact> 0.10983978E+00</totfact>
</mgrwt>
</event>
<event>
 6    1  0.1568961E-005  0.1827255E+04  0.7818608E-02  0.8691939E-01
         -2   -1    0    0    0  501 -0.00000000000E+00  0.00000000000E+00  0.41381997658E+03  0.41381997658E+03  0.00000000000E+00 0. -1.
          2   -1    0    0  501    0  0.00000000000E+00 -0.00000000000E+00 -0.20170968659E+04  0.20170968659E+04  0.00000000000E+00 0.  1.
         23    2    1    2    0    0 -0.54893533613E+03 -0.50953084179E+03 -0.14962610665E+04  0.16743429411E+04  0.60625268805E+02 0.  0.
         11    1    3    3    0    0 -0.17544007245E+03 -0.18149066829E+03 -0.44900705882E+03  0.51509748648E+03  0.00000000000E+00 0. -1.
        -11    1    3    3    0    0 -0.37349526369E+03 -0.32804017349E+03 -0.10472540076E+04  0.11592454546E+04  0.00000000000E+00 0.  1.
         22    1    1    2    0    0  0.54893533613E+03  0.50953084179E+03 -0.10701582286E+03  0.75657390144E+03  0.00000000000E+00 0. -1.
<mgrwt>
<rscale>  0 0.18272547E+04</rscale>
<asrwt>0</asrwt>
<pdfrwt beam="1">  1        2 0.31032259E+00 0.18272547E+04</pdfrwt>
<pdfrwt beam="2">  1       -2 0.63664614E-01 0.18272547E+04</pdfrwt>
<totfact> 0.14055155E+01</totfact>
</mgrwt>
</event>
<event>
 6    1  0.1568961E-005  0.2414228E+04  0.7818608E-02  0.8434196E-01
          2   -1    0    0  501    0  0.00000000000E+00  0.00000000000E+00  0.12523693925E+04  0.12523693925E+04  0.00000000000E+00 0. -1.
         -2   -1    0    0    0  501 -0.00000000000E+00 -0.00000000000E+00 -0.11634941754E+04  0.11634941754E+04  0.00000000000E+00 0.  1.
         23    2    1    2    0    0  0.56348662972E+03  0.56817162158E+03  0.94658718144E+03  0.12428307520E+04  0.90911014220E+02 0.  0.
         13    1    3    3    0    0  0.41721661729E+03  0.44575373610E+03  0.66548666550E+03  0.90312712336E+03  0.00000000000E+00 0.  1.
        -13    1    3    3    0    0  0.14627001243E+03  0.12241788548E+03  0.28110051594E+03  0.33970362860E+03  0.00000000000E+00 0. -1.
         22    1    1    2    0    0 -0.56348662972E+03 -0.56817162158E+03 -0.85771196434E+03  0.11730328159E+04  0.00000000000E+00 0.  1.
<mgrwt>
<rscale>  0 0.24142282E+04</rscale>
<asrwt>0</asrwt>
<pdfrwt beam="1">  1        2 0.19267221E+00 0.24142282E+04</pdfrwt>
<pdfrwt beam="2">  1       -2 0.17899910E+00 0.24142282E+04</pdfrwt>
<totfact> 0.29177690E+00</totfact>
</mgrwt>
</event>
<event>
 6    1  0.1568961E-005  0.2635151E+04  0.7818608E-02  0.8356358E-01
         -2   -1    0    0    0  501 -0.00000000000E+00  0.00000000000E+00  0.98420732549E+03  0.98420732549E+03  0.00000000000E+00 0. -1.
          2   -1    0    0  501    0  0.00000000000E+00 -0.00000000000E+00 -0.17638606262E+04  0.17638606262E+04  0.00000000000E+00 0.  1.
         23    2    1    2    0    0 -0.92489405677E+03  0.54101700981E+03  0.40641088222E+03  0.11496697950E+04  0.91882595038E+02 0.  0.
         11    1    3    3    0    0 -0.10335050390E+03  0.64026653605E+02  0.16101560097E+02  0.12263767474E+03  0.00000000000E+00 0. -1.
        -11    1    3    3    0    0 -0.82154355287E+03  0.47699035621E+03  0.39030932213E+03  0.10270321203E+04  0.00000000000E+00 0.  1.
         22    1    1    2    0    0  0.92489405677E+03 -0.54101700981E+03 -0.11860641829E+04  0.15983981567E+04  0.00000000000E+00 0.  1.
<mgrwt>
<rscale>  0 0.26351505E+04</rscale>
<asrwt>0</asrwt>
<pdfrwt beam="1">  1        2 0.27136317E+00 0.26351505E+04</pdfrwt>
<pdfrwt beam="2">  1       -2 0.15141651E+00 0.26351505E+04</pdfrwt>
<totfact> 0.23295521E+00</totfact>
</mgrwt>
</event>
<event>
 6    1  0.1568961E-005  0.2238686E+04  0.7818608E-02  0.8502496E-01
         -1   -1    0    0    0  501 -0.00000000000E+00  0.00000000000E+00  0.69056701785E+03  0.69056701785E+03  0.00000000000E+00 0. -1.
          1   -1    0    0  501    0  0.00000000000E+00 -0.00000000000E+00 -0.18143481095E+04  0.18143481095E+04  0.00000000000E+00 0.  1.
         23    2    1    2    0    0 -0.87089070927E+02  0.53929990679E+03  0.52787006331E+03  0.76526561282E+03  0.92497344158E+02 0.  0.
         13    1    3    3    0    0 -0.33454749986E+02  0.29164232873E+03  0.34375277897E+03  0.45204030932E+03  0.00000000000E+00 0. -1.
        -13    1    3    3    0    0 -0.53634320941E+02  0.24765757806E+03  0.18411728434E+03  0.31322530349E+03  0.00000000000E+00 0.  1.
         22    1    1    2    0    0  0.87089070927E+02 -0.53929990679E+03 -0.16516511550E+04  0.17396495145E+04  0.00000000000E+00 0.  1.
<mgrwt>
<rscale>  0 0.22386862E+04</rscale>
<asrwt>0</asrwt>
<pdfrwt beam="1">  1        1 0.27913048E+00 0.22386862E+04</pdfrwt>
<pdfrwt beam="2">  1       -1 0.10624108E+00 0.22386862E+04</pdfrwt>
<totfact> 0.29977835E+00</totfact>
</mgrwt>
</event>
<event>
 6    1  0.1568961E-005  0.9871518E+03  0.7818608E-02  0.9322750E-01
          4   -1    0    0  501    0  0.00000000000E+00  0.00000000000E+00  0.17571136415E+03  0.17571136415E+03  0.00000000000E+00 0. -1.
         -4   -1    0    0    0  501 -0.00000000000E+00 -0.00000000000E+00 -0.13864623081E+04  0.13864623081E+04  0.00000000000E+00 0.  1.
         23    2    1    2    0    0 -0.24968288298E+03 -0.39288187612E+03 -0.37605834727E+03  0.60644910859E+03  0.98300204097E+02 0.  0.
         11    1    3    3    0    0 -0.11368619189E+03 -0.20783989652E+03 -0.13140932643E+03  0.27090659624E+03  0.00000000000E+00 0. -1.
        -11    1    3    3    0    0 -0.13599669109E+03 -0.18504197960E+03 -0.24464902083E+03  0.33554251235E+03  0.00000000000E+00 0.  1.
         22    1    1    2    0    0  0.24968288298E+03  0.39288187612E+03 -0.83469259668E+03  0.95572456366E+03  0.00000000000E+00 0. -1.
<mgrwt>
<rscale>  0 0.98715183E+03</rscale>
<asrwt>0</asrwt>
<pdfrwt beam="1">  1        4 0.27032518E-01 0.98715183E+03</pdfrwt>
<pdfrwt beam="2">  1       -4 0.21330189E+00 0.98715183E+03</pdfrwt>
<totfact> 0.28285907E+00</totfact>
</mgrwt>
</event>
<event>
 6    1  0.1568961E-005  0.9491897E+03  0.7818608E-02  0.9366098E-01
          2   -1    0    0  501    0  0.00000000000E+00  0.00000000000E+00  0.30098229236E+04  0.30098229236E+04  0.00000000000E+00 0. -1.
         -2   -1    0    0    0  501 -0.00000000000E+00 -0.00000000000E+00 -0.74835050978E+02  0.74835050978E+02  0.00000000000E+00 0.  1.
         23    2    1    2    0    0  0.40596018655E+02 -0.15842385484E+03  0.29136400500E+04  0.29197280378E+04  0.93633964518E+02 0.  0.
         13    1    3    3    0    0  0.40133226611E+02 -0.14065218552E+03  0.28470825205E+04  0.28508371738E+04  0.00000000000E+00 0. -1.
        -13    1    3    3    0    0  0.46279204364E+00 -0.17771669315E+02  0.66557529500E+02  0.68890863979E+02  0.00000000000E+00 0.  1.
         22    1    1    2    0    0 -0.40596018655E+02  0.15842385484E+03  0.21347822630E+02  0.16492993677E+03  0.00000000000E+00 0.  1.
<mgrwt>
<rscale>  0 0.94918966E+03</rscale>
<asrwt>0</asrwt>
<pdfrwt beam="1">  1        2 0.46304959E+00 0.94918966E+03</pdfrwt>
<pdfrwt beam="2">  1       -2 0.11513087E-01 0.94918966E+03</pdfrwt>
<totfact> 0.96516524E+01</totfact>
</mgrwt>
</event>
<event>
 6    1  0.1568961E-005  0.1778610E+04  0.7818608E-02  0.8717758E-01
          2   -1    0    0  501    0  0.00000000000E+00  0.00000000000E+00  0.75688185231E+03  0.75688185231E+03  0.00000000000E+00 0. -1.
         -2   -1    0    0    0  501 -0.00000000000E+00 -0.00000000000E+00 -0.10448963623E+04  0.10448963623E+04  0.00000000000E+00 0.  1.
         23    2    1    2    0    0 -0.33178724878E+03  0.14283261519E+03  0.67628644337E+03  0.77204025616E+03  0.90547607499E+02 0.  0.
         13    1    3    3    0    0 -0.30856781628E+03  0.10151169284E+03  0.58223452557E+03  0.66672015403E+03  0.00000000000E+00 0. -1.
        -13    1    3    3    0    0 -0.23219432503E+02  0.41320922351E+02  0.94051917803E+02  0.10532010213E+03  0.00000000000E+00 0.  1.
         22    1    1    2    0    0  0.33178724878E+03 -0.14283261519E+03 -0.96430095336E+03  0.10297379584E+04  0.00000000000E+00 0.  1.
<mgrwt>
<rscale>  0 0.17786097E+04</rscale>
<asrwt>0</asrwt>
<pdfrwt beam="1">  1        2 0.11644336E+00 0.17786097E+04</pdfrwt>
<pdfrwt beam="2">  1       -2 0.16075329E+00 0.17786097E+04</pdfrwt>
<totfact> 0.87101143E+00</totfact>
</mgrwt>
</event>
<event>
 6    1  0.1568961E-005  0.1289282E+04  0.7818608E-02  0.9038108E-01
          1   -1    0    0  501    0  0.00000000000E+00  0.00000000000E+00  0.88710866671E+03  0.88710866671E+03  0.00000000000E+00 0. -1.
         -1   -1    0    0    0  501 -0.00000000000E+00 -0.00000000000E+00 -0.46844549574E+03  0.46844549574E+03  0.00000000000E+00 0.  1.
         23    2    1    2    0    0  0.21337422310E+03  0.29210598555E+03  0.76751249274E+03  0.85301031841E+03  0.87730900674E+02 0.  0.
         13    1    3    3    0    0  0.21931725680E+03  0.26272427947E+03  0.70768217722E+03  0.78609043380E+03  0.00000000000E+00 0. -1.
        -13    1    3    3    0    0 -0.59430337045E+01  0.29381706084E+02  0.59830315516E+02  0.66919884614E+02  0.00000000000E+00 0.  1.
         22    1    1    2    0    0 -0.21337422310E+03 -0.29210598555E+03 -0.34884932177E+03  0.50254384403E+03  0.00000000000E+00 0.  1.
<mgrwt>
<rscale>  0 0.12892821E+04</rscale>
<asrwt>0</asrwt>
<pdfrwt beam="1">  1        1 0.13647826E+00 0.12892821E+04</pdfrwt>
<pdfrwt beam="2">  1       -1 0.72068538E-01 0.12892821E+04</pdfrwt>
<totfact> 0.35633127E+01</totfact>
</mgrwt>
</event>
<event>
 6    1  0.1568961E-005  0.2159999E+04  0.7818608E-02  0.8535264E-01
         -2   -1    0    0    0  501 -0.00000000000E+00  0.00000000000E+00  0.68554676128E+03  0.68554676128E+03  0.00000000000E+00 0.  1.
          2   -1    0    0  501    0  0.00000000000E+00 -0.00000000000E+00 -0.17014137863E+04  0.17014137863E+04  0.00000000000E+00 0. -1.
         23    2    1    2    0    0  0.42553452185E+03  0.86623851454E+03 -0.10397630445E+04  0.14215488151E+04  0.90802266377E+02 0.  0.
         11    1    3    3    0    0  0.33032466973E+03  0.70400557633E+03 -0.78614951179E+03  0.11057889915E+04  0.00000000000E+00 0. -1.
        -11    1    3    3    0    0  0.95209852124E+02  0.16223293821E+03 -0.25361353275E+03  0.31575982356E+03  0.00000000000E+00 0.  1.
         22    1    1    2    0    0 -0.42553452185E+03 -0.86623851454E+03  0.23896019567E+02  0.96541173243E+03  0.00000000000E+00 0.  1.
<mgrwt>
<rscale>  0 0.21599988E+04</rscale>
<asrwt>0</asrwt>
<pdfrwt beam="1">  1        2 0.26175597E+00 0.21599988E+04</pdfrwt>
<pdfrwt beam="2">  1       -2 0.10546873E+00 0.21599988E+04</pdfrwt>
<totfact> 0.65290378E+00</totfact>
</mgrwt>
</event>
<event>
 6    1  0.1568961E-005  0.1970932E+04  0.7818608E-02  0.8620333E-01
          2   -1    0    0  501    0  0.00000000000E+00  0.00000000000E+00  0.20983552580E+04  0.20983552580E+04  0.00000000000E+00 0. -1.
         -2   -1    0    0    0  501 -0.00000000000E+00 -0.00000000000E+00 -0.46281173807E+03  0.46281173807E+03  0.00000000000E+00 0.  1.
         23    2    1    2    0    0  0.81621929642E+03 -0.53669726728E+03  0.96521416762E+03  0.13764310182E+04  0.93091686419E+02 0.  0.
         11    1    3    3    0    0  0.21078813689E+03 -0.17050966204E+03  0.22361178699E+03  0.35143621723E+03  0.00000000000E+00 0.  1.
        -11    1    3    3    0    0  0.60543115952E+03 -0.36618760524E+03  0.74160238063E+03  0.10249948010E+04  0.00000000000E+00 0. -1.
         22    1    1    2    0    0 -0.81621929642E+03  0.53669726728E+03  0.67032935230E+03  0.11847359778E+04  0.00000000000E+00 0. -1.
<mgrwt>
<rscale>  0 0.19709322E+04</rscale>
<asrwt>0</asrwt>
<pdfrwt beam="1">  1        2 0.32282388E+00 0.19709322E+04</pdfrwt>
<pdfrwt beam="2">  1       -2 0.71201807E-01 0.19709322E+04</pdfrwt>
<totfact> 0.98198664E+00</totfact>
</mgrwt>
</event>
<event>
 6    1  0.1568961E-005  0.2758630E+04  0.7818608E-02  0.8316228E-01
          1   -1    0    0  501    0  0.00000000000E+00  0.00000000000E+00  0.17112607659E+04  0.17112607659E+04  0.00000000000E+00 0. -1.
         -1   -1    0    0    0  501 -0.00000000000E+00 -0.00000000000E+00 -0.11117590949E+04  0.11117590949E+04  0.00000000000E+00 0.  1.
         23    2    1    2    0    0 -0.62726201969E+03  0.63426428001E+02  0.15537437961E+04  0.16793159715E+04  0.92205178362E+02 0.  0.
         13    1    3    3    0    0 -0.45287489884E+03  0.76201980188E+02  0.11956340526E+04  0.12807978777E+04  0.00000000000E+00 0. -1.
        -13    1    3    3    0    0 -0.17438712085E+03 -0.12775552187E+02  0.35810974350E+03  0.39851809374E+03  0.00000000000E+00 0.  1.
         22    1    1    2    0    0  0.62726201969E+03 -0.63426428001E+02 -0.95424212509E+03  0.11437038893E+04  0.00000000000E+00 0.  1.
<mgrwt>
<rscale>  0 0.27586299E+04</rscale>
<asrwt>0</asrwt>
<pdfrwt beam="1">  1        1 0.26327089E+00 0.27586299E+04</pdfrwt>
<pdfrwt beam="2">  1       -1 0.17103986E+00 0.27586299E+04</pdfrwt>
<totfact> 0.98355670E-01</totfact>
</mgrwt>
</event>
<event>
 6    1  0.1568961E-005  0.1658155E+04  0.7818608E-02  0.8785596E-01
         -2   -1    0    0    0  501 -0.00000000000E+00  0.00000000000E+00  0.90109202925E+03  0.90109202925E+03  0.00000000000E+00 0. -1.
          2   -1    0    0  501    0  0.00000000000E+00 -0.00000000000E+00 -0.76281873114E+03  0.76281873114E+03  0.00000000000E+00 0.  1.
         23    2    1    2    0    0  0.31185038478E+02 -0.70048717178E+03  0.50838542535E+03  0.87104395494E+03  0.92774168210E+02 0.  0.
         13    1    3    3    0    0 -0.31335746662E+02 -0.16931113514E+03  0.11371848728E+03  0.20634942173E+03  0.00000000000E+00 0.  1.
        -13    1    3    3    0    0  0.62520785140E+02 -0.53117603664E+03  0.39466693807E+03  0.66469453321E+03  0.00000000000E+00 0. -1.
         22    1    1    2    0    0 -0.31185038478E+02  0.70048717178E+03 -0.37011212723E+03  0.79286680544E+03  0.00000000000E+00 0.  1.
<mgrwt>
<rscale>  0 0.16581555E+04</rscale>
<asrwt>0</asrwt>
<pdfrwt beam="1">  1        2 0.11735673E+00 0.16581555E+04</pdfrwt>
<pdfrwt beam="2">  1       -2 0.13862954E+00 0.16581555E+04</pdfrwt>
<totfact> 0.12897881E+01</totfact>
</mgrwt>
</event>
<event>
 6    1  0.1568961E-005  0.3813967E+04  0.7818608E-02  0.8043164E-01
         -1   -1    0    0    0  501 -0.00000000000E+00  0.00000000000E+00  0.83506115175E+03  0.83506115175E+03  0.00000000000E+00 0.  1.
          1   -1    0    0  501    0  0.00000000000E+00 -0.00000000000E+00 -0.43548748207E+04  0.43548748207E+04  0.00000000000E+00 0. -1.
         23    2    1    2    0    0 -0.77980543858E+03  0.17388523566E+04 -0.18011442395E+04  0.26237074853E+04  0.89534110728E+02 0.  0.
         11    1    3    3    0    0 -0.17110465376E+03  0.46357185243E+03 -0.43900859279E+03  0.66098729900E+03  0.00000000000E+00 0. -1.
        -11    1    3    3    0    0 -0.60870078482E+03  0.12752805042E+04 -0.13621356467E+04  0.19627201863E+04  0.00000000000E+00 0.  1.
         22    1    1    2    0    0  0.77980543858E+03 -0.17388523566E+04 -0.17186694294E+04  0.25662284871E+04  0.00000000000E+00 0.  1.
<mgrwt>
<rscale>  0 0.38139674E+04</rscale>
<asrwt>0</asrwt>
<pdfrwt beam="1">  1        1 0.66998074E+00 0.38139674E+04</pdfrwt>
<pdfrwt beam="2">  1       -1 0.12847095E+00 0.38139674E+04</pdfrwt>
<totfact> 0.18610429E-02</totfact>
</mgrwt>
</event>
<event>
 6    1  0.1568961E-005  0.1846382E+04  0.7818608E-02  0.8682016E-01
          4   -1    0    0  501    0  0.00000000000E+00  0.00000000000E+00  0.48051525564E+03  0.48051525564E+03  0.00000000000E+00 0.  1.
         -4   -1    0    0    0  501 -0.00000000000E+00 -0.00000000000E+00 -0.17736827626E+04  0.17736827626E+04  0.00000000000E+00 0. -1.
         23    2    1    2    0    0 -0.54859455635E+03  0.73766150103E+03 -0.58356081605E+03  0.10928874942E+04  0.93591514941E+02 0.  0.
         13    1    3    3    0    0 -0.40542462008E+03  0.59808649068E+03 -0.48261124872E+03  0.86890171498E+03  0.00000000000E+00 0.  1.
        -13    1    3    3    0    0 -0.14316993627E+03  0.13957501036E+03 -0.10094956733E+03  0.22398577926E+03  0.00000000000E+00 0. -1.
         22    1    1    2    0    0  0.54859455635E+03 -0.73766150103E+03 -0.70960669092E+03  0.11613105240E+04  0.00000000000E+00 0. -1.
<mgrwt>
<rscale>  0 0.18463820E+04</rscale>
<asrwt>0</asrwt>
<pdfrwt beam="1">  1        4 0.73925422E-01 0.18463820E+04</pdfrwt>
<pdfrwt beam="2">  1       -4 0.27287428E+00 0.18463820E+04</pdfrwt>
<totfact> 0.14233637E-01</totfact>
</mgrwt>
</event>
<event>
 6    1  0.1568961E-005  0.3721503E+04  0.7818608E-02  0.8063213E-01
          2   -1    0    0  501    0  0.00000000000E+00  0.00000000000E+00  0.25650453193E+04  0.25650453193E+04  0.00000000000E+00 0. -1.
         -2   -1    0    0    0  501 -0.00000000000E+00 -0.00000000000E+00 -0.13498379996E+04  0.13498379996E+04  0.00000000000E+00 0.  1.
         23    2    1    2    0    0 -0.68996872364E+03 -0.12548080673E+04 -0.64011467254E+03  0.15712067583E+04  0.91344173398E+02 0.  0.
         11    1    3    3    0    0 -0.48967774425E+02 -0.13428543707E+03 -0.46114884157E+02  0.15018989341E+03  0.00000000000E+00 0.  1.
        -11    1    3    3    0    0 -0.64100094922E+03 -0.11205226303E+04 -0.59399978838E+03  0.14210168649E+04  0.00000000000E+00 0. -1.
         22    1    1    2    0    0  0.68996872364E+03  0.12548080673E+04  0.18553219922E+04  0.23436765605E+04  0.00000000000E+00 0. -1.
<mgrwt>
<rscale>  0 0.37215027E+04</rscale>
<asrwt>0</asrwt>
<pdfrwt beam="1">  1        2 0.39462236E+00 0.37215027E+04</pdfrwt>
<pdfrwt beam="2">  1       -2 0.20766738E+00 0.37215027E+04</pdfrwt>
<totfact> 0.30516253E-01</totfact>
</mgrwt>
</event>
<event>
 6    1  0.1568961E-005  0.2249944E+04  0.7818608E-02  0.8497923E-01
          2   -1    0    0  501    0  0.00000000000E+00  0.00000000000E+00  0.25756558813E+04  0.25756558813E+04  0.00000000000E+00 0. -1.
         -2   -1    0    0    0  501 -0.00000000000E+00 -0.00000000000E+00 -0.49135544767E+03  0.49135544767E+03  0.00000000000E+00 0.  1.
         23    2    1    2    0    0 -0.19893661300E+03  0.10829552085E+04  0.74277684639E+03  0.13314845229E+04  0.93626020062E+02 0.  0.
         13    1    3    3    0    0 -0.78519337746E+02  0.53307606465E+03  0.31182942273E+03  0.62255358483E+03  0.00000000000E+00 0. -1.
        -13    1    3    3    0    0 -0.12041727526E+03  0.54987914380E+03  0.43094742366E+03  0.70893093805E+03  0.00000000000E+00 0.  1.
         22    1    1    2    0    0  0.19893661300E+03 -0.10829552085E+04  0.13415235872E+04  0.17355268061E+04  0.00000000000E+00 0. -1.
<mgrwt>
<rscale>  0 0.22499445E+04</rscale>
<asrwt>0</asrwt>
<pdfrwt beam="1">  1        2 0.39625474E+00 0.22499445E+04</pdfrwt>
<pdfrwt beam="2">  1       -2 0.75593147E-01 0.22499445E+04</pdfrwt>
<totfact> 0.44927709E+00</totfact>
</mgrwt>
</event>
<event>
 6    1  0.1568961E-005  0.1315847E+04  0.7818608E-02  0.9017092E-01
          1   -1    0    0  501    0  0.00000000000E+00  0.00000000000E+00  0.21273249612E+04  0.21273249612E+04  0.00000000000E+00 0. -1.
         -1   -1    0    0    0  501 -0.00000000000E+00 -0.00000000000E+00 -0.20347780925E+03  0.20347780925E+03  0.00000000000E+00 0.  1.
         23    2    1    2    0    0 -0.45357875609E+03 -0.42597993783E+03  0.60606581548E+03  0.87349695280E+03  0.92133373162E+02 0.  0.
         13    1    3    3    0    0 -0.34696653098E+02 -0.34357076585E+02  0.88272451107E+02  0.10087760937E+03  0.00000000000E+00 0.  1.
        -13    1    3    3    0    0 -0.41888210299E+03 -0.39162286125E+03  0.51779336437E+03  0.77261934343E+03  0.00000000000E+00 0. -1.
         22    1    1    2    0    0  0.45357875609E+03  0.42597993783E+03  0.13177813364E+04  0.14573058176E+04  0.00000000000E+00 0.  1.
<mgrwt>
<rscale>  0 0.13158471E+04</rscale>
<asrwt>0</asrwt>
<pdfrwt beam="1">  1        1 0.32728075E+00 0.13158471E+04</pdfrwt>
<pdfrwt beam="2">  1       -1 0.31304280E-01 0.13158471E+04</pdfrwt>
<totfact> 0.22725240E+01</totfact>
</mgrwt>
</event>
<event>
 6    1  0.1568961E-005  0.4328891E+04  0.7818608E-02  0.7941297E-01
          2   -1    0    0  501    0  0.00000000000E+00  0.00000000000E+00  0.20408423978E+04  0.20408423978E+04  0.00000000000E+00 0.  1.
         -2   -1    0    0    0  501 -0.00000000000E+00 -0.00000000000E+00 -0.22955343286E+04  0.22955343286E+04  0.00000000000E+00 0. -1.
         23    2    1    2    0    0 -0.20767064805E+04  0.44600948249E+03  0.28236274919E+03  0.21454723483E+04  0.10811387897E+03 0.  0.
         11    1    3    3    0    0 -0.61446597255E+03  0.98097028290E+02  0.46050316311E+02  0.62394878797E+03  0.00000000000E+00 0. -1.
        -11    1    3    3    0    0 -0.14622405079E+04  0.34791245420E+03  0.23631243288E+03  0.15215235603E+04  0.00000000000E+00 0.  1.
         22    1    1    2    0    0  0.20767064805E+04 -0.44600948249E+03 -0.53705468002E+03  0.21909043781E+04  0.00000000000E+00 0. -1.
<mgrwt>
<rscale>  0 0.43288908E+04</rscale>
<asrwt>0</asrwt>
<pdfrwt beam="1">  1        2 0.31397575E+00 0.43288908E+04</pdfrwt>
<pdfrwt beam="2">  1       -2 0.35315913E+00 0.43288908E+04</pdfrwt>
<totfact> 0.72371231E-02</totfact>
</mgrwt>
</event>
<event>
 6    1  0.1568961E-005  0.8605272E+03  0.7818608E-02  0.9476316E-01
          4   -1    0    0  501    0  0.00000000000E+00  0.00000000000E+00  0.13343540039E+04  0.13343540039E+04  0.00000000000E+00 0.  1.
         -4   -1    0    0    0  501 -0.00000000000E+00 -0.00000000000E+00 -0.13873885832E+03  0.13873885832E+03  0.00000000000E+00 0. -1.
         23    2    1    2    0    0 -0.13122538793E+03 -0.23576579330E+03  0.41617697988E+02  0.28797020157E+03  0.91592535061E+02 0.  0.
         11    1    3    3    0    0 -0.11133555974E+03 -0.23094541145E+03  0.56664381624E+02  0.26256854739E+03  0.00000000000E+00 0. -1.
        -11    1    3    3    0    0 -0.19889828196E+02 -0.48203818477E+01 -0.15046683636E+02  0.25401654183E+02  0.00000000000E+00 0.  1.
         22    1    1    2    0    0  0.13122538793E+03  0.23576579330E+03  0.11539974476E+04  0.11851226606E+04  0.00000000000E+00 0.  1.
<mgrwt>
<rscale>  0 0.86052717E+03</rscale>
<asrwt>0</asrwt>
<pdfrwt beam="1">  1        4 0.20528522E+00 0.86052717E+03</pdfrwt>
<pdfrwt beam="2">  1       -4 0.21344441E-01 0.86052717E+03</pdfrwt>
<totfact> 0.49933595E+00</totfact>
</mgrwt>
</event>
<event>
 6    1  0.1568961E-005  0.4191557E+04  0.7818608E-02  0.7966980E-01
         -1   -1    0    0    0  501 -0.00000000000E+00  0.00000000000E+00  0.16076587891E+04  0.16076587891E+04  0.00000000000E+00 0.  1.
          1   -1    0    0  501    0  0.00000000000E+00 -0.00000000000E+00 -0.27321020102E+04  0.27321020102E+04  0.00000000000E+00 0. -1.
         23    2    1    2    0    0 -0.18427964932E+04  0.99610277036E+03 -0.56888129668E+03  0.21725578333E+04  0.90895350276E+02 0.  0.
         11    1    3    3    0    0 -0.14627656013E+04  0.77547518174E+03 -0.48505530488E+03  0.17252024840E+04  0.00000000000E+00 0.  1.
        -11    1    3    3    0    0 -0.38003089186E+03  0.22062758861E+03 -0.83825991801E+02  0.44735534927E+03  0.00000000000E+00 0. -1.
         22    1    1    2    0    0  0.18427964932E+04 -0.99610277036E+03 -0.55556192441E+03  0.21672029661E+04  0.00000000000E+00 0. -1.
<mgrwt>
<rscale>  0 0.41915571E+04</rscale>
<asrwt>0</asrwt>
<pdfrwt beam="1">  1        1 0.42032338E+00 0.41915571E+04</pdfrwt>
<pdfrwt beam="2">  1       -1 0.24733212E+00 0.41915571E+04</pdfrwt>
<totfact> 0.52080637E-02</totfact>
</mgrwt>
</event>
<event>
 6    1  0.1568961E-005  0.1428152E+04  0.7818608E-02  0.8933689E-01
         -2   -1    0    0    0  501 -0.00000000000E+00  0.00000000000E+00  0.30287847267E+03  0.30287847267E+03  0.00000000000E+00 0.  1.
          2   -1    0    0  501    0  0.00000000000E+00 -0.00000000000E+00 -0.16835287715E+04  0.16835287715E+04  0.00000000000E+00 0. -1.
         23    2    1    2    0    0  0.28624813936E+03  0.23265841978E+02 -0.15983288187E+04  0.16260418258E+04  0.82931959500E+02 0.  0.
         11    1    3    3    0    0  0.18331374531E+03  0.12613261437E+02 -0.12222679267E+04  0.12360023901E+04  0.00000000000E+00 0. -1.
        -11    1    3    3    0    0  0.10293439405E+03  0.10652580540E+02 -0.37606089194E+03  0.39003943570E+03  0.00000000000E+00 0.  1.
         22    1    1    2    0    0 -0.28624813936E+03 -0.23265841978E+02  0.21767851990E+03  0.36036541832E+03  0.00000000000E+00 0.  1.
<mgrwt>
<rscale>  0 0.14281521E+04</rscale>
<asrwt>0</asrwt>
<pdfrwt beam="1">  1        2 0.25900442E+00 0.14281521E+04</pdfrwt>
<pdfrwt beam="2">  1       -2 0.46596689E-01 0.14281521E+04</pdfrwt>
<totfact> 0.42474011E+01</totfact>
</mgrwt>
</event>
<event>
 6    1  0.1568961E-005  0.2012981E+04  0.7818608E-02  0.8600576E-01
         -2   -1    0    0    0  501 -0.00000000000E+00  0.00000000000E+00  0.46059411043E+03  0.46059411043E+03  0.00000000000E+00 0.  1.
          2   -1    0    0  501    0  0.00000000000E+00 -0.00000000000E+00 -0.21993827691E+04  0.21993827691E+04  0.00000000000E+00 0. -1.
         23    2    1    2    0    0  0.73539041744E+03  0.52911876261E+03 -0.29800776444E+03  0.95803231046E+03  0.90838038330E+02 0.  0.
         11    1    3    3    0    0  0.16152581941E+03  0.15650882685E+03 -0.51269348292E+02  0.23068192234E+03  0.00000000000E+00 0.  1.
        -11    1    3    3    0    0  0.57386459803E+03  0.37260993576E+03 -0.24673841615E+03  0.72735038812E+03  0.00000000000E+00 0. -1.
         22    1    1    2    0    0 -0.73539041744E+03 -0.52911876261E+03 -0.14407808943E+04  0.17019445691E+04  0.00000000000E+00 0. -1.
<mgrwt>
<rscale>  0 0.20129806E+04</rscale>
<asrwt>0</asrwt>
<pdfrwt beam="1">  1        2 0.33836659E+00 0.20129806E+04</pdfrwt>
<pdfrwt beam="2">  1       -2 0.70860631E-01 0.20129806E+04</pdfrwt>
<totfact> 0.86806782E+00</totfact>
</mgrwt>
</event>
<event>
 6    1  0.1568961E-005  0.2626739E+04  0.7818608E-02  0.8359175E-01
         -1   -1    0    0    0  501 -0.00000000000E+00  0.00000000000E+00  0.66489375066E+03  0.66489375066E+03  0.00000000000E+00 0.  1.
          1   -1    0    0  501    0  0.00000000000E+00 -0.00000000000E+00 -0.25943076647E+04  0.25943076647E+04  0.00000000000E+00 0. -1.
         23    2    1    2    0    0 -0.71478581770E+03 -0.34329271098E+03 -0.22626332007E+04  0.23990829680E+04  0.85565387537E+02 0.  0.
         13    1    3    3    0    0 -0.14372611523E+03 -0.32403152155E+02 -0.42426632115E+03  0.44912033102E+03  0.00000000000E+00 0. -1.
        -13    1    3    3    0    0 -0.57105970247E+03 -0.31088955882E+03 -0.18383668796E+04  0.19499626370E+04  0.00000000000E+00 0.  1.
         22    1    1    2    0    0  0.71478581770E+03  0.34329271098E+03  0.33321928666E+03  0.86011844742E+03  0.00000000000E+00 0.  1.
<mgrwt>
<rscale>  0 0.26267386E+04</rscale>
<asrwt>0</asrwt>
<pdfrwt beam="1">  1        1 0.39912425E+00 0.26267386E+04</pdfrwt>
<pdfrwt beam="2">  1       -1 0.10229135E+00 0.26267386E+04</pdfrwt>
<totfact> 0.92526972E-01</totfact>
</mgrwt>
</event>
<event>
 6    1  0.1568961E-005  0.1390267E+04  0.7818608E-02  0.8960894E-01
         -2   -1    0    0    0  501 -0.00000000000E+00  0.00000000000E+00  0.24439905601E+03  0.24439905601E+03  0.00000000000E+00 0.  1.
          2   -1    0    0  501    0  0.00000000000E+00 -0.00000000000E+00 -0.19771370666E+04  0.19771370666E+04  0.00000000000E+00 0. -1.
         23    2    1    2    0    0  0.16200467953E+03 -0.43856467447E+03 -0.16857888393E+04  0.17516545262E+04  0.88459474238E+02 0.  0.
         13    1    3    3    0    0  0.14599280815E+03 -0.27686711818E+03 -0.10780980463E+04  0.11226151159E+04  0.00000000000E+00 0.  1.
        -13    1    3    3    0    0  0.16011871380E+02 -0.16169755629E+03 -0.60769079308E+03  0.62903941032E+03  0.00000000000E+00 0. -1.
         22    1    1    2    0    0 -0.16200467953E+03  0.43856467447E+03 -0.46949171214E+02  0.46988159632E+03  0.00000000000E+00 0.  1.
<mgrwt>
<rscale>  0 0.13902668E+04</rscale>
<asrwt>0</asrwt>
<pdfrwt beam="1">  1        2 0.30417493E+00 0.13902668E+04</pdfrwt>
<pdfrwt beam="2">  1       -2 0.37599855E-01 0.13902668E+04</pdfrwt>
<totfact> 0.44736969E+01</totfact>
</mgrwt>
</event>
<event>
 6    1  0.1568961E-005  0.2110452E+04  0.7818608E-02  0.8556653E-01
          2   -1    0    0  501    0  0.00000000000E+00  0.00000000000E+00  0.13307650587E+04  0.13307650587E+04  0.00000000000E+00 0. -1.
         -2   -1    0    0    0  501 -0.00000000000E+00 -0.00000000000E+00 -0.83673837285E+03  0.83673837285E+03  0.00000000000E+00 0.  1.
         23    2    1    2    0    0  0.75152011161E+03 -0.50208299024E+03 -0.30750696308E+03  0.95947777057E+03  0.95745770830E+02 0.  0.
         13    1    3    3    0    0  0.12715608024E+03 -0.54448405112E+02 -0.72008049301E+02  0.15594376141E+03  0.00000000000E+00 0. -1.
        -13    1    3    3    0    0  0.62436403138E+03 -0.44763458513E+03 -0.23549891378E+03  0.80353400915E+03  0.00000000000E+00 0.  1.
         22    1    1    2    0    0 -0.75152011161E+03  0.50208299024E+03  0.80153364893E+03  0.12080256610E+04  0.00000000000E+00 0. -1.
<mgrwt>
<rscale>  0 0.21104523E+04</rscale>
<asrwt>0</asrwt>
<pdfrwt beam="1">  1        2 0.20473309E+00 0.21104523E+04</pdfrwt>
<pdfrwt beam="2">  1       -2 0.12872898E+00 0.21104523E+04</pdfrwt>
<totfact> 0.65046289E+00</totfact>
</mgrwt>
</event>
<event>
 6    1  0.1568961E-005  0.2858300E+04  0.7818608E-02  0.8285394E-01
          2   -1    0    0  501    0  0.00000000000E+00  0.00000000000E+00  0.18223043296E+04  0.18223043296E+04  0.00000000000E+00 0. -1.
         -2   -1    0    0    0  501 -0.00000000000E+00 -0.00000000000E+00 -0.11208171906E+04  0.11208171906E+04  0.00000000000E+00 0.  1.
         23    2    1    2    0    0 -0.20477754645E+02 -0.82439100957E+03  0.15510340637E+04  0.17591579007E+04  0.94286678534E+02 0.  0.
         11    1    3    3    0    0 -0.11227431152E+02 -0.53025318879E+03  0.10903792700E+04  0.12125268871E+04  0.00000000000E+00 0.  1.
        -11    1    3    3    0    0 -0.92503234924E+01 -0.29413782078E+03  0.46065479366E+03  0.54663101359E+03  0.00000000000E+00 0. -1.
         22    1    1    2    0    0  0.20477754645E+02  0.82439100957E+03 -0.84954692470E+03  0.11839636195E+04  0.00000000000E+00 0.  1.
<mgrwt>
<rscale>  0 0.28583002E+04</rscale>
<asrwt>0</asrwt>
<pdfrwt beam="1">  1        2 0.28035451E+00 0.28583002E+04</pdfrwt>
<pdfrwt beam="2">  1       -2 0.17243341E+00 0.28583002E+04</pdfrwt>
<totfact> 0.14878195E+00</totfact>
</mgrwt>
</event>
<event>
 6    1  0.1568961E-005  0.2192644E+04  0.7818608E-02  0.8521496E-01
         -1   -1    0    0    0  501 -0.00000000000E+00  0.00000000000E+00  0.21594816491E+04  0.21594816491E+04  0.00000000000E+00 0.  1.
          1   -1    0    0  501    0  0.00000000000E+00 -0.00000000000E+00 -0.55657908565E+03  0.55657908565E+03  0.00000000000E+00 0. -1.
         23    2    1    2    0    0 -0.10466224337E+04 -0.27349689159E+03  0.10077373915E+04  0.14813783261E+04  0.93423906300E+02 0.  0.
         11    1    3    3    0    0 -0.84632740003E+03 -0.18741585049E+03  0.82958049041E+03  0.11998327213E+04  0.00000000000E+00 0. -1.
        -11    1    3    3    0    0 -0.20029503367E+03 -0.86081041106E+02  0.17815690110E+03  0.28154560476E+03  0.00000000000E+00 0.  1.
         22    1    1    2    0    0  0.10466224337E+04  0.27349689159E+03  0.59516517193E+03  0.12346824087E+04  0.00000000000E+00 0.  1.
<mgrwt>
<rscale>  0 0.21926444E+04</rscale>
<asrwt>0</asrwt>
<pdfrwt beam="1">  1        1 0.85627552E-01 0.21926444E+04</pdfrwt>
<pdfrwt beam="2">  1       -1 0.33222794E+00 0.21926444E+04</pdfrwt>
<totfact> 0.70882608E-01</totfact>
</mgrwt>
</event>
<event>
 6    1  0.1568961E-005  0.4639243E+04  0.7818608E-02  0.7886703E-01
          1   -1    0    0  501    0  0.00000000000E+00  0.00000000000E+00  0.44661890954E+04  0.44661890954E+04  0.00000000000E+00 0. -1.
         -1   -1    0    0    0  501 -0.00000000000E+00 -0.00000000000E+00 -0.12047505290E+04  0.12047505290E+04  0.00000000000E+00 0.  1.
         23    2    1    2    0    0 -0.20716108560E+04  0.16596635020E+02  0.35833833722E+03  0.21044514460E+04  0.91992051640E+02 0.  0.
         13    1    3    3    0    0 -0.83761061444E+03  0.40795175716E+02  0.17505138168E+03  0.85667892119E+03  0.00000000000E+00 0.  1.
        -13    1    3    3    0    0 -0.12340002415E+04 -0.24198540696E+02  0.18328695553E+03  0.12477725248E+04  0.00000000000E+00 0. -1.
         22    1    1    2    0    0  0.20716108560E+04 -0.16596635020E+02  0.29031002292E+04  0.35664881785E+04  0.00000000000E+00 0. -1.
<mgrwt>
<rscale>  0 0.46392429E+04</rscale>
<asrwt>0</asrwt>
<pdfrwt beam="1">  1        1 0.68710601E+00 0.46392429E+04</pdfrwt>
<pdfrwt beam="2">  1       -1 0.18534624E+00 0.46392429E+04</pdfrwt>
<totfact> 0.49052902E-03</totfact>
</mgrwt>
</event>
<event>
 6    1  0.1568961E-005  0.1863377E+04  0.7818608E-02  0.8673304E-01
          1   -1    0    0  501    0  0.00000000000E+00  0.00000000000E+00  0.11927845203E+04  0.11927845203E+04  0.00000000000E+00 0. -1.
         -1   -1    0    0    0  501 -0.00000000000E+00 -0.00000000000E+00 -0.72774506884E+03  0.72774506884E+03  0.00000000000E+00 0.  1.
         23    2    1    2    0    0  0.44282278759E+03 -0.81359178009E+03  0.16178987326E+03  0.94585840737E+03  0.10221818754E+03 0.  0.
         13    1    3    3    0    0  0.27102371948E+03 -0.39655324068E+03  0.67071122110E+02  0.48498130339E+03  0.00000000000E+00 0.  1.
        -13    1    3    3    0    0  0.17179906811E+03 -0.41703853940E+03  0.94718751150E+02  0.46087710398E+03  0.00000000000E+00 0. -1.
         22    1    1    2    0    0 -0.44282278759E+03  0.81359178009E+03  0.30324957816E+03  0.97467118173E+03  0.00000000000E+00 0.  1.
<mgrwt>
<rscale>  0 0.18633766E+04</rscale>
<asrwt>0</asrwt>
<pdfrwt beam="1">  1        1 0.18350531E+00 0.18633766E+04</pdfrwt>
<pdfrwt beam="2">  1       -1 0.11196078E+00 0.18633766E+04</pdfrwt>
<totfact> 0.74300229E+00</totfact>
</mgrwt>
</event>
<event>
 6    1  0.1568961E-005  0.3444174E+04  0.7818608E-02  0.8127149E-01
          1   -1    0    0  501    0  0.00000000000E+00  0.00000000000E+00  0.21433726238E+04  0.21433726238E+04  0.00000000000E+00 0. -1.
         -1   -1    0    0    0  501 -0.00000000000E+00 -0.00000000000E+00 -0.13836061482E+04  0.13836061482E+04  0.00000000000E+00 0.  1.
         23    2    1    2    0    0 -0.49965065820E+03  0.41631856977E+03  0.20117173874E+04  0.21161800558E+04  0.90770315241E+02 0.  0.
         11    1    3    3    0    0 -0.31782897843E+03  0.24845328119E+03  0.13788013059E+04  0.14366061860E+04  0.00000000000E+00 0. -1.
        -11    1    3    3    0    0 -0.18182167977E+03  0.16786528858E+03  0.63291608148E+03  0.67957386982E+03  0.00000000000E+00 0.  1.
         22    1    1    2    0    0  0.49965065820E+03 -0.41631856977E+03 -0.12519509118E+04  0.14107987161E+04  0.00000000000E+00 0.  1.
<mgrwt>
<rscale>  0 0.34441739E+04</rscale>
<asrwt>0</asrwt>
<pdfrwt beam="1">  1        1 0.32974963E+00 0.34441739E+04</pdfrwt>
<pdfrwt beam="2">  1       -1 0.21286248E+00 0.34441739E+04</pdfrwt>
<totfact> 0.23993872E-01</totfact>
</mgrwt>
</event>
<event>
 6    1  0.1568961E-005  0.5829941E+04  0.7818608E-02  0.7711852E-01
          1   -1    0    0  501    0  0.00000000000E+00  0.00000000000E+00  0.35980289282E+04  0.35980289282E+04  0.00000000000E+00 0. -1.
         -1   -1    0    0    0  501 -0.00000000000E+00 -0.00000000000E+00 -0.23615853191E+04  0.23615853191E+04  0.00000000000E+00 0.  1.
         23    2    1    2    0    0 -0.40382593638E+03  0.14888330104E+04  0.31458545130E+04  0.35049148523E+04  0.91259985713E+02 0.  0.
         11    1    3    3    0    0 -0.33967235891E+03  0.11564295619E+04  0.25182898486E+04  0.27918614587E+04  0.00000000000E+00 0. -1.
        -11    1    3    3    0    0 -0.64153577470E+02  0.33240344851E+03  0.62756466434E+03  0.71305339353E+03  0.00000000000E+00 0.  1.
         22    1    1    2    0    0  0.40382593638E+03 -0.14888330104E+04 -0.19094109039E+04  0.24546993950E+04  0.00000000000E+00 0.  1.
<mgrwt>
<rscale>  0 0.58299408E+04</rscale>
<asrwt>0</asrwt>
<pdfrwt beam="1">  1        1 0.55354291E+00 0.58299408E+04</pdfrwt>
<pdfrwt beam="2">  1       -1 0.36332082E+00 0.58299408E+04</pdfrwt>
<totfact> 0.17872856E-03</totfact>
</mgrwt>
</event>
<event>
 6    1  0.1568961E-005  0.4501663E+04  0.7818608E-02  0.7910346E-01
         -2   -1    0    0    0  501 -0.00000000000E+00  0.00000000000E+00  0.15243673807E+04  0.15243673807E+04  0.00000000000E+00 0.  1.
          2   -1    0    0  501    0  0.00000000000E+00 -0.00000000000E+00 -0.33235054871E+04  0.33235054871E+04  0.00000000000E+00 0. -1.
         23    2    1    2    0    0 -0.12887195439E+04 -0.37379962873E+03  0.10449916899E+04  0.17030996609E+04  0.89535454479E+02 0.  0.
         11    1    3    3    0    0 -0.87394343804E+03 -0.25802987789E+03  0.65615298210E+03  0.11228950470E+04  0.00000000000E+00 0.  1.
        -11    1    3    3    0    0 -0.41477610583E+03 -0.11576975085E+03  0.38883870782E+03  0.58020461380E+03  0.00000000000E+00 0. -1.
         22    1    1    2    0    0  0.12887195439E+04  0.37379962873E+03 -0.28441297963E+04  0.31447732070E+04  0.00000000000E+00 0. -1.
<mgrwt>
<rscale>  0 0.45016634E+04</rscale>
<asrwt>0</asrwt>
<pdfrwt beam="1">  1        2 0.51130853E+00 0.45016634E+04</pdfrwt>
<pdfrwt beam="2">  1       -2 0.23451806E+00 0.45016634E+04</pdfrwt>
<totfact> 0.65116971E-02</totfact>
</mgrwt>
</event>
<event>
 6    1  0.1568961E-005  0.1273174E+04  0.7818608E-02  0.9051113E-01
          1   -1    0    0  501    0  0.00000000000E+00  0.00000000000E+00  0.14038466489E+04  0.14038466489E+04  0.00000000000E+00 0. -1.
         -1   -1    0    0    0  501 -0.00000000000E+00 -0.00000000000E+00 -0.28866606379E+03  0.28866606379E+03  0.00000000000E+00 0.  1.
         23    2    1    2    0    0  0.49245727048E+03 -0.76300323803E+02  0.40658640667E+02  0.50805785422E+03  0.90187335703E+02 0.  0.
         13    1    3    3    0    0  0.23736039526E+03 -0.12972371139E+02  0.57862422120E+02  0.24465547111E+03  0.00000000000E+00 0.  1.
        -13    1    3    3    0    0  0.25509687522E+03 -0.63327952664E+02 -0.17203781453E+02  0.26340238312E+03  0.00000000000E+00 0. -1.
         22    1    1    2    0    0 -0.49245727048E+03  0.76300323803E+02  0.10745219445E+04  0.11844548585E+04  0.00000000000E+00 0. -1.
<mgrwt>
<rscale>  0 0.12731738E+04</rscale>
<asrwt>0</asrwt>
<pdfrwt beam="1">  1        1 0.21597640E+00 0.12731738E+04</pdfrwt>
<pdfrwt beam="2">  1       -1 0.44410164E-01 0.12731738E+04</pdfrwt>
<totfact> 0.37721470E+01</totfact>
</mgrwt>
</event>
<event>
 6    1  0.1568961E-005  0.8444280E+03  0.7818608E-02  0.9497846E-01
         -1   -1    0    0    0  501 -0.00000000000E+00  0.00000000000E+00  0.65314398857E+02  0.65314398857E+02  0.00000000000E+00 0.  1.
          1   -1    0    0  501    0  0.00000000000E+00 -0.00000000000E+00 -0.27293316376E+04  0.27293316376E+04  0.00000000000E+00 0. -1.
         23    2    1    2    0    0 -0.25309384784E+03 -0.30479499805E+03 -0.17807990931E+04  0.18266425347E+04  0.91766294827E+02 0.  0.
         13    1    3    3    0    0 -0.10377193053E+03 -0.69267918945E+02 -0.65842932796E+03  0.67014613189E+03  0.00000000000E+00 0.  1.
        -13    1    3    3    0    0 -0.14932191731E+03 -0.23552707911E+03 -0.11223697652E+04  0.11564964028E+04  0.00000000000E+00 0. -1.
         22    1    1    2    0    0  0.25309384784E+03  0.30479499805E+03 -0.88321814560E+03  0.96800350174E+03  0.00000000000E+00 0.  1.
<mgrwt>
<rscale>  0 0.84442798E+03</rscale>
<asrwt>0</asrwt>
<pdfrwt beam="1">  1        1 0.41989707E+00 0.84442798E+03</pdfrwt>
<pdfrwt beam="2">  1       -1 0.10048372E-01 0.84442798E+03</pdfrwt>
<totfact> 0.60812591E+01</totfact>
</mgrwt>
</event>
<event>
 6    1  0.1568961E-005  0.2548369E+04  0.7818608E-02  0.8385954E-01
         -1   -1    0    0    0  501 -0.00000000000E+00  0.00000000000E+00  0.85730503436E+03  0.85730503436E+03  0.00000000000E+00 0.  1.
          1   -1    0    0  501    0  0.00000000000E+00 -0.00000000000E+00 -0.18937790192E+04  0.18937790192E+04  0.00000000000E+00 0. -1.
         23    2    1    2    0    0  0.44600305343E+03  0.46607378306E+03  0.66549521048E+03  0.93096245413E+03  0.87542680454E+02 0.  0.
         11    1    3    3    0    0  0.19137289020E+03  0.25323182387E+03  0.29154413946E+03  0.43098483149E+03  0.00000000000E+00 0.  1.
        -11    1    3    3    0    0  0.25463016323E+03  0.21284195919E+03  0.37395107102E+03  0.49997762264E+03  0.00000000000E+00 0. -1.
         22    1    1    2    0    0 -0.44600305343E+03 -0.46607378306E+03 -0.17019691954E+04  0.18201215995E+04  0.00000000000E+00 0. -1.
<mgrwt>
<rscale>  0 0.25483691E+04</rscale>
<asrwt>0</asrwt>
<pdfrwt beam="1">  1        1 0.29135061E+00 0.25483691E+04</pdfrwt>
<pdfrwt beam="2">  1       -1 0.13189308E+00 0.25483691E+04</pdfrwt>
<totfact> 0.15214646E+00</totfact>
</mgrwt>
</event>
<event>
 6    1  0.1568961E-005  0.1454867E+04  0.7818608E-02  0.8915033E-01
          1   -1    0    0  501    0  0.00000000000E+00  0.00000000000E+00  0.18025346999E+04  0.18025346999E+04  0.00000000000E+00 0.  1.
         -1   -1    0    0    0  501 -0.00000000000E+00 -0.00000000000E+00 -0.29356420492E+03  0.29356420492E+03  0.00000000000E+00 0. -1.
         23    2    1    2    0    0 -0.67515582694E+03 -0.12305287762E+03  0.10917647143E+04  0.12929562868E+04  0.93852900908E+02 0.  0.
         11    1    3    3    0    0 -0.13101701633E+03 -0.50523099744E+01  0.27243914385E+03  0.30234760047E+03  0.00000000000E+00 0.  1.
        -11    1    3    3    0    0 -0.54413881062E+03 -0.11800056765E+03  0.81932557041E+03  0.99060868637E+03  0.00000000000E+00 0. -1.
         22    1    1    2    0    0  0.67515582694E+03  0.12305287762E+03  0.41720578069E+03  0.80314261796E+03  0.00000000000E+00 0. -1.
<mgrwt>
<rscale>  0 0.14548672E+04</rscale>
<asrwt>0</asrwt>
<pdfrwt beam="1">  1        1 0.27731302E+00 0.14548672E+04</pdfrwt>
<pdfrwt beam="2">  1       -1 0.45163725E-01 0.14548672E+04</pdfrwt>
<totfact> 0.19168492E+01</totfact>
</mgrwt>
</event>
<event>
 6    1  0.1568961E-005  0.3647918E+03  0.7818608E-02  0.1056702E+00
         -2   -1    0    0    0  501 -0.00000000000E+00  0.00000000000E+00  0.70126464622E+02  0.70126464622E+02  0.00000000000E+00 0.  1.
          2   -1    0    0  501    0  0.00000000000E+00 -0.00000000000E+00 -0.47440385399E+03  0.47440385399E+03  0.00000000000E+00 0. -1.
         23    2    1    2    0    0  0.73919454870E+01 -0.11674823998E+03 -0.28606902049E+02  0.15106735029E+03  0.91204150577E+02 0.  0.
         13    1    3    3    0    0  0.29124876669E+02 -0.48738888434E+02  0.24747259867E+02  0.61936778716E+02  0.00000000000E+00 0.  1.
        -13    1    3    3    0    0 -0.21732931182E+02 -0.68009351547E+02 -0.53354161916E+02  0.89130571576E+02  0.00000000000E+00 0. -1.
         22    1    1    2    0    0 -0.73919454870E+01  0.11674823998E+03 -0.37567048732E+03  0.39346296832E+03  0.00000000000E+00 0. -1.
<mgrwt>
<rscale>  0 0.36479180E+03</rscale>
<asrwt>0</asrwt>
<pdfrwt beam="1">  1        2 0.72985207E-01 0.36479180E+03</pdfrwt>
<pdfrwt beam="2">  1       -2 0.10788687E-01 0.36479180E+03</pdfrwt>
<totfact> 0.38975051E+03</totfact>
</mgrwt>
</event>
<event>
 6    1  0.1568961E-005  0.2645589E+04  0.7818608E-02  0.8352878E-01
         -1   -1    0    0    0  501 -0.00000000000E+00  0.00000000000E+00  0.11928517689E+04  0.11928517689E+04  0.00000000000E+00 0.  1.
          1   -1    0    0  501    0  0.00000000000E+00 -0.00000000000E+00 -0.14668926994E+04  0.14668926994E+04  0.00000000000E+00 0. -1.
         23    2    1    2    0    0  0.20890976693E+03 -0.33704092124E+03  0.11298316507E+04  0.12009442430E+04  0.92236883487E+02 0.  0.
         11    1    3    3    0    0  0.11795391103E+03 -0.13201446293E+03  0.40003108322E+03  0.43745378167E+03  0.00000000000E+00 0.  1.
        -11    1    3    3    0    0  0.90955855898E+02 -0.20502645831E+03  0.72980056743E+03  0.76349046134E+03  0.00000000000E+00 0. -1.
         22    1    1    2    0    0 -0.20890976693E+03  0.33704092124E+03 -0.14038725811E+04  0.14588002253E+04  0.00000000000E+00 0. -1.
<mgrwt>
<rscale>  0 0.26455892E+04</rscale>
<asrwt>0</asrwt>
<pdfrwt beam="1">  1        1 0.22567580E+00 0.26455892E+04</pdfrwt>
<pdfrwt beam="2">  1       -1 0.18351566E+00 0.26455892E+04</pdfrwt>
<totfact> 0.11884669E+00</totfact>
</mgrwt>
</event>
<event>
 6    1  0.1568961E-005  0.3076733E+04  0.7818608E-02  0.8222152E-01
          2   -1    0    0  501    0  0.00000000000E+00  0.00000000000E+00  0.92586430633E+03  0.92586430633E+03  0.00000000000E+00 0. -1.
         -2   -1    0    0    0  501 -0.00000000000E+00 -0.00000000000E+00 -0.25560672017E+04  0.25560672017E+04  0.00000000000E+00 0.  1.
         23    2    1    2    0    0  0.10680296498E+04 -0.31202026335E+03 -0.20155487548E+04  0.23044191263E+04  0.99331511770E+02 0.  0.
         11    1    3    3    0    0  0.69605924023E+03 -0.15887407278E+03 -0.13325458708E+04  0.15117598800E+04  0.00000000000E+00 0. -1.
        -11    1    3    3    0    0  0.37197040960E+03 -0.15314619057E+03 -0.68300288394E+03  0.79265924632E+03  0.00000000000E+00 0.  1.
         22    1    1    2    0    0 -0.10680296498E+04  0.31202026335E+03  0.38534585942E+03  0.11775123817E+04  0.00000000000E+00 0. -1.
<mgrwt>
<rscale>  0 0.30767329E+04</rscale>
<asrwt>0</asrwt>
<pdfrwt beam="1">  1        2 0.14244066E+00 0.30767329E+04</pdfrwt>
<pdfrwt beam="2">  1       -2 0.39324110E+00 0.30767329E+04</pdfrwt>
<totfact> 0.19674139E-01</totfact>
</mgrwt>
</event>
<event>
 6    1  0.1568961E-005  0.1105153E+04  0.7818608E-02  0.9200184E-01
          2   -1    0    0  501    0  0.00000000000E+00  0.00000000000E+00  0.53811249574E+03  0.53811249574E+03  0.00000000000E+00 0. -1.
         -2   -1    0    0    0  501 -0.00000000000E+00 -0.00000000000E+00 -0.56742877294E+03  0.56742877294E+03  0.00000000000E+00 0.  1.
         23    2    1    2    0    0 -0.31896457175E+03  0.22636205093E+03  0.37025348707E+03  0.54640427952E+03  0.92151049151E+02 0.  0.
         13    1    3    3    0    0 -0.16615536249E+03  0.14940817069E+03  0.26017298450E+03  0.34295828874E+03  0.00000000000E+00 0.  1.
        -13    1    3    3    0    0 -0.15280920926E+03  0.76953880235E+02  0.11008050257E+03  0.20344599078E+03  0.00000000000E+00 0. -1.
         22    1    1    2    0    0  0.31896457175E+03 -0.22636205093E+03 -0.39956976426E+03  0.55913698916E+03  0.00000000000E+00 0.  1.
<mgrwt>
<rscale>  0 0.11051525E+04</rscale>
<asrwt>0</asrwt>
<pdfrwt beam="1">  1        2 0.82786538E-01 0.11051525E+04</pdfrwt>
<pdfrwt beam="2">  1       -2 0.87296734E-01 0.11051525E+04</pdfrwt>
<totfact> 0.63603108E+01</totfact>
</mgrwt>
</event>
<event>
 6    1  0.1568961E-005  0.1438351E+04  0.7818608E-02  0.8926516E-01
         -2   -1    0    0    0  501 -0.00000000000E+00  0.00000000000E+00  0.18041976908E+03  0.18041976908E+03  0.00000000000E+00 0. -1.
          2   -1    0    0  501    0  0.00000000000E+00 -0.00000000000E+00 -0.28667241497E+04  0.28667241497E+04  0.00000000000E+00 0.  1.
         23    2    1    2    0    0 -0.31842567248E+03  0.10313384092E+03 -0.26901499668E+04  0.27124107615E+04  0.90740272768E+02 0.  0.
         11    1    3    3    0    0 -0.21000847995E+03  0.22142451761E+02 -0.15847491779E+04  0.15987569567E+04  0.00000000000E+00 0. -1.
        -11    1    3    3    0    0 -0.10841719253E+03  0.80991389156E+02 -0.11054007889E+04  0.11136538048E+04  0.00000000000E+00 0.  1.
         22    1    1    2    0    0  0.31842567248E+03 -0.10313384092E+03  0.38455862132E+01  0.33473315726E+03  0.00000000000E+00 0. -1.
<mgrwt>
<rscale>  0 0.14383514E+04</rscale>
<asrwt>0</asrwt>
<pdfrwt beam="1">  1        2 0.44103450E+00 0.14383514E+04</pdfrwt>
<pdfrwt beam="2">  1       -2 0.27756887E-01 0.14383514E+04</pdfrwt>
<totfact> 0.24379369E+01</totfact>
</mgrwt>
</event>
<event>
 6    1  0.1568961E-005  0.5240992E+04  0.7818608E-02  0.7792370E-01
         -1   -1    0    0    0  501 -0.00000000000E+00  0.00000000000E+00  0.17132880381E+04  0.17132880381E+04  0.00000000000E+00 0.  1.
          1   -1    0    0  501    0  0.00000000000E+00 -0.00000000000E+00 -0.40080828423E+04  0.40080828423E+04  0.00000000000E+00 0. -1.
         23    2    1    2    0    0 -0.12442746166E+04  0.12820608852E+04 -0.32393517695E+04  0.37004583895E+04  0.89960942622E+02 0.  0.
         13    1    3    3    0    0 -0.10591282795E+04  0.10861258612E+04 -0.28140304074E+04  0.31969030690E+04  0.00000000000E+00 0.  1.
        -13    1    3    3    0    0 -0.18514633713E+03  0.19593502405E+03 -0.42532136208E+03  0.50355532054E+03  0.00000000000E+00 0. -1.
         22    1    1    2    0    0  0.12442746166E+04 -0.12820608852E+04  0.94455696526E+03  0.20209124908E+04  0.00000000000E+00 0.  1.
<mgrwt>
<rscale>  0 0.52409924E+04</rscale>
<asrwt>0</asrwt>
<pdfrwt beam="1">  1        1 0.61662813E+00 0.52409924E+04</pdfrwt>
<pdfrwt beam="2">  1       -1 0.26358278E+00 0.52409924E+04</pdfrwt>
<totfact> 0.37891152E-03</totfact>
</mgrwt>
</event>
<event>
 6    1  0.1674559E-005  0.3031763E+04  0.7818608E-02  0.8234719E-01
         -2   -1    0    0    0  501 -0.00000000000E+00  0.00000000000E+00  0.13066217721E+04  0.13066217721E+04  0.00000000000E+00 0.  1.
          2   -1    0    0  501    0  0.00000000000E+00 -0.00000000000E+00 -0.17586544230E+04  0.17586544230E+04  0.00000000000E+00 0. -1.
         23    2    1    2    0    0  0.14297583499E+04 -0.44358557085E+03 -0.45902357629E+03  0.15682705269E+04  0.88276294680E+02 0.  0.
         11    1    3    3    0    0  0.73112763310E+03 -0.25967639879E+03 -0.20525113247E+03  0.80256306628E+03  0.00000000000E+00 0.  1.
        -11    1    3    3    0    0  0.69863071680E+03 -0.18390917206E+03 -0.25377244382E+03  0.76570746063E+03  0.00000000000E+00 0. -1.
         22    1    1    2    0    0 -0.14297583499E+04  0.44358557085E+03  0.69909254236E+01  0.14970056683E+04  0.00000000000E+00 0. -1.
<mgrwt>
<rscale>  0 0.30317626E+04</rscale>
<asrwt>0</asrwt>
<pdfrwt beam="1">  1        2 0.27056222E+00 0.30317626E+04</pdfrwt>
<pdfrwt beam="2">  1       -2 0.20101873E+00 0.30317626E+04</pdfrwt>
<totfact> 0.10173623E+00</totfact>
</mgrwt>
</event>
<event>
 6    1  0.1568961E-005  0.3743518E+04  0.7818608E-02  0.8058386E-01
          1   -1    0    0  501    0  0.00000000000E+00  0.00000000000E+00  0.24598793864E+04  0.24598793864E+04  0.00000000000E+00 0. -1.
         -1   -1    0    0    0  501 -0.00000000000E+00 -0.00000000000E+00 -0.14242491285E+04  0.14242491285E+04  0.00000000000E+00 0.  1.
         23    2    1    2    0    0 -0.84083685260E+03  0.15281400820E+03 -0.12084072422E+04  0.14828657147E+04  0.91016104144E+02 0.  0.
         11    1    3    3    0    0 -0.41092209128E+03  0.10022109120E+03 -0.66255076927E+03  0.78605009642E+03  0.00000000000E+00 0.  1.
        -11    1    3    3    0    0 -0.42991476132E+03  0.52592917005E+02 -0.54585647291E+03  0.69681561832E+03  0.00000000000E+00 0. -1.
         22    1    1    2    0    0  0.84083685260E+03 -0.15281400820E+03  0.22440375001E+04  0.24012628002E+04  0.00000000000E+00 0. -1.
<mgrwt>
<rscale>  0 0.37435176E+04</rscale>
<asrwt>0</asrwt>
<pdfrwt beam="1">  1        1 0.37844298E+00 0.37435176E+04</pdfrwt>
<pdfrwt beam="2">  1       -1 0.21911525E+00 0.37435176E+04</pdfrwt>
<totfact> 0.12881419E-01</totfact>
</mgrwt>
</event>
<event>
 6    1  0.1568961E-005  0.8362747E+03  0.7818608E-02  0.9508946E-01
         -2   -1    0    0    0  501 -0.00000000000E+00  0.00000000000E+00  0.15753581218E+03  0.15753581218E+03  0.00000000000E+00 0.  1.
          2   -1    0    0  501    0  0.00000000000E+00 -0.00000000000E+00 -0.11098354902E+04  0.11098354902E+04  0.00000000000E+00 0. -1.
         23    2    1    2    0    0  0.11230954045E+03  0.27309653141E+03 -0.43936043751E+02  0.31221705285E+03  0.91400020838E+02 0.  0.
         11    1    3    3    0    0  0.64755898706E+02  0.17584869832E+03  0.16706994113E+02  0.18813616019E+03  0.00000000000E+00 0. -1.
        -11    1    3    3    0    0  0.47553641739E+02  0.97247833089E+02 -0.60643037864E+02  0.12408089267E+03  0.00000000000E+00 0.  1.
         22    1    1    2    0    0 -0.11230954045E+03 -0.27309653141E+03 -0.90836363428E+03  0.95515424954E+03  0.00000000000E+00 0. -1.
<mgrwt>
<rscale>  0 0.83627468E+03</rscale>
<asrwt>0</asrwt>
<pdfrwt beam="1">  1        2 0.17074393E+00 0.83627468E+03</pdfrwt>
<pdfrwt beam="2">  1       -2 0.24236278E-01 0.83627468E+03</pdfrwt>
<totfact> 0.32700969E+02</totfact>
</mgrwt>
</event>
<event>
 6    1  0.1568961E-005  0.4768639E+04  0.7818608E-02  0.7865223E-01
          1   -1    0    0  501    0  0.00000000000E+00  0.00000000000E+00  0.24877956709E+04  0.24877956709E+04  0.00000000000E+00 0. -1.
         -1   -1    0    0    0  501 -0.00000000000E+00 -0.00000000000E+00 -0.22851467933E+04  0.22851467933E+04  0.00000000000E+00 0.  1.
         23    2    1    2    0    0 -0.79380110147E+03 -0.39978930815E+03 -0.21121456017E+04  0.22933809785E+04  0.92117263108E+02 0.  0.
         11    1    3    3    0    0 -0.26468613554E+03 -0.12767906684E+03 -0.81261243278E+03  0.86411785097E+03  0.00000000000E+00 0. -1.
        -11    1    3    3    0    0 -0.52911496593E+03 -0.27211024131E+03 -0.12995331689E+04  0.14292631276E+04  0.00000000000E+00 0.  1.
         22    1    1    2    0    0  0.79380110147E+03  0.39978930815E+03  0.23147944793E+04  0.24795614856E+04  0.00000000000E+00 0. -1.
<mgrwt>
<rscale>  0 0.47686385E+04</rscale>
<asrwt>0</asrwt>
<pdfrwt beam="1">  1        1 0.38273779E+00 0.47686385E+04</pdfrwt>
<pdfrwt beam="2">  1       -1 0.35156105E+00 0.47686385E+04</pdfrwt>
<totfact> 0.15411887E-02</totfact>
</mgrwt>
</event>
<event>
 6    1  0.1568961E-005  0.4862112E+04  0.7818608E-02  0.7850137E-01
         -1   -1    0    0    0  501 -0.00000000000E+00  0.00000000000E+00  0.13402715232E+04  0.13402715232E+04  0.00000000000E+00 0.  1.
          1   -1    0    0  501    0  0.00000000000E+00 -0.00000000000E+00 -0.44095787570E+04  0.44095787570E+04  0.00000000000E+00 0. -1.
         23    2    1    2    0    0 -0.93884594331E+03 -0.19545384793E+04 -0.28329131869E+04  0.35686729564E+04  0.91526897982E+02 0.  0.
         11    1    3    3    0    0 -0.14232619002E+03 -0.37016412462E+03 -0.49324572697E+03  0.63290565703E+03  0.00000000000E+00 0. -1.
        -11    1    3    3    0    0 -0.79651975329E+03 -0.15843743547E+04 -0.23396674599E+04  0.29357672994E+04  0.00000000000E+00 0.  1.
         22    1    1    2    0    0  0.93884594331E+03  0.19545384793E+04 -0.23639404691E+03  0.21811773238E+04  0.00000000000E+00 0.  1.
<mgrwt>
<rscale>  0 0.48621118E+04</rscale>
<asrwt>0</asrwt>
<pdfrwt beam="1">  1        1 0.67839674E+00 0.48621118E+04</pdfrwt>
<pdfrwt beam="2">  1       -1 0.20619562E+00 0.48621118E+04</pdfrwt>
<totfact> 0.39342603E-03</totfact>
</mgrwt>
</event>
<event>
 6    1  0.1568961E-005  0.1045528E+04  0.7818608E-02  0.9259974E-01
         -2   -1    0    0    0  501 -0.00000000000E+00  0.00000000000E+00  0.11811100281E+03  0.11811100281E+03  0.00000000000E+00 0.  1.
          2   -1    0    0  501    0  0.00000000000E+00 -0.00000000000E+00 -0.23137728790E+04  0.23137728790E+04  0.00000000000E+00 0. -1.
         23    2    1    2    0    0  0.38904436021E+03  0.72169176292E+02 -0.32422052811E+03  0.51907008440E+03  0.88039181393E+02 0.  0.
         11    1    3    3    0    0  0.27825418149E+03  0.37923140120E+02 -0.27514187907E+03  0.39314959963E+03  0.00000000000E+00 0. -1.
        -11    1    3    3    0    0  0.11079017872E+03  0.34246036172E+02 -0.49078649042E+02  0.12592048478E+03  0.00000000000E+00 0.  1.
         22    1    1    2    0    0 -0.38904436021E+03 -0.72169176292E+02 -0.18714413481E+04  0.19128137974E+04  0.00000000000E+00 0.  1.
<mgrwt>
<rscale>  0 0.10455277E+04</rscale>
<asrwt>0</asrwt>
<pdfrwt beam="1">  1        2 0.35596503E+00 0.10455277E+04</pdfrwt>
<pdfrwt beam="2">  1       -2 0.18170925E-01 0.10455277E+04</pdfrwt>
<totfact> 0.11290005E+02</totfact>
</mgrwt>
</event>
<event>
 6    1  0.1568961E-005  0.3356098E+04  0.7818608E-02  0.8148766E-01
         -1   -1    0    0    0  501 -0.00000000000E+00  0.00000000000E+00  0.11263009009E+04  0.11263009009E+04  0.00000000000E+00 0.  1.
          1   -1    0    0  501    0  0.00000000000E+00 -0.00000000000E+00 -0.25000848448E+04  0.25000848448E+04  0.00000000000E+00 0. -1.
         23    2    1    2    0    0 -0.95403698007E+03 -0.14017572028E+03  0.79432743639E+03  0.12535092742E+04  0.10243843198E+03 0.  0.
         11    1    3    3    0    0 -0.54724667038E+03 -0.50216639587E+02  0.50441947973E+03  0.74594881907E+03  0.00000000000E+00 0.  1.
        -11    1    3    3    0    0 -0.40679030969E+03 -0.89959080696E+02  0.28990795665E+03  0.50756045511E+03  0.00000000000E+00 0. -1.
         22    1    1    2    0    0  0.95403698007E+03  0.14017572028E+03 -0.21681113803E+04  0.23728764716E+04  0.00000000000E+00 0. -1.
<mgrwt>
<rscale>  0 0.33560976E+04</rscale>
<asrwt>0</asrwt>
<pdfrwt beam="1">  1        1 0.38462844E+00 0.33560976E+04</pdfrwt>
<pdfrwt beam="2">  1       -1 0.17327706E+00 0.33560976E+04</pdfrwt>
<totfact> 0.26035617E-01</totfact>
</mgrwt>
</event>
<event>
 6    1  0.1568961E-005  0.2667800E+04  0.7818608E-02  0.8345529E-01
          1   -1    0    0  501    0  0.00000000000E+00  0.00000000000E+00  0.10416726177E+04  0.10416726177E+04  0.00000000000E+00 0. -1.
         -1   -1    0    0    0  501 -0.00000000000E+00 -0.00000000000E+00 -0.17081074153E+04  0.17081074153E+04  0.00000000000E+00 0.  1.
         23    2    1    2    0    0 -0.84319288196E+02 -0.10474692572E+04 -0.11779550192E+04  0.15810394611E+04  0.88352493664E+02 0.  0.
         13    1    3    3    0    0 -0.79026270572E+02 -0.84077063396E+03 -0.99395598489E+03  0.13042579922E+04  0.00000000000E+00 0. -1.
        -13    1    3    3    0    0 -0.52930176240E+01 -0.20669862325E+03 -0.18399903431E+03  0.27678146888E+03  0.00000000000E+00 0.  1.
         22    1    1    2    0    0  0.84319288196E+02  0.10474692572E+04  0.51152022162E+03  0.11687405718E+04  0.00000000000E+00 0. -1.
<mgrwt>
<rscale>  0 0.26677996E+04</rscale>
<asrwt>0</asrwt>
<pdfrwt beam="1">  1        1 0.16025733E+00 0.26677996E+04</pdfrwt>
<pdfrwt beam="2">  1       -1 0.26278575E+00 0.26677996E+04</pdfrwt>
<totfact> 0.70769472E-01</totfact>
</mgrwt>
</event>
<event>
 6    1  0.1568961E-005  0.2779698E+04  0.7818608E-02  0.8309599E-01
          1   -1    0    0  501    0  0.00000000000E+00  0.00000000000E+00  0.18022231157E+04  0.18022231157E+04  0.00000000000E+00 0. -1.
         -1   -1    0    0    0  501 -0.00000000000E+00 -0.00000000000E+00 -0.10718318213E+04  0.10718318213E+04  0.00000000000E+00 0.  1.
         23    2    1    2    0    0  0.47496408665E+03 -0.11236087499E+04  0.10509621337E+04  0.16127646575E+04  0.91656573844E+02 0.  0.
         11    1    3    3    0    0  0.21910684600E+03 -0.44219238179E+03  0.46955854336E+03  0.68119537441E+03  0.00000000000E+00 0. -1.
        -11    1    3    3    0    0  0.25585724065E+03 -0.68141636809E+03  0.58140359032E+03  0.93156928306E+03  0.00000000000E+00 0.  1.
         22    1    1    2    0    0 -0.47496408665E+03  0.11236087499E+04 -0.32057083930E+03  0.12612902796E+04  0.00000000000E+00 0.  1.
<mgrwt>
<rscale>  0 0.27796979E+04</rscale>
<asrwt>0</asrwt>
<pdfrwt beam="1">  1        1 0.27726509E+00 0.27796979E+04</pdfrwt>
<pdfrwt beam="2">  1       -1 0.16489720E+00 0.27796979E+04</pdfrwt>
<totfact> 0.94520343E-01</totfact>
</mgrwt>
</event>
<event>
 6    1  0.1568961E-005  0.7852989E+03  0.7818608E-02  0.9581543E-01
          1   -1    0    0  501    0  0.00000000000E+00  0.00000000000E+00  0.68743547184E+03  0.68743547184E+03  0.00000000000E+00 0. -1.
         -1   -1    0    0    0  501 -0.00000000000E+00 -0.00000000000E+00 -0.22427357249E+03  0.22427357249E+03  0.00000000000E+00 0.  1.
         23    2    1    2    0    0 -0.21206415403E+03  0.13882842176E+03 -0.10564033195E+03  0.28898879058E+03  0.90056122687E+02 0.  0.
         11    1    3    3    0    0 -0.44911992118E+02  0.61512947968E+02 -0.65598148007E+02  0.10051888791E+03  0.00000000000E+00 0.  1.
        -11    1    3    3    0    0 -0.16715216191E+03  0.77315473790E+02 -0.40042183945E+02  0.18846990267E+03  0.00000000000E+00 0. -1.
         22    1    1    2    0    0  0.21206415403E+03 -0.13882842176E+03  0.56880223130E+03  0.62272025376E+03  0.00000000000E+00 0. -1.
<mgrwt>
<rscale>  0 0.78529895E+03</rscale>
<asrwt>0</asrwt>
<pdfrwt beam="1">  1        1 0.10575930E+00 0.78529895E+03</pdfrwt>
<pdfrwt beam="2">  1       -1 0.34503627E-01 0.78529895E+03</pdfrwt>
<totfact> 0.22527430E+02</totfact>
</mgrwt>
</event>
<event>
 6    1  0.1568961E-005  0.2901994E+04  0.7818608E-02  0.8272284E-01
          2   -1    0    0  501    0  0.00000000000E+00  0.00000000000E+00  0.25834150696E+04  0.25834150696E+04  0.00000000000E+00 0. -1.
         -2   -1    0    0    0  501 -0.00000000000E+00 -0.00000000000E+00 -0.81496502305E+03  0.81496502305E+03  0.00000000000E+00 0.  1.
         23    2    1    2    0    0  0.10154794201E+04 -0.78214425298E+02 -0.32297934527E+03  0.10721400255E+04  0.88615054371E+02 0.  0.
         13    1    3    3    0    0  0.24532313875E+03  0.10100091780E+02 -0.10359998799E+03  0.26649279873E+03  0.00000000000E+00 0.  1.
        -13    1    3    3    0    0  0.77015628135E+03 -0.88314517078E+02 -0.21937935728E+03  0.80564722679E+03  0.00000000000E+00 0. -1.
         22    1    1    2    0    0 -0.10154794201E+04  0.78214425298E+02  0.20914293918E+04  0.23262400672E+04  0.00000000000E+00 0. -1.
<mgrwt>
<rscale>  0 0.29019944E+04</rscale>
<asrwt>0</asrwt>
<pdfrwt beam="1">  1        2 0.39744847E+00 0.29019944E+04</pdfrwt>
<pdfrwt beam="2">  1       -2 0.12537924E+00 0.29019944E+04</pdfrwt>
<totfact> 0.12775764E+00</totfact>
</mgrwt>
</event>
<event>
 6    1  0.1568961E-005  0.2850230E+04  0.7818608E-02  0.8287841E-01
         -1   -1    0    0    0  501 -0.00000000000E+00  0.00000000000E+00  0.19972492893E+04  0.19972492893E+04  0.00000000000E+00 0.  1.
          1   -1    0    0  501    0  0.00000000000E+00 -0.00000000000E+00 -0.10168750481E+04  0.10168750481E+04  0.00000000000E+00 0. -1.
         23    2    1    2    0    0  0.27961635251E+03  0.82175158263E+03 -0.70226095733E+03  0.11207880811E+04  0.97644777068E+02 0.  0.
         13    1    3    3    0    0  0.62555186608E+02  0.26010043864E+03 -0.26571610310E+03  0.37705495223E+03  0.00000000000E+00 0.  1.
        -13    1    3    3    0    0  0.21706116590E+03  0.56165114400E+03 -0.43654485424E+03  0.74373312892E+03  0.00000000000E+00 0. -1.
         22    1    1    2    0    0 -0.27961635251E+03 -0.82175158263E+03  0.16826351985E+04  0.18933362563E+04  0.00000000000E+00 0.  1.
<mgrwt>
<rscale>  0 0.28502301E+04</rscale>
<asrwt>0</asrwt>
<pdfrwt beam="1">  1        1 0.15644231E+00 0.28502301E+04</pdfrwt>
<pdfrwt beam="2">  1       -1 0.30726912E+00 0.28502301E+04</pdfrwt>
<totfact> 0.37481508E-01</totfact>
</mgrwt>
</event>
<event>
 6    1  0.1568961E-005  0.2491038E+04  0.7818608E-02  0.8406185E-01
          3   -1    0    0  501    0  0.00000000000E+00  0.00000000000E+00  0.14973838659E+04  0.14973838659E+04  0.00000000000E+00 0. -1.
         -3   -1    0    0    0  501 -0.00000000000E+00 -0.00000000000E+00 -0.10360185414E+04  0.10360185414E+04  0.00000000000E+00 0.  1.
         23    2    1    2    0    0 -0.89148734162E+03 -0.85932230190E+03  0.35118028059E+03  0.12902912929E+04  0.91321039873E+02 0.  0.
         13    1    3    3    0    0 -0.21496085378E+03 -0.18730010084E+03  0.11837757890E+03  0.30871143099E+03  0.00000000000E+00 0. -1.
        -13    1    3    3    0    0 -0.67652648784E+03 -0.67202220106E+03  0.23280270168E+03  0.98157986195E+03  0.00000000000E+00 0.  1.
         22    1    1    2    0    0  0.89148734162E+03  0.85932230190E+03  0.11018504395E+03  0.12431111144E+04  0.00000000000E+00 0.  1.
<mgrwt>
<rscale>  0 0.24910379E+04</rscale>
<asrwt>0</asrwt>
<pdfrwt beam="1">  1        3 0.23036675E+00 0.24910379E+04</pdfrwt>
<pdfrwt beam="2">  1       -3 0.15938747E+00 0.24910379E+04</pdfrwt>
<totfact> 0.61478866E-02</totfact>
</mgrwt>
</event>
<event>
 6    1  0.1568961E-005  0.1810103E+04  0.7818608E-02  0.8700945E-01
          1   -1    0    0  501    0  0.00000000000E+00  0.00000000000E+00  0.45093285413E+03  0.45093285413E+03  0.00000000000E+00 0. -1.
         -1   -1    0    0    0  501 -0.00000000000E+00 -0.00000000000E+00 -0.18164975006E+04  0.18164975006E+04  0.00000000000E+00 0.  1.
         23    2    1    2    0    0  0.74863250397E+03  0.49143004892E+03 -0.54361807642E+03  0.10518850931E+04  0.94802516530E+02 0.  0.
         13    1    3    3    0    0  0.45549038833E+03  0.33711551152E+03 -0.38099488918E+03  0.68284366260E+03  0.00000000000E+00 0. -1.
        -13    1    3    3    0    0  0.29314211564E+03  0.15431453740E+03 -0.16262318723E+03  0.36904143052E+03  0.00000000000E+00 0.  1.
         22    1    1    2    0    0 -0.74863250397E+03 -0.49143004892E+03 -0.82194657003E+03  0.12155452616E+04  0.00000000000E+00 0.  1.
<mgrwt>
<rscale>  0 0.18101032E+04</rscale>
<asrwt>0</asrwt>
<pdfrwt beam="1">  1        1 0.69374286E-01 0.18101032E+04</pdfrwt>
<pdfrwt beam="2">  1       -1 0.27946115E+00 0.18101032E+04</pdfrwt>
<totfact> 0.21611755E+00</totfact>
</mgrwt>
</event>
<event>
 6    1  0.1568961E-005  0.2424886E+04  0.7818608E-02  0.8430245E-01
         -3   -1    0    0    0  501 -0.00000000000E+00  0.00000000000E+00  0.14449339625E+04  0.14449339625E+04  0.00000000000E+00 0.  1.
          3   -1    0    0  501    0  0.00000000000E+00 -0.00000000000E+00 -0.10173597356E+04  0.10173597356E+04  0.00000000000E+00 0. -1.
         23    2    1    2    0    0 -0.10712659101E+04  0.44268935114E+03  0.56900536624E+03  0.12945662989E+04  0.92467744225E+02 0.  0.
         11    1    3    3    0    0 -0.76523434301E+03  0.29749855821E+03  0.44487959654E+03  0.93381306870E+03  0.00000000000E+00 0. -1.
        -11    1    3    3    0    0 -0.30603156705E+03  0.14519079293E+03  0.12412576970E+03  0.36075323018E+03  0.00000000000E+00 0.  1.
         22    1    1    2    0    0  0.10712659101E+04 -0.44268935114E+03 -0.14143113935E+03  0.11677273992E+04  0.00000000000E+00 0. -1.
<mgrwt>
<rscale>  0 0.24248857E+04</rscale>
<asrwt>0</asrwt>
<pdfrwt beam="1">  1        3 0.15651688E+00 0.24248857E+04</pdfrwt>
<pdfrwt beam="2">  1       -3 0.22229753E+00 0.24248857E+04</pdfrwt>
<totfact> 0.72185606E-02</totfact>
</mgrwt>
</event>
<event>
 6    1  0.1568961E-005  0.1426261E+04  0.7818608E-02  0.8935026E-01
         -1   -1    0    0    0  501 -0.00000000000E+00  0.00000000000E+00  0.46547023271E+03  0.46547023271E+03  0.00000000000E+00 0.  1.
          1   -1    0    0  501    0  0.00000000000E+00 -0.00000000000E+00 -0.10925617539E+04  0.10925617539E+04  0.00000000000E+00 0. -1.
         23    2    1    2    0    0  0.62399642508E+03 -0.35300672897E+02 -0.68329977962E+03  0.93051541761E+03  0.91338259011E+02 0.  0.
         11    1    3    3    0    0  0.30244557000E+03  0.26721669386E+02 -0.30968858097E+03  0.43369849851E+03  0.00000000000E+00 0. -1.
        -11    1    3    3    0    0  0.32155085508E+03 -0.62022342283E+02 -0.37361119865E+03  0.49681691910E+03  0.00000000000E+00 0.  1.
         22    1    1    2    0    0 -0.62399642508E+03  0.35300672897E+02  0.56208258467E+02  0.62751656897E+03  0.00000000000E+00 0.  1.
<mgrwt>
<rscale>  0 0.14262608E+04</rscale>
<asrwt>0</asrwt>
<pdfrwt beam="1">  1        1 0.16808642E+00 0.14262608E+04</pdfrwt>
<pdfrwt beam="2">  1       -1 0.71610807E-01 0.14262608E+04</pdfrwt>
<totfact> 0.24606166E+01</totfact>
</mgrwt>
</event>
<event>
 6    1  0.1568961E-005  0.1479287E+04  0.7818608E-02  0.8898345E-01
          1   -1    0    0  501    0  0.00000000000E+00  0.00000000000E+00  0.45584253610E+03  0.45584253610E+03  0.00000000000E+00 0. -1.
         -1   -1    0    0    0  501 -0.00000000000E+00 -0.00000000000E+00 -0.12001344657E+04  0.12001344657E+04  0.00000000000E+00 0.  1.
         23    2    1    2    0    0  0.26618804608E+03  0.42279187424E+03  0.23274277695E+03  0.55861386108E+03  0.90946142146E+02 0.  0.
         13    1    3    3    0    0  0.16891402868E+03  0.30224909143E+03  0.11782862825E+03  0.36574587898E+03  0.00000000000E+00 0. -1.
        -13    1    3    3    0    0  0.97274017394E+02  0.12054278281E+03  0.11491414870E+03  0.19286798210E+03  0.00000000000E+00 0.  1.
         22    1    1    2    0    0 -0.26618804608E+03 -0.42279187424E+03 -0.97703470651E+03  0.10973631407E+04  0.00000000000E+00 0.  1.
<mgrwt>
<rscale>  0 0.14792868E+04</rscale>
<asrwt>0</asrwt>
<pdfrwt beam="1">  1        1 0.70129622E-01 0.14792868E+04</pdfrwt>
<pdfrwt beam="2">  1       -1 0.18463607E+00 0.14792868E+04</pdfrwt>
<totfact> 0.93989216E+00</totfact>
</mgrwt>
</event>
<event>
 6    1  0.1568961E-005  0.2241481E+04  0.7818608E-02  0.8501359E-01
         -1   -1    0    0    0  501 -0.00000000000E+00  0.00000000000E+00  0.21630215151E+04  0.21630215151E+04  0.00000000000E+00 0.  1.
          1   -1    0    0  501    0  0.00000000000E+00 -0.00000000000E+00 -0.58069651228E+03  0.58069651228E+03  0.00000000000E+00 0. -1.
         23    2    1    2    0    0 -0.89476204704E+03 -0.44814414101E+03  0.14051148903E+04  0.17274327741E+04  0.90795606319E+02 0.  0.
         11    1    3    3    0    0 -0.40885665450E+03 -0.22280258495E+03  0.72655343545E+03  0.86295112860E+03  0.00000000000E+00 0.  1.
        -11    1    3    3    0    0 -0.48590539255E+03 -0.22534155606E+03  0.67856145488E+03  0.86448164552E+03  0.00000000000E+00 0. -1.
         22    1    1    2    0    0  0.89476204704E+03  0.44814414101E+03  0.17721011246E+03  0.10162852532E+04  0.00000000000E+00 0. -1.
<mgrwt>
<rscale>  0 0.22414808E+04</rscale>
<asrwt>0</asrwt>
<pdfrwt beam="1">  1        1 0.89337926E-01 0.22414808E+04</pdfrwt>
<pdfrwt beam="2">  1       -1 0.33277254E+00 0.22414808E+04</pdfrwt>
<totfact> 0.65885024E-01</totfact>
</mgrwt>
</event>
<event>
 6    1  0.1568961E-005  0.2469555E+04  0.7818608E-02  0.8413913E-01
         -1   -1    0    0    0  501 -0.00000000000E+00  0.00000000000E+00  0.84477452691E+03  0.84477452691E+03  0.00000000000E+00 0.  1.
          1   -1    0    0  501    0  0.00000000000E+00 -0.00000000000E+00 -0.18048318694E+04  0.18048318694E+04  0.00000000000E+00 0. -1.
         23    2    1    2    0    0 -0.12132017501E+04 -0.74920481451E+02 -0.70331802988E+03  0.14072752650E+04  0.91081586368E+02 0.  0.
         11    1    3    3    0    0 -0.43370186233E+03 -0.27338643552E+02 -0.20159899120E+03  0.47904786825E+03  0.00000000000E+00 0. -1.
        -11    1    3    3    0    0 -0.77949988780E+03 -0.47581837899E+02 -0.50171903868E+03  0.92822739679E+03  0.00000000000E+00 0.  1.
         22    1    1    2    0    0  0.12132017501E+04  0.74920481451E+02 -0.25673931261E+03  0.12423311313E+04  0.00000000000E+00 0. -1.
<mgrwt>
<rscale>  0 0.24695554E+04</rscale>
<asrwt>0</asrwt>
<pdfrwt beam="1">  1        1 0.27766644E+00 0.24695554E+04</pdfrwt>
<pdfrwt beam="2">  1       -1 0.12996531E+00 0.24695554E+04</pdfrwt>
<totfact> 0.18275985E+00</totfact>
</mgrwt>
</event>
<event>
 6    1  0.1568961E-005  0.2381268E+04  0.7818608E-02  0.8446550E-01
          1   -1    0    0  501    0  0.00000000000E+00  0.00000000000E+00  0.99849070629E+03  0.99849070629E+03  0.00000000000E+00 0. -1.
         -1   -1    0    0    0  501 -0.00000000000E+00 -0.00000000000E+00 -0.14197524377E+04  0.14197524377E+04  0.00000000000E+00 0.  1.
         23    2    1    2    0    0  0.20875564901E+03 -0.11584144501E+04 -0.34057920961E+02  0.11791185538E+04  0.60478612970E+02 0.  0.
         13    1    3    3    0    0  0.18093945816E+03 -0.10424405486E+04 -0.47547666141E+02  0.10590949747E+04  0.00000000000E+00 0. -1.
        -13    1    3    3    0    0  0.27816190856E+02 -0.11597390148E+03  0.13489745180E+02  0.12002357903E+03  0.00000000000E+00 0.  1.
         22    1    1    2    0    0 -0.20875564901E+03  0.11584144501E+04 -0.38720381043E+03  0.12391245902E+04  0.00000000000E+00 0.  1.
<mgrwt>
<rscale>  0 0.23812682E+04</rscale>
<asrwt>0</asrwt>
<pdfrwt beam="1">  1        1 0.15361396E+00 0.23812682E+04</pdfrwt>
<pdfrwt beam="2">  1       -1 0.21842345E+00 0.23812682E+04</pdfrwt>
<totfact> 0.15355850E+00</totfact>
</mgrwt>
</event>
<event>
 6    1  0.1568961E-005  0.6356441E+03  0.7818608E-02  0.9834096E-01
          2   -1    0    0  501    0  0.00000000000E+00  0.00000000000E+00  0.15745311719E+04  0.15745311719E+04  0.00000000000E+00 0. -1.
         -2   -1    0    0    0  501 -0.00000000000E+00 -0.00000000000E+00 -0.64152976347E+02  0.64152976347E+02  0.00000000000E+00 0.  1.
         23    2    1    2    0    0 -0.17771860357E+03  0.25424102696E+03  0.83358088054E+03  0.89418632591E+03  0.92139563698E+02 0.  0.
         11    1    3    3    0    0 -0.23396342185E+02  0.91511801625E+02  0.32288442770E+03  0.33641663501E+03  0.00000000000E+00 0.  1.
        -11    1    3    3    0    0 -0.15432226138E+03  0.16272922534E+03  0.51069645284E+03  0.55776969090E+03  0.00000000000E+00 0. -1.
         22    1    1    2    0    0  0.17771860357E+03 -0.25424102696E+03  0.67679731497E+03  0.74449782229E+03  0.00000000000E+00 0.  1.
<mgrwt>
<rscale>  0 0.63564412E+03</rscale>
<asrwt>0</asrwt>
<pdfrwt beam="1">  1        2 0.24223554E+00 0.63564412E+03</pdfrwt>
<pdfrwt beam="2">  1       -2 0.98696898E-02 0.63564412E+03</pdfrwt>
<totfact> 0.82381848E+02</totfact>
</mgrwt>
</event>
<event>
 6    1  0.1568961E-005  0.2078665E+04  0.7818608E-02  0.8570700E-01
         -3   -1    0    0    0  501 -0.00000000000E+00  0.00000000000E+00  0.66296844771E+03  0.66296844771E+03  0.00000000000E+00 0.  1.
          3   -1    0    0  501    0  0.00000000000E+00 -0.00000000000E+00 -0.16293567414E+04  0.16293567414E+04  0.00000000000E+00 0. -1.
         23    2    1    2    0    0  0.39419183726E+03  0.57048752045E+02  0.57196738484E+03  0.70324370651E+03  0.93612268122E+02 0.  0.
         13    1    3    3    0    0  0.23209693687E+03  0.17808410533E+02  0.40574792887E+03  0.46777933834E+03  0.00000000000E+00 0. -1.
        -13    1    3    3    0    0  0.16209490039E+03  0.39240341511E+02  0.16621945597E+03  0.23546436817E+03  0.00000000000E+00 0.  1.
         22    1    1    2    0    0 -0.39419183726E+03 -0.57048752045E+02 -0.15383556785E+04  0.15890814826E+04  0.00000000000E+00 0. -1.
<mgrwt>
<rscale>  0 0.20786651E+04</rscale>
<asrwt>0</asrwt>
<pdfrwt beam="1">  1        3 0.25067026E+00 0.20786651E+04</pdfrwt>
<pdfrwt beam="2">  1       -3 0.10199515E+00 0.20786651E+04</pdfrwt>
<totfact> 0.14732551E-01</totfact>
</mgrwt>
</event>
<event>
 6    1  0.1568961E-005  0.2908557E+04  0.7818608E-02  0.8270336E-01
         -2   -1    0    0    0  501 -0.00000000000E+00  0.00000000000E+00  0.93563714271E+03  0.93563714271E+03  0.00000000000E+00 0.  1.
          2   -1    0    0  501    0  0.00000000000E+00 -0.00000000000E+00 -0.22604122545E+04  0.22604122545E+04  0.00000000000E+00 0. -1.
         23    2    1    2    0    0 -0.30494855026E+03  0.63366811310E+03  0.73389689709E+03  0.10205817840E+04  0.91943604801E+02 0.  0.
         11    1    3    3    0    0 -0.22078773201E+03  0.43651336879E+03  0.44862029247E+03  0.66374039395E+03  0.00000000000E+00 0. -1.
        -11    1    3    3    0    0 -0.84160818255E+02  0.19715474431E+03  0.28527660462E+03  0.35684139008E+03  0.00000000000E+00 0.  1.
         22    1    1    2    0    0  0.30494855026E+03 -0.63366811310E+03 -0.20586720088E+04  0.21754676131E+04  0.00000000000E+00 0. -1.
<mgrwt>
<rscale>  0 0.29085568E+04</rscale>
<asrwt>0</asrwt>
<pdfrwt beam="1">  1        2 0.34775573E+00 0.29085568E+04</pdfrwt>
<pdfrwt beam="2">  1       -2 0.14394418E+00 0.29085568E+04</pdfrwt>
<totfact> 0.13751982E+00</totfact>
</mgrwt>
</event>
<event>
 6    1  0.1568961E-005  0.2054538E+04  0.7818608E-02  0.8581538E-01
          2   -1    0    0  501    0  0.00000000000E+00  0.00000000000E+00  0.19128846777E+04  0.19128846777E+04  0.00000000000E+00 0.  1.
         -2   -1    0    0    0  501 -0.00000000000E+00 -0.00000000000E+00 -0.55167023522E+03  0.55167023522E+03  0.00000000000E+00 0. -1.
         23    2    1    2    0    0  0.58500572515E+03  0.59943309152E+03 -0.27224491683E+02  0.84303883111E+03  0.91769102426E+02 0.  0.
         11    1    3    3    0    0  0.28351858193E+03  0.23114461517E+03  0.68784206879E+01  0.36586600292E+03  0.00000000000E+00 0.  1.
        -11    1    3    3    0    0  0.30148714321E+03  0.36828847634E+03 -0.34102912371E+02  0.47717282819E+03  0.00000000000E+00 0. -1.
         22    1    1    2    0    0 -0.58500572515E+03 -0.59943309152E+03  0.13884389341E+04  0.16215160818E+04  0.00000000000E+00 0.  1.
<mgrwt>
<rscale>  0 0.20545379E+04</rscale>
<asrwt>0</asrwt>
<pdfrwt beam="1">  1        2 0.29428995E+00 0.20545379E+04</pdfrwt>
<pdfrwt beam="2">  1       -2 0.84872345E-01 0.20545379E+04</pdfrwt>
<totfact> 0.83525251E+00</totfact>
</mgrwt>
</event>
<event>
 6    1  0.1568961E-005  0.2074013E+04  0.7818608E-02  0.8572778E-01
          2   -1    0    0  501    0  0.00000000000E+00  0.00000000000E+00  0.27319091729E+04  0.27319091729E+04  0.00000000000E+00 0. -1.
         -2   -1    0    0    0  501 -0.00000000000E+00 -0.00000000000E+00 -0.39363786410E+03  0.39363786410E+03  0.00000000000E+00 0.  1.
         23    2    1    2    0    0  0.14590064996E+03 -0.49391924357E+03  0.25243515022E+04  0.25779440265E+04  0.90563117110E+02 0.  0.
         11    1    3    3    0    0  0.37618490653E+02 -0.27529188299E+03  0.12605362095E+04  0.12907952228E+04  0.00000000000E+00 0.  1.
        -11    1    3    3    0    0  0.10828215931E+03 -0.21862736059E+03  0.12638152927E+04  0.12871488037E+04  0.00000000000E+00 0. -1.
         22    1    1    2    0    0 -0.14590064996E+03  0.49391924357E+03 -0.18608019335E+03  0.54760301057E+03  0.00000000000E+00 0.  1.
<mgrwt>
<rscale>  0 0.20740134E+04</rscale>
<asrwt>0</asrwt>
<pdfrwt beam="1">  1        2 0.42029371E+00 0.20740134E+04</pdfrwt>
<pdfrwt beam="2">  1       -2 0.60559673E-01 0.20740134E+04</pdfrwt>
<totfact> 0.59658609E+00</totfact>
</mgrwt>
</event>
<event>
 6    1  0.1763696E-005  0.2777888E+04  0.7818608E-02  0.8310166E-01
          2   -1    0    0  501    0  0.00000000000E+00  0.00000000000E+00  0.16872581349E+04  0.16872581349E+04  0.00000000000E+00 0. -1.
         -2   -1    0    0    0  501 -0.00000000000E+00 -0.00000000000E+00 -0.11433732488E+04  0.11433732488E+04  0.00000000000E+00 0.  1.
         23    2    1    2    0    0  0.78166579784E+03 -0.23199315086E+03 -0.87171489038E+03  0.11970019984E+04  0.90026065682E+02 0.  0.
         13    1    3    3    0    0  0.54187961183E+03 -0.17819317684E+03 -0.66269325001E+03  0.87438473546E+03  0.00000000000E+00 0.  1.
        -13    1    3    3    0    0  0.23978618601E+03 -0.53799974019E+02 -0.20902164037E+03  0.32261726294E+03  0.00000000000E+00 0. -1.
         22    1    1    2    0    0 -0.78166579784E+03  0.23199315086E+03  0.14155997764E+04  0.16336293853E+04  0.00000000000E+00 0. -1.
<mgrwt>
<rscale>  0 0.27778883E+04</rscale>
<asrwt>0</asrwt>
<pdfrwt beam="1">  1        2 0.25957817E+00 0.27778883E+04</pdfrwt>
<pdfrwt beam="2">  1       -2 0.17590358E+00 0.27778883E+04</pdfrwt>
<totfact> 0.16828818E+00</totfact>
</mgrwt>
</event>
<event>
 6    1  0.1568961E-005  0.1306197E+04  0.7818608E-02  0.9024665E-01
          2   -1    0    0  501    0  0.00000000000E+00  0.00000000000E+00  0.65837879594E+03  0.65837879594E+03  0.00000000000E+00 0. -1.
         -2   -1    0    0    0  501 -0.00000000000E+00 -0.00000000000E+00 -0.64786048001E+03  0.64786048001E+03  0.00000000000E+00 0.  1.
         23    2    1    2    0    0  0.46193420306E+03  0.28534277970E+03 -0.35173250835E+03  0.65353002247E+03  0.92639208544E+02 0.  0.
         11    1    3    3    0    0  0.18025856319E+03  0.10970418507E+03 -0.19139497489E+03  0.28488628299E+03  0.00000000000E+00 0. -1.
        -11    1    3    3    0    0  0.28167563987E+03  0.17563859463E+03 -0.16033753346E+03  0.36864373948E+03  0.00000000000E+00 0.  1.
         22    1    1    2    0    0 -0.46193420306E+03 -0.28534277970E+03  0.36225082429E+03  0.65270925348E+03  0.00000000000E+00 0. -1.
<mgrwt>
<rscale>  0 0.13061969E+04</rscale>
<asrwt>0</asrwt>
<pdfrwt beam="1">  1        2 0.10128905E+00 0.13061969E+04</pdfrwt>
<pdfrwt beam="2">  1       -2 0.99670843E-01 0.13061969E+04</pdfrwt>
<totfact> 0.36103306E+01</totfact>
</mgrwt>
</event>
<event>
 6    1  0.1568961E-005  0.9270517E+03  0.7818608E-02  0.9392383E-01
         -2   -1    0    0    0  501 -0.00000000000E+00  0.00000000000E+00  0.19885554549E+03  0.19885554549E+03  0.00000000000E+00 0.  1.
          2   -1    0    0  501    0  0.00000000000E+00 -0.00000000000E+00 -0.10804637060E+04  0.10804637060E+04  0.00000000000E+00 0. -1.
         23    2    1    2    0    0  0.14839561694E+03  0.42554739895E+03 -0.32582651684E+03  0.56377394662E+03  0.92554286394E+02 0.  0.
         13    1    3    3    0    0 -0.11599833172E+02  0.27135601781E+02 -0.31936704884E+02  0.43483906592E+02  0.00000000000E+00 0.  1.
        -13    1    3    3    0    0  0.15999545011E+03  0.39841179717E+03 -0.29388981195E+03  0.52029004003E+03  0.00000000000E+00 0. -1.
         22    1    1    2    0    0 -0.14839561694E+03 -0.42554739895E+03 -0.55578164371E+03  0.71554530490E+03  0.00000000000E+00 0. -1.
<mgrwt>
<rscale>  0 0.92705167E+03</rscale>
<asrwt>0</asrwt>
<pdfrwt beam="1">  1        2 0.16622518E+00 0.92705167E+03</pdfrwt>
<pdfrwt beam="2">  1       -2 0.30593162E-01 0.92705167E+03</pdfrwt>
<totfact> 0.22148493E+02</totfact>
</mgrwt>
</event>
<event>
 6    1  0.1568961E-005  0.1318424E+04  0.7818608E-02  0.9015081E-01
          1   -1    0    0  501    0  0.00000000000E+00  0.00000000000E+00  0.91723446947E+03  0.91723446947E+03  0.00000000000E+00 0. -1.
         -1   -1    0    0    0  501 -0.00000000000E+00 -0.00000000000E+00 -0.47377269012E+03  0.47377269012E+03  0.00000000000E+00 0.  1.
         23    2    1    2    0    0 -0.59551634543E+03 -0.23414819369E+03  0.66875137800E+02  0.64852309048E+03  0.81515768702E+02 0.  0.
         11    1    3    3    0    0 -0.14811373229E+03 -0.27790919698E+02  0.35516084803E+02  0.15482701699E+03  0.00000000000E+00 0.  1.
        -11    1    3    3    0    0 -0.44740261315E+03 -0.20635727399E+03  0.31359052997E+02  0.49369607350E+03  0.00000000000E+00 0. -1.
         22    1    1    2    0    0  0.59551634543E+03  0.23414819369E+03  0.37658664155E+03  0.74248406911E+03  0.00000000000E+00 0. -1.
<mgrwt>
<rscale>  0 0.13184243E+04</rscale>
<asrwt>0</asrwt>
<pdfrwt beam="1">  1        1 0.14111299E+00 0.13184243E+04</pdfrwt>
<pdfrwt beam="2">  1       -1 0.72888107E-01 0.13184243E+04</pdfrwt>
<totfact> 0.32808630E+01</totfact>
</mgrwt>
</event>
<event>
 6    1  0.1568961E-005  0.1883581E+04  0.7818608E-02  0.8663073E-01
         -2   -1    0    0    0  501 -0.00000000000E+00  0.00000000000E+00  0.36075455923E+03  0.36075455923E+03  0.00000000000E+00 0.  1.
          2   -1    0    0  501    0  0.00000000000E+00 -0.00000000000E+00 -0.24586503247E+04  0.24586503247E+04  0.00000000000E+00 0. -1.
         23    2    1    2    0    0  0.78690363088E+03  0.27106489235E+03 -0.40253492580E+03  0.93076995974E+03  0.10772581541E+03 0.  0.
         13    1    3    3    0    0  0.28570407312E+03  0.62414728367E+02 -0.18418053015E+03  0.34560799094E+03  0.00000000000E+00 0. -1.
        -13    1    3    3    0    0  0.50119955776E+03  0.20865016399E+03 -0.21835439564E+03  0.58516196879E+03  0.00000000000E+00 0.  1.
         22    1    1    2    0    0 -0.78690363088E+03 -0.27106489235E+03 -0.16953608396E+04  0.18886349241E+04  0.00000000000E+00 0. -1.
<mgrwt>
<rscale>  0 0.18835810E+04</rscale>
<asrwt>0</asrwt>
<pdfrwt beam="1">  1        2 0.37825391E+00 0.18835810E+04</pdfrwt>
<pdfrwt beam="2">  1       -2 0.55500699E-01 0.18835810E+04</pdfrwt>
<totfact> 0.10531672E+01</totfact>
</mgrwt>
</event>
<event>
 6    1  0.1568961E-005  0.2448988E+04  0.7818608E-02  0.8421388E-01
         -1   -1    0    0    0  501 -0.00000000000E+00  0.00000000000E+00  0.53616711284E+03  0.53616711284E+03  0.00000000000E+00 0.  1.
          1   -1    0    0  501    0  0.00000000000E+00 -0.00000000000E+00 -0.27964891527E+04  0.27964891527E+04  0.00000000000E+00 0. -1.
         23    2    1    2    0    0 -0.29599913242E+02 -0.12171920063E+04 -0.12858202506E+04  0.17731415101E+04  0.90909641506E+02 0.  0.
         13    1    3    3    0    0 -0.28957774360E+02 -0.73556636515E+03 -0.71404868001E+03  0.10255544586E+04  0.00000000000E+00 0.  1.
        -13    1    3    3    0    0 -0.64213888231E+00 -0.48162564117E+03 -0.57177157064E+03  0.74758705150E+03  0.00000000000E+00 0. -1.
         22    1    1    2    0    0  0.29599913242E+02  0.12171920063E+04 -0.97450178920E+03  0.15595147554E+04  0.00000000000E+00 0.  1.
<mgrwt>
<rscale>  0 0.24489880E+04</rscale>
<asrwt>0</asrwt>
<pdfrwt beam="1">  1        1 0.43022911E+00 0.24489880E+04</pdfrwt>
<pdfrwt beam="2">  1       -1 0.82487247E-01 0.24489880E+04</pdfrwt>
<totfact> 0.10925483E+00</totfact>
</mgrwt>
</event>
<event>
 6    1  0.1568961E-005  0.2954308E+04  0.7818608E-02  0.8256900E-01
          3   -1    0    0  501    0  0.00000000000E+00  0.00000000000E+00  0.20059120942E+04  0.20059120942E+04  0.00000000000E+00 0. -1.
         -3   -1    0    0    0  501 -0.00000000000E+00 -0.00000000000E+00 -0.10877766602E+04  0.10877766602E+04  0.00000000000E+00 0.  1.
         23    2    1    2    0    0  0.38708600250E+03 -0.86416757026E+03 -0.72584433651E+03  0.11965090980E+04  0.90348536197E+02 0.  0.
         13    1    3    3    0    0  0.38832221870E+03 -0.82313063602E+03 -0.69586773520E+03  0.11456745150E+04  0.00000000000E+00 0.  1.
        -13    1    3    3    0    0 -0.12362162032E+01 -0.41036934245E+02 -0.29976601315E+02  0.50834583004E+02  0.00000000000E+00 0. -1.
         22    1    1    2    0    0 -0.38708600250E+03  0.86416757026E+03  0.16439797705E+04  0.18971796564E+04  0.00000000000E+00 0. -1.
<mgrwt>
<rscale>  0 0.29543083E+04</rscale>
<asrwt>0</asrwt>
<pdfrwt beam="1">  1        3 0.30860186E+00 0.29543083E+04</pdfrwt>
<pdfrwt beam="2">  1       -3 0.16735026E+00 0.29543083E+04</pdfrwt>
<totfact> 0.18667026E-02</totfact>
</mgrwt>
</event>
<event>
 6    1  0.1568961E-005  0.1006315E+04  0.7818608E-02  0.9301646E-01
         -4   -1    0    0    0  501 -0.00000000000E+00  0.00000000000E+00  0.12143701421E+04  0.12143701421E+04  0.00000000000E+00 0.  1.
          4   -1    0    0  501    0  0.00000000000E+00 -0.00000000000E+00 -0.20847625179E+03  0.20847625179E+03  0.00000000000E+00 0. -1.
         23    2    1    2    0    0 -0.46750804734E+03 -0.12515742676E+03  0.67910197722E+03  0.83887626600E+03  0.91135823859E+02 0.  0.
         13    1    3    3    0    0 -0.39559840557E+03 -0.70093918112E+02  0.54610872550E+03  0.67797197280E+03  0.00000000000E+00 0.  1.
        -13    1    3    3    0    0 -0.71909641771E+02 -0.55063508648E+02  0.13299325173E+03  0.16090429320E+03  0.00000000000E+00 0. -1.
         22    1    1    2    0    0  0.46750804734E+03  0.12515742676E+03  0.32679191308E+03  0.58397012788E+03  0.00000000000E+00 0. -1.
<mgrwt>
<rscale>  0 0.10063147E+04</rscale>
<asrwt>0</asrwt>
<pdfrwt beam="1">  1        4 0.32073270E-01 0.10063147E+04</pdfrwt>
<pdfrwt beam="2">  1       -4 0.18682617E+00 0.10063147E+04</pdfrwt>
<totfact> 0.30337241E+00</totfact>
</mgrwt>
</event>
<event>
 6    1  0.1568961E-005  0.1683119E+04  0.7818608E-02  0.8771051E-01
          2   -1    0    0  501    0  0.00000000000E+00  0.00000000000E+00  0.19868793197E+04  0.19868793197E+04  0.00000000000E+00 0. -1.
         -2   -1    0    0    0  501 -0.00000000000E+00 -0.00000000000E+00 -0.35644970995E+03  0.35644970995E+03  0.00000000000E+00 0.  1.
         23    2    1    2    0    0 -0.71120324506E+03 -0.39774658111E+03  0.53754363953E+03  0.98009312105E+03  0.87275213856E+02 0.  0.
         13    1    3    3    0    0 -0.36657235508E+03 -0.17904091816E+03  0.22410678033E+03  0.46546191130E+03  0.00000000000E+00 0. -1.
        -13    1    3    3    0    0 -0.34463088998E+03 -0.21870566296E+03  0.31343685920E+03  0.51463120975E+03  0.00000000000E+00 0.  1.
         22    1    1    2    0    0  0.71120324506E+03  0.39774658111E+03  0.10928859702E+04  0.13632359086E+04  0.00000000000E+00 0.  1.
<mgrwt>
<rscale>  0 0.16831192E+04</rscale>
<asrwt>0</asrwt>
<pdfrwt beam="1">  1        2 0.30567373E+00 0.16831192E+04</pdfrwt>
<pdfrwt beam="2">  1       -2 0.54838418E-01 0.16831192E+04</pdfrwt>
<totfact> 0.20252672E+01</totfact>
</mgrwt>
</event>
<event>
 6    1  0.1568961E-005  0.4174152E+04  0.7818608E-02  0.7970307E-01
          2   -1    0    0  501    0  0.00000000000E+00  0.00000000000E+00  0.30651064156E+04  0.30651064156E+04  0.00000000000E+00 0. -1.
         -2   -1    0    0    0  501 -0.00000000000E+00 -0.00000000000E+00 -0.14211207290E+04  0.14211207290E+04  0.00000000000E+00 0.  1.
         23    2    1    2    0    0  0.14333985495E+04  0.80048583068E+03  0.22053691922E+04  0.27511304881E+04  0.98268619717E+02 0.  0.
         13    1    3    3    0    0  0.91420356419E+03  0.53055779126E+03  0.13454335655E+04  0.17109796041E+04  0.00000000000E+00 0.  1.
        -13    1    3    3    0    0  0.51919498534E+03  0.26992803942E+03  0.85993562675E+03  0.10401508840E+04  0.00000000000E+00 0. -1.
         22    1    1    2    0    0 -0.14333985495E+04 -0.80048583068E+03 -0.56138350567E+03  0.17350966565E+04  0.00000000000E+00 0.  1.
<mgrwt>
<rscale>  0 0.41741520E+04</rscale>
<asrwt>0</asrwt>
<pdfrwt beam="1">  1        2 0.47155483E+00 0.41741520E+04</pdfrwt>
<pdfrwt beam="2">  1       -2 0.21863396E+00 0.41741520E+04</pdfrwt>
<totfact> 0.12414563E-01</totfact>
</mgrwt>
</event>
<event>
 6    1  0.1568961E-005  0.2858564E+04  0.7818608E-02  0.8285314E-01
          2   -1    0    0  501    0  0.00000000000E+00  0.00000000000E+00  0.30228025103E+04  0.30228025103E+04  0.00000000000E+00 0. -1.
         -2   -1    0    0    0  501 -0.00000000000E+00 -0.00000000000E+00 -0.67581241589E+03  0.67581241589E+03  0.00000000000E+00 0.  1.
         23    2    1    2    0    0 -0.14043884110E+04  0.14097074979E+03  0.89996115231E+03  0.16772113741E+04  0.10453877978E+03 0.  0.
         11    1    3    3    0    0 -0.10624725796E+03 -0.11428821078E+02  0.49037782131E+02  0.11757466500E+03  0.00000000000E+00 0.  1.
        -11    1    3    3    0    0 -0.12981411530E+04  0.15239957087E+03  0.85092337018E+03  0.15596367091E+04  0.00000000000E+00 0. -1.
         22    1    1    2    0    0  0.14043884110E+04 -0.14097074979E+03  0.14470289421E+04  0.20214035521E+04  0.00000000000E+00 0.  1.
<mgrwt>
<rscale>  0 0.28585643E+04</rscale>
<asrwt>0</asrwt>
<pdfrwt beam="1">  1        2 0.46504653E+00 0.28585643E+04</pdfrwt>
<pdfrwt beam="2">  1       -2 0.10397114E+00 0.28585643E+04</pdfrwt>
<totfact> 0.10975089E+00</totfact>
</mgrwt>
</event>
<event>
 6    1  0.1568961E-005  0.1077015E+04  0.7818608E-02  0.9227889E-01
          2   -1    0    0  501    0  0.00000000000E+00  0.00000000000E+00  0.27515064180E+04  0.27515064180E+04  0.00000000000E+00 0. -1.
         -2   -1    0    0    0  501 -0.00000000000E+00 -0.00000000000E+00 -0.10539325281E+03  0.10539325281E+03  0.00000000000E+00 0.  1.
         23    2    1    2    0    0 -0.61944375329E+02  0.38990979835E+03  0.22888974450E+04  0.23244808251E+04  0.91065011402E+02 0.  0.
         11    1    3    3    0    0 -0.16961091652E+02  0.12169870610E+03  0.49156281954E+03  0.50668753611E+03  0.00000000000E+00 0.  1.
        -11    1    3    3    0    0 -0.44983283677E+02  0.26821109225E+03  0.17973346254E+04  0.18177932890E+04  0.00000000000E+00 0. -1.
         22    1    1    2    0    0  0.61944375329E+02 -0.38990979835E+03  0.35721572025E+03  0.53241884572E+03  0.00000000000E+00 0.  1.
<mgrwt>
<rscale>  0 0.10770148E+04</rscale>
<asrwt>0</asrwt>
<pdfrwt beam="1">  1        2 0.42330863E+00 0.10770148E+04</pdfrwt>
<pdfrwt beam="2">  1       -2 0.16214349E-01 0.10770148E+04</pdfrwt>
<totfact> 0.76727253E+01</totfact>
</mgrwt>
</event>
<event>
 6    1  0.1568961E-005  0.1802550E+04  0.7818608E-02  0.8704945E-01
          1   -1    0    0  501    0  0.00000000000E+00  0.00000000000E+00  0.12728244947E+04  0.12728244947E+04  0.00000000000E+00 0. -1.
         -1   -1    0    0    0  501 -0.00000000000E+00 -0.00000000000E+00 -0.63818425510E+03  0.63818425510E+03  0.00000000000E+00 0.  1.
         23    2    1    2    0    0  0.40438112380E+02  0.89831217104E+03  0.33616353888E+03  0.96354458772E+03  0.82536356139E+02 0.  0.
         13    1    3    3    0    0  0.47070482802E+02  0.33615161505E+03  0.10096241113E+03  0.35412843308E+03  0.00000000000E+00 0. -1.
        -13    1    3    3    0    0 -0.66323704230E+01  0.56216055598E+03  0.23520112775E+03  0.60941615464E+03  0.00000000000E+00 0.  1.
         22    1    1    2    0    0 -0.40438112380E+02 -0.89831217104E+03  0.29847670073E+03  0.94746416209E+03  0.00000000000E+00 0. -1.
<mgrwt>
<rscale>  0 0.18025499E+04</rscale>
<asrwt>0</asrwt>
<pdfrwt beam="1">  1        1 0.19581915E+00 0.18025499E+04</pdfrwt>
<pdfrwt beam="2">  1       -1 0.98182194E-01 0.18025499E+04</pdfrwt>
<totfact> 0.88715458E+00</totfact>
</mgrwt>
</event>
<event>
 6    1  0.1568961E-005  0.2971973E+04  0.7818608E-02  0.8251780E-01
         -2   -1    0    0    0  501 -0.00000000000E+00  0.00000000000E+00  0.29629882136E+04  0.29629882136E+04  0.00000000000E+00 0.  1.
          2   -1    0    0  501    0  0.00000000000E+00 -0.00000000000E+00 -0.74524614640E+03  0.74524614640E+03  0.00000000000E+00 0. -1.
         23    2    1    2    0    0 -0.11854277476E+04 -0.22173099509E+03  0.29618791462E+02  0.12097774264E+04  0.90997635318E+02 0.  0.
         13    1    3    3    0    0 -0.61507771442E+03 -0.15701093118E+03 -0.35198875135E+01  0.63481132385E+03  0.00000000000E+00 0.  1.
        -13    1    3    3    0    0 -0.57035003322E+03 -0.64720063911E+02  0.33138678975E+02  0.57496610258E+03  0.00000000000E+00 0. -1.
         22    1    1    2    0    0  0.11854277476E+04  0.22173099509E+03  0.21881232758E+04  0.24984569336E+04  0.00000000000E+00 0.  1.
<mgrwt>
<rscale>  0 0.29719728E+04</rscale>
<asrwt>0</asrwt>
<pdfrwt beam="1">  1        2 0.11465325E+00 0.29719728E+04</pdfrwt>
<pdfrwt beam="2">  1       -2 0.45584434E+00 0.29719728E+04</pdfrwt>
<totfact> 0.10285400E-01</totfact>
</mgrwt>
</event>
<event>
 6    1  0.1568961E-005  0.1194201E+04  0.7818608E-02  0.9117948E-01
         -2   -1    0    0    0  501 -0.00000000000E+00  0.00000000000E+00  0.33987466633E+03  0.33987466633E+03  0.00000000000E+00 0.  1.
          2   -1    0    0  501    0  0.00000000000E+00 -0.00000000000E+00 -0.10490014013E+04  0.10490014013E+04  0.00000000000E+00 0. -1.
         23    2    1    2    0    0 -0.25186285326E+03  0.16238475251E+03 -0.95285537301E+03  0.10026023905E+04  0.86455114174E+02 0.  0.
         11    1    3    3    0    0 -0.12070987145E+03  0.81998577703E+02 -0.32637367134E+03  0.35751141682E+03  0.00000000000E+00 0. -1.
        -11    1    3    3    0    0 -0.13115298181E+03  0.80386174807E+02 -0.62648170167E+03  0.64509097364E+03  0.00000000000E+00 0.  1.
         22    1    1    2    0    0  0.25186285326E+03 -0.16238475251E+03  0.24372863802E+03  0.38627367719E+03  0.00000000000E+00 0.  1.
<mgrwt>
<rscale>  0 0.11942010E+04</rscale>
<asrwt>0</asrwt>
<pdfrwt beam="1">  1        2 0.16138483E+00 0.11942010E+04</pdfrwt>
<pdfrwt beam="2">  1       -2 0.52288411E-01 0.11942010E+04</pdfrwt>
<totfact> 0.79874570E+01</totfact>
</mgrwt>
</event>
<event>
 6    1  0.1568961E-005  0.3756432E+03  0.7818608E-02  0.1052556E+00
         -2   -1    0    0    0  501 -0.00000000000E+00  0.00000000000E+00  0.65020876277E+02  0.65020876277E+02  0.00000000000E+00 0.  1.
          2   -1    0    0  501    0  0.00000000000E+00 -0.00000000000E+00 -0.54254821344E+03  0.54254821344E+03  0.00000000000E+00 0. -1.
         23    2    1    2    0    0 -0.12907616553E+03  0.31954024496E+02 -0.44190275142E+03  0.46990708589E+03  0.88616654556E+02 0.  0.
         11    1    3    3    0    0 -0.96293091504E+02 -0.14131507978E+02 -0.21399846474E+03  0.23509019950E+03  0.00000000000E+00 0.  1.
        -11    1    3    3    0    0 -0.32783074025E+02  0.46085532474E+02 -0.22790428668E+03  0.23481688639E+03  0.00000000000E+00 0. -1.
         22    1    1    2    0    0  0.12907616553E+03 -0.31954024496E+02 -0.35624585742E+02  0.13766200383E+03  0.00000000000E+00 0.  1.
<mgrwt>
<rscale>  0 0.37564324E+03</rscale>
<asrwt>0</asrwt>
<pdfrwt beam="1">  1        2 0.83468957E-01 0.37564324E+03</pdfrwt>
<pdfrwt beam="2">  1       -2 0.10003212E-01 0.37564324E+03</pdfrwt>
<totfact> 0.37808413E+03</totfact>
</mgrwt>
</event>
<event>
 6    1  0.1568961E-005  0.9136611E+03  0.7818608E-02  0.9408664E-01
         -1   -1    0    0    0  501 -0.00000000000E+00  0.00000000000E+00  0.72504242434E+03  0.72504242434E+03  0.00000000000E+00 0.  1.
          1   -1    0    0  501    0  0.00000000000E+00 -0.00000000000E+00 -0.28783718332E+03  0.28783718332E+03  0.00000000000E+00 0. -1.
         23    2    1    2    0    0  0.28107528392E+03 -0.18409195318E+03  0.55576573293E+03  0.65657951967E+03  0.96581329920E+02 0.  0.
         11    1    3    3    0    0  0.15817885788E+03 -0.14813266017E+03  0.29471879194E+03  0.36581826418E+03  0.00000000000E+00 0. -1.
        -11    1    3    3    0    0  0.12289642604E+03 -0.35959293007E+02  0.26104694100E+03  0.29076125548E+03  0.00000000000E+00 0.  1.
         22    1    1    2    0    0 -0.28107528392E+03  0.18409195318E+03 -0.11856049192E+03  0.35630008799E+03  0.00000000000E+00 0. -1.
<mgrwt>
<rscale>  0 0.91366114E+03</rscale>
<asrwt>0</asrwt>
<pdfrwt beam="1">  1        1 0.44282644E-01 0.91366114E+03</pdfrwt>
<pdfrwt beam="2">  1       -1 0.11154499E+00 0.91366114E+03</pdfrwt>
<totfact> 0.68860306E+01</totfact>
</mgrwt>
</event>
<event>
 6    1  0.1568961E-005  0.3054791E+04  0.7818608E-02  0.8228256E-01
          1   -1    0    0  501    0  0.00000000000E+00  0.00000000000E+00  0.10489580062E+04  0.10489580062E+04  0.00000000000E+00 0. -1.
         -1   -1    0    0    0  501 -0.00000000000E+00 -0.00000000000E+00 -0.22240511719E+04  0.22240511719E+04  0.00000000000E+00 0.  1.
         23    2    1    2    0    0 -0.65036673705E+03 -0.10147654412E+04 -0.15909906048E+04  0.19979811497E+04  0.89172734669E+02 0.  0.
         13    1    3    3    0    0 -0.47393708684E+03 -0.80836264895E+03 -0.12324324397E+04  0.15482106617E+04  0.00000000000E+00 0. -1.
        -13    1    3    3    0    0 -0.17642965020E+03 -0.20640279223E+03 -0.35855816512E+03  0.44977048801E+03  0.00000000000E+00 0.  1.
         22    1    1    2    0    0  0.65036673705E+03  0.10147654412E+04  0.41589743918E+03  0.12750280284E+04  0.00000000000E+00 0. -1.
<mgrwt>
<rscale>  0 0.30547905E+04</rscale>
<asrwt>0</asrwt>
<pdfrwt beam="1">  1        1 0.16137815E+00 0.30547905E+04</pdfrwt>
<pdfrwt beam="2">  1       -1 0.34216172E+00 0.30547905E+04</pdfrwt>
<totfact> 0.20557939E-01</totfact>
</mgrwt>
</event>
<event>
 6    1  0.1568961E-005  0.2468235E+04  0.7818608E-02  0.8414390E-01
         -2   -1    0    0    0  501 -0.00000000000E+00  0.00000000000E+00  0.81794365690E+03  0.81794365690E+03  0.00000000000E+00 0. -1.
          2   -1    0    0  501    0  0.00000000000E+00 -0.00000000000E+00 -0.18620432683E+04  0.18620432683E+04  0.00000000000E+00 0.  1.
         23    2    1    2    0    0  0.88285592092E+03 -0.75850631258E+03 -0.83069480999E+02  0.11705680586E+04  0.92534522083E+02 0.  0.
         11    1    3    3    0    0  0.30419057500E+03 -0.28007084203E+03 -0.71628190506E+02  0.41964530278E+03  0.00000000000E+00 0. -1.
        -11    1    3    3    0    0  0.57866534593E+03 -0.47843547055E+03 -0.11441290494E+02  0.75092275580E+03  0.00000000000E+00 0.  1.
         22    1    1    2    0    0 -0.88285592092E+03  0.75850631258E+03 -0.96103013037E+03  0.15094188666E+04  0.00000000000E+00 0.  1.
<mgrwt>
<rscale>  0 0.24682354E+04</rscale>
<asrwt>0</asrwt>
<pdfrwt beam="1">  1        2 0.28646819E+00 0.24682354E+04</pdfrwt>
<pdfrwt beam="2">  1       -2 0.12583749E+00 0.24682354E+04</pdfrwt>
<totfact> 0.33609580E+00</totfact>
</mgrwt>
</event>
<event>
 6    1  0.1568961E-005  0.2548947E+04  0.7818608E-02  0.8385753E-01
          1   -1    0    0  501    0  0.00000000000E+00  0.00000000000E+00  0.18171196638E+04  0.18171196638E+04  0.00000000000E+00 0. -1.
         -1   -1    0    0    0  501 -0.00000000000E+00 -0.00000000000E+00 -0.89387739701E+03  0.89387739701E+03  0.00000000000E+00 0.  1.
         23    2    1    2    0    0 -0.41076134739E+03 -0.75175446571E+02  0.17410808522E+04  0.17927181358E+04  0.89997489483E+02 0.  0.
         11    1    3    3    0    0 -0.29453125211E+03 -0.25769273236E+02  0.13397254716E+04  0.13719610246E+04  0.00000000000E+00 0. -1.
        -11    1    3    3    0    0 -0.11623009528E+03 -0.49406173335E+02  0.40135538063E+03  0.42075711114E+03  0.00000000000E+00 0.  1.
         22    1    1    2    0    0  0.41076134739E+03  0.75175446571E+02 -0.81783858545E+03  0.91827892501E+03  0.00000000000E+00 0.  1.
<mgrwt>
<rscale>  0 0.25489466E+04</rscale>
<asrwt>0</asrwt>
<pdfrwt beam="1">  1        1 0.27955687E+00 0.25489466E+04</pdfrwt>
<pdfrwt beam="2">  1       -1 0.13751960E+00 0.25489466E+04</pdfrwt>
<totfact> 0.15408519E+00</totfact>
</mgrwt>
</event>
<event>
 6    1  0.1568961E-005  0.3253024E+04  0.7818608E-02  0.8174952E-01
          1   -1    0    0  501    0  0.00000000000E+00  0.00000000000E+00  0.22308316990E+04  0.22308316990E+04  0.00000000000E+00 0. -1.
         -1   -1    0    0    0  501 -0.00000000000E+00 -0.00000000000E+00 -0.11858994507E+04  0.11858994507E+04  0.00000000000E+00 0.  1.
         23    2    1    2    0    0 -0.13631113989E+04 -0.21216981106E+02 -0.40641387169E+03  0.14255183519E+04  0.91692367739E+02 0.  0.
         11    1    3    3    0    0 -0.79751784586E+03 -0.34621561161E+02 -0.19668178330E+03  0.82214177052E+03  0.00000000000E+00 0.  1.
        -11    1    3    3    0    0 -0.56559355306E+03  0.13404580055E+02 -0.20973208839E+03  0.60337658136E+03  0.00000000000E+00 0. -1.
         22    1    1    2    0    0  0.13631113989E+04  0.21216981106E+02  0.14513461200E+04  0.19912127978E+04  0.00000000000E+00 0. -1.
<mgrwt>
<rscale>  0 0.32530245E+04</rscale>
<asrwt>0</asrwt>
<pdfrwt beam="1">  1        1 0.34320488E+00 0.32530245E+04</pdfrwt>
<pdfrwt beam="2">  1       -1 0.18244607E+00 0.32530245E+04</pdfrwt>
<totfact> 0.34548855E-01</totfact>
</mgrwt>
</event>
<event>
 6    1  0.1568961E-005  0.1141463E+04  0.7818608E-02  0.9165696E-01
         -1   -1    0    0    0  501 -0.00000000000E+00  0.00000000000E+00  0.21925004915E+03  0.21925004915E+03  0.00000000000E+00 0.  1.
          1   -1    0    0  501    0  0.00000000000E+00 -0.00000000000E+00 -0.14856751219E+04  0.14856751219E+04  0.00000000000E+00 0. -1.
         23    2    1    2    0    0 -0.49347046897E+03 -0.96294146361E+02 -0.10291304940E+04  0.11489625973E+04  0.90663167015E+02 0.  0.
         11    1    3    3    0    0 -0.24844610284E+03 -0.62496834988E+02 -0.62046761255E+03  0.67127593330E+03  0.00000000000E+00 0. -1.
        -11    1    3    3    0    0 -0.24502436614E+03 -0.33797311373E+02 -0.40866288147E+03  0.47768666398E+03  0.00000000000E+00 0.  1.
         22    1    1    2    0    0  0.49347046897E+03  0.96294146361E+02 -0.23729457877E+03  0.55596257382E+03  0.00000000000E+00 0. -1.
<mgrwt>
<rscale>  0 0.11414628E+04</rscale>
<asrwt>0</asrwt>
<pdfrwt beam="1">  1        1 0.22856540E+00 0.11414628E+04</pdfrwt>
<pdfrwt beam="2">  1       -1 0.33730777E-01 0.11414628E+04</pdfrwt>
<totfact> 0.55126740E+01</totfact>
</mgrwt>
</event>
<event>
 6    1  0.1568961E-005  0.2885873E+04  0.7818608E-02  0.8277093E-01
         -2   -1    0    0    0  501 -0.00000000000E+00  0.00000000000E+00  0.11636597155E+04  0.11636597155E+04  0.00000000000E+00 0.  1.
          2   -1    0    0  501    0  0.00000000000E+00 -0.00000000000E+00 -0.17892391440E+04  0.17892391440E+04  0.00000000000E+00 0. -1.
         23    2    1    2    0    0  0.87185688785E+03  0.27232559068E+02 -0.14873938179E+04  0.17266851396E+04  0.90692649620E+02 0.  0.
         11    1    3    3    0    0  0.56471549925E+03 -0.12629774655E+02 -0.10206596937E+04  0.11665373190E+04  0.00000000000E+00 0. -1.
        -11    1    3    3    0    0  0.30714138860E+03  0.39862333723E+02 -0.46673412418E+03  0.56014782059E+03  0.00000000000E+00 0.  1.
         22    1    1    2    0    0 -0.87185688785E+03 -0.27232559068E+02  0.86181438935E+03  0.12262137199E+04  0.00000000000E+00 0.  1.
<mgrwt>
<rscale>  0 0.28858728E+04</rscale>
<asrwt>0</asrwt>
<pdfrwt beam="1">  1        2 0.27526756E+00 0.28858728E+04</pdfrwt>
<pdfrwt beam="2">  1       -2 0.17902457E+00 0.28858728E+04</pdfrwt>
<totfact> 0.13923536E+00</totfact>
</mgrwt>
</event>
<event>
 6    1  0.1568961E-005  0.2507025E+04  0.7818608E-02  0.8400487E-01
         -1   -1    0    0    0  501 -0.00000000000E+00  0.00000000000E+00  0.10274652153E+04  0.10274652153E+04  0.00000000000E+00 0.  1.
          1   -1    0    0  501    0  0.00000000000E+00 -0.00000000000E+00 -0.15292909131E+04  0.15292909131E+04  0.00000000000E+00 0. -1.
         23    2    1    2    0    0  0.96736182683E+03  0.79088705011E+03 -0.32790212570E+03  0.12951933520E+04  0.93353012199E+02 0.  0.
         13    1    3    3    0    0  0.49011892310E+03  0.34868284124E+03 -0.13321712339E+03  0.61607068143E+03  0.00000000000E+00 0.  1.
        -13    1    3    3    0    0  0.47724290373E+03  0.44220420887E+03 -0.19468500231E+03  0.67912267053E+03  0.00000000000E+00 0. -1.
         22    1    1    2    0    0 -0.96736182683E+03 -0.79088705011E+03 -0.17392357207E+03  0.12615627765E+04  0.00000000000E+00 0.  1.
<mgrwt>
<rscale>  0 0.25070247E+04</rscale>
<asrwt>0</asrwt>
<pdfrwt beam="1">  1        1 0.23527552E+00 0.25070247E+04</pdfrwt>
<pdfrwt beam="2">  1       -1 0.15807157E+00 0.25070247E+04</pdfrwt>
<totfact> 0.16755961E+00</totfact>
</mgrwt>
</event>
<event>
 6    1  0.1568961E-005  0.2760212E+04  0.7818608E-02  0.8315729E-01
         -1   -1    0    0    0  501 -0.00000000000E+00  0.00000000000E+00  0.78360872161E+03  0.78360872161E+03  0.00000000000E+00 0.  1.
          1   -1    0    0  501    0  0.00000000000E+00 -0.00000000000E+00 -0.24306676185E+04  0.24306676185E+04  0.00000000000E+00 0. -1.
         23    2    1    2    0    0  0.82760622330E+03 -0.45886339885E+03  0.34294461580E+03  0.10107333611E+04  0.92104495832E+02 0.  0.
         13    1    3    3    0    0  0.34388511944E+03 -0.21076993908E+03  0.19093797034E+03  0.44624909088E+03  0.00000000000E+00 0.  1.
        -13    1    3    3    0    0  0.48372110386E+03 -0.24809345977E+03  0.15200664545E+03  0.56448427026E+03  0.00000000000E+00 0. -1.
         22    1    1    2    0    0 -0.82760622330E+03  0.45886339885E+03 -0.19900035127E+04  0.22035429790E+04  0.00000000000E+00 0. -1.
<mgrwt>
<rscale>  0 0.27602118E+04</rscale>
<asrwt>0</asrwt>
<pdfrwt beam="1">  1        1 0.37394887E+00 0.27602118E+04</pdfrwt>
<pdfrwt beam="2">  1       -1 0.12055519E+00 0.27602118E+04</pdfrwt>
<totfact> 0.80423878E-01</totfact>
</mgrwt>
</event>
<event>
 6    1  0.1568961E-005  0.1049227E+04  0.7818608E-02  0.9256142E-01
          2   -1    0    0  501    0  0.00000000000E+00  0.00000000000E+00  0.16616219103E+04  0.16616219103E+04  0.00000000000E+00 0. -1.
         -2   -1    0    0    0  501 -0.00000000000E+00 -0.00000000000E+00 -0.16563299976E+03  0.16563299976E+03  0.00000000000E+00 0.  1.
         23    2    1    2    0    0 -0.27583527545E+02 -0.18764895301E+03  0.15981879012E+04  0.16118074356E+04  0.88009439304E+02 0.  0.
         13    1    3    3    0    0 -0.11158624774E+02  0.40148338232E+01  0.38060088977E+02  0.39864823723E+02  0.00000000000E+00 0. -1.
        -13    1    3    3    0    0 -0.16424902770E+02 -0.19166378684E+03  0.15601278122E+04  0.15719426119E+04  0.00000000000E+00 0.  1.
         22    1    1    2    0    0  0.27583527545E+02  0.18764895301E+03 -0.10219899065E+03  0.21544747446E+03  0.00000000000E+00 0.  1.
<mgrwt>
<rscale>  0 0.10492272E+04</rscale>
<asrwt>0</asrwt>
<pdfrwt beam="1">  1        2 0.25563413E+00 0.10492272E+04</pdfrwt>
<pdfrwt beam="2">  1       -2 0.25482001E-01 0.10492272E+04</pdfrwt>
<totfact> 0.14212631E+02</totfact>
</mgrwt>
</event>
<event>
 6    1  0.1568961E-005  0.2124132E+04  0.7818608E-02  0.8550687E-01
         -2   -1    0    0    0  501 -0.00000000000E+00  0.00000000000E+00  0.10775345610E+04  0.10775345610E+04  0.00000000000E+00 0.  1.
          2   -1    0    0  501    0  0.00000000000E+00 -0.00000000000E+00 -0.10468196633E+04  0.10468196633E+04  0.00000000000E+00 0. -1.
         23    2    1    2    0    0 -0.16475598045E+03 -0.45628744180E+03  0.95626699211E+03  0.10793712378E+04  0.12350281870E+03 0.  0.
         11    1    3    3    0    0 -0.10635295964E+03 -0.24844578948E+03  0.40057677845E+03  0.48321632605E+03  0.00000000000E+00 0. -1.
        -11    1    3    3    0    0 -0.58403020815E+02 -0.20784165232E+03  0.55569021366E+03  0.59615491178E+03  0.00000000000E+00 0.  1.
         22    1    1    2    0    0  0.16475598045E+03  0.45628744180E+03 -0.92555209438E+03  0.10449829865E+04  0.00000000000E+00 0. -1.
<mgrwt>
<rscale>  0 0.21241322E+04</rscale>
<asrwt>0</asrwt>
<pdfrwt beam="1">  1        2 0.16104918E+00 0.21241322E+04</pdfrwt>
<pdfrwt beam="2">  1       -2 0.16577455E+00 0.21241322E+04</pdfrwt>
<totfact> 0.49427042E+00</totfact>
</mgrwt>
</event>
<event>
 6    1  0.1568961E-005  0.1353642E+04  0.7818608E-02  0.8988075E-01
          1   -1    0    0  501    0  0.00000000000E+00  0.00000000000E+00  0.19678037410E+04  0.19678037410E+04  0.00000000000E+00 0. -1.
         -1   -1    0    0    0  501 -0.00000000000E+00 -0.00000000000E+00 -0.23279097023E+03  0.23279097023E+03  0.00000000000E+00 0.  1.
         23    2    1    2    0    0  0.30024839852E+03 -0.57973012199E+03  0.11423912197E+04  0.13188711616E+04  0.90151688292E+02 0.  0.
         13    1    3    3    0    0  0.14542963560E+03 -0.30083076907E+03  0.49593332429E+03  0.59799564603E+03  0.00000000000E+00 0. -1.
        -13    1    3    3    0    0  0.15481876291E+03 -0.27889935292E+03  0.64645789545E+03  0.72087551561E+03  0.00000000000E+00 0.  1.
         22    1    1    2    0    0 -0.30024839852E+03  0.57973012199E+03  0.59262155104E+03  0.88172354960E+03  0.00000000000E+00 0.  1.
<mgrwt>
<rscale>  0 0.13536424E+04</rscale>
<asrwt>0</asrwt>
<pdfrwt beam="1">  1        1 0.30273902E+00 0.13536424E+04</pdfrwt>
<pdfrwt beam="2">  1       -1 0.35813997E-01 0.13536424E+04</pdfrwt>
<totfact> 0.22854064E+01</totfact>
</mgrwt>
</event>
<event>
 6    1  0.1568961E-005  0.1011985E+04  0.7818608E-02  0.9295496E-01
         -1   -1    0    0    0  501 -0.00000000000E+00  0.00000000000E+00  0.10703642083E+03  0.10703642083E+03  0.00000000000E+00 0.  1.
          1   -1    0    0  501    0  0.00000000000E+00 -0.00000000000E+00 -0.23919765395E+04  0.23919765395E+04  0.00000000000E+00 0. -1.
         23    2    1    2    0    0  0.45670433353E+02 -0.33992313383E+03 -0.25734689091E+03  0.44261615459E+03  0.10976389499E+03 0.  0.
         11    1    3    3    0    0  0.69056170508E+02 -0.11710068822E+03 -0.10276794449E+03  0.17041882608E+03  0.00000000000E+00 0. -1.
        -11    1    3    3    0    0 -0.23385737156E+02 -0.22282244561E+03 -0.15457894641E+03  0.27219732851E+03  0.00000000000E+00 0.  1.
         22    1    1    2    0    0 -0.45670433353E+02  0.33992313383E+03 -0.20275932278E+04  0.20563968057E+04  0.00000000000E+00 0. -1.
<mgrwt>
<rscale>  0 0.10119854E+04</rscale>
<asrwt>0</asrwt>
<pdfrwt beam="1">  1        1 0.36799636E+00 0.10119854E+04</pdfrwt>
<pdfrwt beam="2">  1       -1 0.16467143E-01 0.10119854E+04</pdfrwt>
<totfact> 0.45999890E+01</totfact>
</mgrwt>
</event>
<event>
 6    1  0.1568961E-005  0.3341835E+04  0.7818608E-02  0.8152331E-01
         -1   -1    0    0    0  501 -0.00000000000E+00  0.00000000000E+00  0.17331950817E+04  0.17331950817E+04  0.00000000000E+00 0.  1.
          1   -1    0    0  501    0  0.00000000000E+00 -0.00000000000E+00 -0.16108772942E+04  0.16108772942E+04  0.00000000000E+00 0. -1.
         23    2    1    2    0    0 -0.10612562782E+04  0.34148272910E+03 -0.11825838586E+04  0.16277846237E+04  0.91120009338E+02 0.  0.
         11    1    3    3    0    0 -0.82661073044E+03  0.22845320779E+03 -0.92762578662E+03  0.12633153873E+04  0.00000000000E+00 0. -1.
        -11    1    3    3    0    0 -0.23464554781E+03  0.11302952131E+03 -0.25495807195E+03  0.36446923635E+03  0.00000000000E+00 0.  1.
         22    1    1    2    0    0  0.10612562782E+04 -0.34148272910E+03  0.13049016460E+04  0.17162877522E+04  0.00000000000E+00 0.  1.
<mgrwt>
<rscale>  0 0.33418346E+04</rscale>
<asrwt>0</asrwt>
<pdfrwt beam="1">  1        1 0.24782728E+00 0.33418346E+04</pdfrwt>
<pdfrwt beam="2">  1       -1 0.26664540E+00 0.33418346E+04</pdfrwt>
<totfact> 0.24633207E-01</totfact>
</mgrwt>
</event>
<event>
 6    1  0.1568961E-005  0.1408130E+04  0.7818608E-02  0.8947954E-01
         -2   -1    0    0    0  501 -0.00000000000E+00  0.00000000000E+00  0.25819636702E+03  0.25819636702E+03  0.00000000000E+00 0.  1.
          2   -1    0    0  501    0  0.00000000000E+00 -0.00000000000E+00 -0.19198865111E+04  0.19198865111E+04  0.00000000000E+00 0. -1.
         23    2    1    2    0    0 -0.45308476372E+03  0.51017533974E+03 -0.10838436426E+04  0.12839513108E+04  0.90825362924E+02 0.  0.
         11    1    3    3    0    0 -0.25892626795E+03  0.22392021629E+03 -0.52654836085E+03  0.62804160039E+03  0.00000000000E+00 0.  1.
        -11    1    3    3    0    0 -0.19415849577E+03  0.28625512345E+03 -0.55729528170E+03  0.65590971039E+03  0.00000000000E+00 0. -1.
         22    1    1    2    0    0  0.45308476372E+03 -0.51017533974E+03 -0.57784650150E+03  0.89413156733E+03  0.00000000000E+00 0. -1.
<mgrwt>
<rscale>  0 0.14081303E+04</rscale>
<asrwt>0</asrwt>
<pdfrwt beam="1">  1        2 0.29536717E+00 0.14081303E+04</pdfrwt>
<pdfrwt beam="2">  1       -2 0.39722517E-01 0.14081303E+04</pdfrwt>
<totfact> 0.43187354E+01</totfact>
</mgrwt>
</event>
<event>
 6    1  0.1568961E-005  0.1217243E+04  0.7818608E-02  0.9097897E-01
         -2   -1    0    0    0  501 -0.00000000000E+00  0.00000000000E+00  0.14202741674E+04  0.14202741674E+04  0.00000000000E+00 0. -1.
          2   -1    0    0  501    0  0.00000000000E+00 -0.00000000000E+00 -0.26080874424E+03  0.26080874424E+03  0.00000000000E+00 0.  1.
         23    2    1    2    0    0 -0.27422126845E+03  0.49994058403E+03  0.30285230137E+03  0.65204261503E+03  0.91116210080E+02 0.  0.
         11    1    3    3    0    0 -0.91807837064E+02  0.23387516619E+03  0.96757516583E+02  0.26923649330E+03  0.00000000000E+00 0. -1.
        -11    1    3    3    0    0 -0.18241343139E+03  0.26606541784E+03  0.20609478479E+03  0.38280612173E+03  0.00000000000E+00 0.  1.
         22    1    1    2    0    0  0.27422126845E+03 -0.49994058403E+03  0.85661312176E+03  0.10290402966E+04  0.00000000000E+00 0.  1.
<mgrwt>
<rscale>  0 0.12172427E+04</rscale>
<asrwt>0</asrwt>
<pdfrwt beam="1">  1        2 0.40124423E-01 0.12172427E+04</pdfrwt>
<pdfrwt beam="2">  1       -2 0.21850371E+00 0.12172427E+04</pdfrwt>
<totfact> 0.12784562E+01</totfact>
</mgrwt>
</event>
<event>
 6    1  0.1568961E-005  0.2451949E+04  0.7818608E-02  0.8420307E-01
         -1   -1    0    0    0  501 -0.00000000000E+00  0.00000000000E+00  0.21421008993E+04  0.21421008993E+04  0.00000000000E+00 0.  1.
          1   -1    0    0  501    0  0.00000000000E+00 -0.00000000000E+00 -0.70165411296E+03  0.70165411296E+03  0.00000000000E+00 0. -1.
         23    2    1    2    0    0 -0.29008298395E+03  0.51287474264E+03  0.19658926624E+04  0.20542728985E+04  0.90080752873E+02 0.  0.
         11    1    3    3    0    0 -0.16515276481E+03  0.26893382498E+03  0.90086501107E+03  0.95454628286E+03  0.00000000000E+00 0. -1.
        -11    1    3    3    0    0 -0.12493021914E+03  0.24394091766E+03  0.10650276514E+04  0.10997266156E+04  0.00000000000E+00 0.  1.
         22    1    1    2    0    0  0.29008298395E+03 -0.51287474264E+03 -0.52544587611E+03  0.78948211375E+03  0.00000000000E+00 0. -1.
<mgrwt>
<rscale>  0 0.24519494E+04</rscale>
<asrwt>0</asrwt>
<pdfrwt beam="1">  1        1 0.10794679E+00 0.24519494E+04</pdfrwt>
<pdfrwt beam="2">  1       -1 0.32955398E+00 0.24519494E+04</pdfrwt>
<totfact> 0.51340333E-01</totfact>
</mgrwt>
</event>
<event>
 6    1  0.1568961E-005  0.2829360E+04  0.7818608E-02  0.8294211E-01
         -1   -1    0    0    0  501 -0.00000000000E+00  0.00000000000E+00  0.48809326306E+03  0.48809326306E+03  0.00000000000E+00 0.  1.
          1   -1    0    0  501    0  0.00000000000E+00 -0.00000000000E+00 -0.41002797565E+04  0.41002797565E+04  0.00000000000E+00 0. -1.
         23    2    1    2    0    0 -0.61422108852E+03 -0.43036966919E+03 -0.37504384809E+04  0.38257464990E+04  0.89787960637E+02 0.  0.
         13    1    3    3    0    0 -0.60498570299E+03 -0.40574586738E+03 -0.36450595524E+04  0.37171355303E+04  0.00000000000E+00 0. -1.
        -13    1    3    3    0    0 -0.92353855334E+01 -0.24623801803E+02 -0.10537892851E+03  0.10861096876E+03  0.00000000000E+00 0.  1.
         22    1    1    2    0    0  0.61422108852E+03  0.43036966919E+03  0.13825198751E+03  0.76262652051E+03  0.00000000000E+00 0.  1.
<mgrwt>
<rscale>  0 0.28293596E+04</rscale>
<asrwt>0</asrwt>
<pdfrwt beam="1">  1        1 0.63081225E+00 0.28293596E+04</pdfrwt>
<pdfrwt beam="2">  1       -1 0.75091274E-01 0.28293596E+04</pdfrwt>
<totfact> 0.12029091E-01</totfact>
</mgrwt>
</event>
<event>
 6    1  0.1568961E-005  0.1077833E+04  0.7818608E-02  0.9227071E-01
          2   -1    0    0  501    0  0.00000000000E+00  0.00000000000E+00  0.68917298988E+03  0.68917298988E+03  0.00000000000E+00 0. -1.
         -2   -1    0    0    0  501 -0.00000000000E+00 -0.00000000000E+00 -0.42141919756E+03  0.42141919756E+03  0.00000000000E+00 0.  1.
         23    2    1    2    0    0 -0.28155746779E+03 -0.14712778979E+03  0.57850663207E+03  0.66619538096E+03  0.90692712304E+02 0.  0.
         13    1    3    3    0    0 -0.21800961102E+03 -0.95124804013E+02  0.49444995160E+03  0.54868722736E+03  0.00000000000E+00 0.  1.
        -13    1    3    3    0    0 -0.63547856769E+02 -0.52002985776E+02  0.84056680474E+02  0.11750815360E+03  0.00000000000E+00 0. -1.
         22    1    1    2    0    0  0.28155746779E+03  0.14712778979E+03 -0.31075283975E+03  0.44439680648E+03  0.00000000000E+00 0.  1.
<mgrwt>
<rscale>  0 0.10778325E+04</rscale>
<asrwt>0</asrwt>
<pdfrwt beam="1">  1        2 0.10602661E+00 0.10778325E+04</pdfrwt>
<pdfrwt beam="2">  1       -2 0.64833723E-01 0.10778325E+04</pdfrwt>
<totfact> 0.91251221E+01</totfact>
</mgrwt>
</event>
<event>
 6    1  0.1568961E-005  0.2063983E+04  0.7818608E-02  0.8577277E-01
          1   -1    0    0  501    0  0.00000000000E+00  0.00000000000E+00  0.95673328722E+03  0.95673328722E+03  0.00000000000E+00 0. -1.
         -1   -1    0    0    0  501 -0.00000000000E+00 -0.00000000000E+00 -0.11131692731E+04  0.11131692731E+04  0.00000000000E+00 0.  1.
         23    2    1    2    0    0  0.89501312824E+03  0.26834488102E+03 -0.51303359922E+03  0.10697929000E+04  0.90531210804E+02 0.  0.
         11    1    3    3    0    0  0.47426008019E+02  0.10162837199E+02 -0.58256619634E+01  0.48851282827E+02  0.00000000000E+00 0. -1.
        -11    1    3    3    0    0  0.84758712022E+03  0.25818204383E+03 -0.50720793725E+03  0.10209416172E+04  0.00000000000E+00 0.  1.
         22    1    1    2    0    0 -0.89501312824E+03 -0.26834488102E+03  0.35659761329E+03  0.10001096603E+04  0.00000000000E+00 0.  1.
<mgrwt>
<rscale>  0 0.20639827E+04</rscale>
<asrwt>0</asrwt>
<pdfrwt beam="1">  1        1 0.14718974E+00 0.20639827E+04</pdfrwt>
<pdfrwt beam="2">  1       -1 0.17125681E+00 0.20639827E+04</pdfrwt>
<totfact> 0.36380963E+00</totfact>
</mgrwt>
</event>
<event>
 6    1  0.1568961E-005  0.1662733E+04  0.7818608E-02  0.8782909E-01
         -1   -1    0    0    0  501 -0.00000000000E+00  0.00000000000E+00  0.37310606658E+03  0.37310606658E+03  0.00000000000E+00 0.  1.
          1   -1    0    0  501    0  0.00000000000E+00 -0.00000000000E+00 -0.18524773930E+04  0.18524773930E+04  0.00000000000E+00 0. -1.
         23    2    1    2    0    0 -0.70716363765E+03 -0.23774005009E+03 -0.25858908187E+03  0.79488082435E+03  0.91468408907E+02 0.  0.
         11    1    3    3    0    0 -0.27970168771E+03 -0.13224167991E+03 -0.78541775284E+02  0.31920167055E+03  0.00000000000E+00 0.  1.
        -11    1    3    3    0    0 -0.42746194993E+03 -0.10549837017E+03 -0.18004730659E+03  0.47567915380E+03  0.00000000000E+00 0. -1.
         22    1    1    2    0    0  0.70716363765E+03  0.23774005009E+03 -0.12207822445E+04  0.14307026352E+04  0.00000000000E+00 0.  1.
<mgrwt>
<rscale>  0 0.16627334E+04</rscale>
<asrwt>0</asrwt>
<pdfrwt beam="1">  1        1 0.28499652E+00 0.16627334E+04</pdfrwt>
<pdfrwt beam="2">  1       -1 0.57400934E-01 0.16627334E+04</pdfrwt>
<totfact> 0.11012253E+01</totfact>
</mgrwt>
</event>
<event>
 6    1  0.1568961E-005  0.2005345E+04  0.7818608E-02  0.8604126E-01
         -2   -1    0    0    0  501 -0.00000000000E+00  0.00000000000E+00  0.46512226663E+03  0.46512226663E+03  0.00000000000E+00 0.  1.
          2   -1    0    0  501    0  0.00000000000E+00 -0.00000000000E+00 -0.21614788661E+04  0.21614788661E+04  0.00000000000E+00 0. -1.
         23    2    1    2    0    0 -0.53997157336E+03  0.77707450433E+03 -0.42426575317E+03  0.10411582272E+04  0.92708896723E+02 0.  0.
         11    1    3    3    0    0 -0.46404253479E+02  0.52180736035E+02 -0.76189076837E+01  0.70244086643E+02  0.00000000000E+00 0.  1.
        -11    1    3    3    0    0 -0.49356731988E+03  0.72489376830E+03 -0.41664684548E+03  0.97091414060E+03  0.00000000000E+00 0. -1.
         22    1    1    2    0    0  0.53997157336E+03 -0.77707450433E+03 -0.12720908463E+04  0.15854429055E+04  0.00000000000E+00 0.  1.
<mgrwt>
<rscale>  0 0.20053448E+04</rscale>
<asrwt>0</asrwt>
<pdfrwt beam="1">  1        2 0.33253521E+00 0.20053448E+04</pdfrwt>
<pdfrwt beam="2">  1       -2 0.71557272E-01 0.20053448E+04</pdfrwt>
<totfact> 0.89288318E+00</totfact>
</mgrwt>
</event>
<event>
 6    1  0.1568961E-005  0.2081174E+04  0.7818608E-02  0.8569582E-01
         -1   -1    0    0    0  501 -0.00000000000E+00  0.00000000000E+00  0.62990352579E+03  0.62990352579E+03  0.00000000000E+00 0.  1.
          1   -1    0    0  501    0  0.00000000000E+00 -0.00000000000E+00 -0.17190278821E+04  0.17190278821E+04  0.00000000000E+00 0. -1.
         23    2    1    2    0    0  0.39669859476E+03  0.53830019708E+03  0.35110466995E+03  0.76104081804E+03  0.93657675646E+02 0.  0.
         11    1    3    3    0    0  0.24051296720E+03  0.37674503414E+03  0.19634398639E+03  0.48819490896E+03  0.00000000000E+00 0. -1.
        -11    1    3    3    0    0  0.15618562755E+03  0.16155516293E+03  0.15476068356E+03  0.27284590908E+03  0.00000000000E+00 0.  1.
         22    1    1    2    0    0 -0.39669859476E+03 -0.53830019708E+03 -0.14402290262E+04  0.15878905898E+04  0.00000000000E+00 0. -1.
<mgrwt>
<rscale>  0 0.20811744E+04</rscale>
<asrwt>0</asrwt>
<pdfrwt beam="1">  1        1 0.26446583E+00 0.20811744E+04</pdfrwt>
<pdfrwt beam="2">  1       -1 0.96908235E-01 0.20811744E+04</pdfrwt>
<totfact> 0.43617917E+00</totfact>
</mgrwt>
</event>
<event>
 6    1  0.1568961E-005  0.1485978E+04  0.7818608E-02  0.8893831E-01
         -1   -1    0    0    0  501 -0.00000000000E+00  0.00000000000E+00  0.95503841660E+03  0.95503841660E+03  0.00000000000E+00 0.  1.
          1   -1    0    0  501    0  0.00000000000E+00 -0.00000000000E+00 -0.57802161672E+03  0.57802161672E+03  0.00000000000E+00 0. -1.
         23    2    1    2    0    0  0.58973521328E+03 -0.38181747340E+03 -0.50732670359E+02  0.71053841411E+03  0.93374671618E+02 0.  0.
         11    1    3    3    0    0  0.50555749886E+03 -0.28533793222E+03 -0.47419219574E+02  0.58245575163E+03  0.00000000000E+00 0.  1.
        -11    1    3    3    0    0  0.84177714422E+02 -0.96479541183E+02 -0.33134507856E+01  0.12808266248E+03  0.00000000000E+00 0. -1.
         22    1    1    2    0    0 -0.58973521328E+03  0.38181747340E+03  0.42774947024E+03  0.82252161921E+03  0.00000000000E+00 0.  1.
<mgrwt>
<rscale>  0 0.14859783E+04</rscale>
<asrwt>0</asrwt>
<pdfrwt beam="1">  1        1 0.88926403E-01 0.14859783E+04</pdfrwt>
<pdfrwt beam="2">  1       -1 0.14692899E+00 0.14859783E+04</pdfrwt>
<totfact> 0.12910935E+01</totfact>
</mgrwt>
</event>
<event>
 6    1  0.1568961E-005  0.1636315E+04  0.7818608E-02  0.8798544E-01
          2   -1    0    0  501    0  0.00000000000E+00  0.00000000000E+00  0.16370172159E+04  0.16370172159E+04  0.00000000000E+00 0. -1.
         -2   -1    0    0    0  501 -0.00000000000E+00 -0.00000000000E+00 -0.40890307732E+03  0.40890307732E+03  0.00000000000E+00 0.  1.
         23    2    1    2    0    0  0.35138317489E+03 -0.26996995931E+03 -0.23986282859E+03  0.51252201141E+03  0.93758845523E+02 0.  0.
         13    1    3    3    0    0  0.20078935834E+03 -0.17610430485E+03 -0.95064264056E+02  0.28348951817E+03  0.00000000000E+00 0. -1.
        -13    1    3    3    0    0  0.15059381655E+03 -0.93865654459E+02 -0.14479856453E+03  0.22903249324E+03  0.00000000000E+00 0.  1.
         22    1    1    2    0    0 -0.35138317489E+03  0.26996995931E+03  0.14679769671E+04  0.15333982818E+04  0.00000000000E+00 0. -1.
<mgrwt>
<rscale>  0 0.16363146E+04</rscale>
<asrwt>0</asrwt>
<pdfrwt beam="1">  1        2 0.25184880E+00 0.16363146E+04</pdfrwt>
<pdfrwt beam="2">  1       -2 0.62908167E-01 0.16363146E+04</pdfrwt>
<totfact> 0.23808599E+01</totfact>
</mgrwt>
</event>
<event>
 6    1  0.1568961E-005  0.1403382E+04  0.7818608E-02  0.8951374E-01
          2   -1    0    0  501    0  0.00000000000E+00  0.00000000000E+00  0.14605886977E+04  0.14605886977E+04  0.00000000000E+00 0. -1.
         -2   -1    0    0    0  501 -0.00000000000E+00 -0.00000000000E+00 -0.33710378705E+03  0.33710378705E+03  0.00000000000E+00 0.  1.
         23    2    1    2    0    0 -0.71080314957E+02 -0.27675993182E+03  0.13805735423E+04  0.14133189222E+04  0.99189712754E+02 0.  0.
         11    1    3    3    0    0 -0.93473677351E+02 -0.17833748474E+03  0.89624500126E+03  0.91858406752E+03  0.00000000000E+00 0. -1.
        -11    1    3    3    0    0  0.22393362394E+02 -0.98422447081E+02  0.48432854101E+03  0.49473485465E+03  0.00000000000E+00 0.  1.
         22    1    1    2    0    0  0.71080314957E+02  0.27675993182E+03 -0.25708863167E+03  0.38437356253E+03  0.00000000000E+00 0.  1.
<mgrwt>
<rscale>  0 0.14033816E+04</rscale>
<asrwt>0</asrwt>
<pdfrwt beam="1">  1        2 0.22470595E+00 0.14033816E+04</pdfrwt>
<pdfrwt beam="2">  1       -2 0.51862122E-01 0.14033816E+04</pdfrwt>
<totfact> 0.45645135E+01</totfact>
</mgrwt>
</event>
<event>
 6    1  0.1568961E-005  0.1637877E+04  0.7818608E-02  0.8797611E-01
          1   -1    0    0  501    0  0.00000000000E+00  0.00000000000E+00  0.14112073829E+04  0.14112073829E+04  0.00000000000E+00 0. -1.
         -1   -1    0    0    0  501 -0.00000000000E+00 -0.00000000000E+00 -0.47523842793E+03  0.47523842793E+03  0.00000000000E+00 0.  1.
         23    2    1    2    0    0  0.76932059064E+03 -0.40620275466E+02  0.15824687341E+03  0.79175141781E+03  0.91236268553E+02 0.  0.
         11    1    3    3    0    0  0.57779716489E+02  0.15490685781E+02  0.28667100362E+02  0.66334452788E+02  0.00000000000E+00 0. -1.
        -11    1    3    3    0    0  0.71154087415E+03 -0.56110961247E+02  0.12957977305E+03  0.72541696502E+03  0.00000000000E+00 0.  1.
         22    1    1    2    0    0 -0.76932059064E+03  0.40620275466E+02  0.77772208152E+03  0.10946943930E+04  0.00000000000E+00 0.  1.
<mgrwt>
<rscale>  0 0.16378766E+04</rscale>
<asrwt>0</asrwt>
<pdfrwt beam="1">  1        1 0.21710883E+00 0.16378766E+04</pdfrwt>
<pdfrwt beam="2">  1       -1 0.73113605E-01 0.16378766E+04</pdfrwt>
<totfact> 0.13607791E+01</totfact>
</mgrwt>
</event>
<event>
 6    1  0.1568961E-005  0.1493408E+04  0.7818608E-02  0.8888849E-01
         -2   -1    0    0    0  501 -0.00000000000E+00  0.00000000000E+00  0.47201043305E+03  0.47201043305E+03  0.00000000000E+00 0.  1.
          2   -1    0    0  501    0  0.00000000000E+00 -0.00000000000E+00 -0.11812590823E+04  0.11812590823E+04  0.00000000000E+00 0. -1.
         23    2    1    2    0    0 -0.52224924036E+03  0.21052127180E+03  0.18199607111E+03  0.59904912735E+03  0.93133303075E+02 0.  0.
         13    1    3    3    0    0 -0.34864368763E+03  0.18306536263E+03  0.10784066297E+03  0.40828293684E+03  0.00000000000E+00 0.  1.
        -13    1    3    3    0    0 -0.17360555273E+03  0.27455909161E+02  0.74155408137E+02  0.19076619051E+03  0.00000000000E+00 0. -1.
         22    1    1    2    0    0  0.52224924036E+03 -0.21052127180E+03 -0.89124472040E+03  0.10542203880E+04  0.00000000000E+00 0. -1.
<mgrwt>
<rscale>  0 0.14934077E+04</rscale>
<asrwt>0</asrwt>
<pdfrwt beam="1">  1        2 0.18173217E+00 0.14934077E+04</pdfrwt>
<pdfrwt beam="2">  1       -2 0.72616989E-01 0.14934077E+04</pdfrwt>
<totfact> 0.32228620E+01</totfact>
</mgrwt>
</event>
<event>
 6    1  0.1568961E-005  0.1911800E+04  0.7818608E-02  0.8649005E-01
         -2   -1    0    0    0  501 -0.00000000000E+00  0.00000000000E+00  0.58062814102E+03  0.58062814102E+03  0.00000000000E+00 0.  1.
          2   -1    0    0  501    0  0.00000000000E+00 -0.00000000000E+00 -0.15737172255E+04  0.15737172255E+04  0.00000000000E+00 0. -1.
         23    2    1    2    0    0 -0.73360783163E+03  0.49632419792E+03 -0.89618757940E+03  0.12633301805E+04  0.91284212203E+02 0.  0.
         11    1    3    3    0    0 -0.36544882203E+03  0.27967376540E+03 -0.51695064740E+03  0.69210420345E+03  0.00000000000E+00 0.  1.
        -11    1    3    3    0    0 -0.36815900960E+03  0.21665043252E+03 -0.37923693200E+03  0.57122597704E+03  0.00000000000E+00 0. -1.
         22    1    1    2    0    0  0.73360783163E+03 -0.49632419792E+03 -0.96901505084E+02  0.89101518604E+03  0.00000000000E+00 0.  1.
<mgrwt>
<rscale>  0 0.19117997E+04</rscale>
<asrwt>0</asrwt>
<pdfrwt beam="1">  1        2 0.24211034E+00 0.19117997E+04</pdfrwt>
<pdfrwt beam="2">  1       -2 0.89327406E-01 0.19117997E+04</pdfrwt>
<totfact> 0.11607381E+01</totfact>
</mgrwt>
</event>
<event>
 6    1  0.1568961E-005  0.3120080E+04  0.7818608E-02  0.8210249E-01
         -2   -1    0    0    0  501 -0.00000000000E+00  0.00000000000E+00  0.77528163596E+03  0.77528163596E+03  0.00000000000E+00 0. -1.
          2   -1    0    0  501    0  0.00000000000E+00 -0.00000000000E+00 -0.31391491372E+04  0.31391491372E+04  0.00000000000E+00 0.  1.
         23    2    1    2    0    0 -0.11058922866E+04 -0.85673602607E+03 -0.31994476051E+03  0.14376153707E+04  0.85900735121E+02 0.  0.
         13    1    3    3    0    0 -0.36675348855E+03 -0.31756494425E+03 -0.14295542685E+03  0.50575870654E+03  0.00000000000E+00 0.  1.
        -13    1    3    3    0    0 -0.73913879804E+03 -0.53917108182E+03 -0.17698933366E+03  0.93185666413E+03  0.00000000000E+00 0. -1.
         22    1    1    2    0    0  0.11058922866E+04  0.85673602607E+03 -0.20439227407E+04  0.24768154025E+04  0.00000000000E+00 0.  1.
<mgrwt>
<rscale>  0 0.31200799E+04</rscale>
<asrwt>0</asrwt>
<pdfrwt beam="1">  1        2 0.48294601E+00 0.31200799E+04</pdfrwt>
<pdfrwt beam="2">  1       -2 0.11927410E+00 0.31200799E+04</pdfrwt>
<totfact> 0.64840776E-01</totfact>
</mgrwt>
</event>
<event>
 6    1  0.1568961E-005  0.1294221E+04  0.7818608E-02  0.9034161E-01
          2   -1    0    0  501    0  0.00000000000E+00  0.00000000000E+00  0.14025982980E+04  0.14025982980E+04  0.00000000000E+00 0. -1.
         -2   -1    0    0    0  501 -0.00000000000E+00 -0.00000000000E+00 -0.29855426459E+03  0.29855426459E+03  0.00000000000E+00 0.  1.
         23    2    1    2    0    0  0.89126241222E+02  0.14897449585E+03  0.13697432916E+04  0.13837679644E+04  0.92088040497E+02 0.  0.
         11    1    3    3    0    0  0.62519733999E+02  0.21355068973E+02  0.47983547352E+03  0.48436230010E+03  0.00000000000E+00 0.  1.
        -11    1    3    3    0    0  0.26606507223E+02  0.12761942688E+03  0.88990781809E+03  0.89940566434E+03  0.00000000000E+00 0. -1.
         22    1    1    2    0    0 -0.89126241222E+02 -0.14897449585E+03 -0.26569925825E+03  0.31738459811E+03  0.00000000000E+00 0.  1.
<mgrwt>
<rscale>  0 0.12942205E+04</rscale>
<asrwt>0</asrwt>
<pdfrwt beam="1">  1        2 0.21578435E+00 0.12942205E+04</pdfrwt>
<pdfrwt beam="2">  1       -2 0.45931426E-01 0.12942205E+04</pdfrwt>
<totfact> 0.63533069E+01</totfact>
</mgrwt>
</event>
<event>
 6    1  0.1568961E-005  0.1298909E+04  0.7818608E-02  0.9030431E-01
          1   -1    0    0  501    0  0.00000000000E+00  0.00000000000E+00  0.88780527392E+03  0.88780527392E+03  0.00000000000E+00 0. -1.
         -1   -1    0    0    0  501 -0.00000000000E+00 -0.00000000000E+00 -0.47509417534E+03  0.47509417534E+03  0.00000000000E+00 0.  1.
         23    2    1    2    0    0  0.26273234445E+03 -0.57745371180E+03  0.78662659232E+02  0.64591309379E+03  0.92384179788E+02 0.  0.
         13    1    3    3    0    0  0.82855479296E+02 -0.16096960313E+03  0.63955754376E+02  0.19200672409E+03  0.00000000000E+00 0. -1.
        -13    1    3    3    0    0  0.17987686515E+03 -0.41648410868E+03  0.14706904856E+02  0.45390636969E+03  0.00000000000E+00 0.  1.
         22    1    1    2    0    0 -0.26273234445E+03  0.57745371180E+03  0.33404843935E+03  0.71698635547E+03  0.00000000000E+00 0. -1.
<mgrwt>
<rscale>  0 0.12989089E+04</rscale>
<asrwt>0</asrwt>
<pdfrwt beam="1">  1        1 0.13658543E+00 0.12989089E+04</pdfrwt>
<pdfrwt beam="2">  1       -1 0.73091412E-01 0.12989089E+04</pdfrwt>
<totfact> 0.34535073E+01</totfact>
</mgrwt>
</event>
<event>
 6    1  0.1568961E-005  0.1787704E+04  0.7818608E-02  0.8712866E-01
         -1   -1    0    0    0  501 -0.00000000000E+00  0.00000000000E+00  0.16626572992E+04  0.16626572992E+04  0.00000000000E+00 0.  1.
          1   -1    0    0  501    0  0.00000000000E+00 -0.00000000000E+00 -0.48053900950E+03  0.48053900950E+03  0.00000000000E+00 0. -1.
         23    2    1    2    0    0 -0.14530275755E+03 -0.28246040736E+03 -0.40601171333E+03  0.52361189299E+03  0.91799401082E+02 0.  0.
         13    1    3    3    0    0  0.90282590067E+01 -0.26012633813E+02 -0.60611640911E+02  0.66572799194E+02  0.00000000000E+00 0. -1.
        -13    1    3    3    0    0 -0.15433101656E+03 -0.25644777354E+03 -0.34540007242E+03  0.45703909379E+03  0.00000000000E+00 0.  1.
         22    1    1    2    0    0  0.14530275755E+03  0.28246040736E+03  0.15881300030E+04  0.16195844157E+04  0.00000000000E+00 0.  1.
<mgrwt>
<rscale>  0 0.17877043E+04</rscale>
<asrwt>0</asrwt>
<pdfrwt beam="1">  1        1 0.73929079E-01 0.17877043E+04</pdfrwt>
<pdfrwt beam="2">  1       -1 0.25579343E+00 0.17877043E+04</pdfrwt>
<totfact> 0.28266105E+00</totfact>
</mgrwt>
</event>
<event>
 6    1  0.1568961E-005  0.2078669E+04  0.7818608E-02  0.8570698E-01
         -2   -1    0    0    0  501 -0.00000000000E+00  0.00000000000E+00  0.15562544056E+04  0.15562544056E+04  0.00000000000E+00 0.  1.
          2   -1    0    0  501    0  0.00000000000E+00 -0.00000000000E+00 -0.69411307614E+03  0.69411307614E+03  0.00000000000E+00 0. -1.
         23    2    1    2    0    0 -0.63223600154E+03 -0.20860552111E+03  0.12930739562E+04  0.14573091272E+04  0.92038095197E+02 0.  0.
         13    1    3    3    0    0 -0.16541457205E+03 -0.17885782144E+02  0.28101771633E+03  0.32657746208E+03  0.00000000000E+00 0. -1.
        -13    1    3    3    0    0 -0.46682142949E+03 -0.19071973897E+03  0.10120562398E+04  0.11307316651E+04  0.00000000000E+00 0.  1.
         22    1    1    2    0    0  0.63223600154E+03  0.20860552111E+03 -0.43093262666E+03  0.79305835460E+03  0.00000000000E+00 0. -1.
<mgrwt>
<rscale>  0 0.20786693E+04</rscale>
<asrwt>0</asrwt>
<pdfrwt beam="1">  1        2 0.10678663E+00 0.20786693E+04</pdfrwt>
<pdfrwt beam="2">  1       -2 0.23942375E+00 0.20786693E+04</pdfrwt>
<totfact> 0.28544290E+00</totfact>
</mgrwt>
</event>
<event>
 6    1  0.1568961E-005  0.2487996E+04  0.7818608E-02  0.8407274E-01
          1   -1    0    0  501    0  0.00000000000E+00  0.00000000000E+00  0.58779879767E+03  0.58779879767E+03  0.00000000000E+00 0. -1.
         -1   -1    0    0    0  501 -0.00000000000E+00 -0.00000000000E+00 -0.26327570076E+04  0.26327570076E+04  0.00000000000E+00 0.  1.
         23    2    1    2    0    0  0.39211625077E+03 -0.10542932547E+04 -0.17066714531E+04  0.20459378457E+04  0.88570867980E+02 0.  0.
         11    1    3    3    0    0  0.22475808489E+03 -0.72349842115E+03 -0.11490771183E+04  0.13763518394E+04  0.00000000000E+00 0.  1.
        -11    1    3    3    0    0  0.16735816588E+03 -0.33079483356E+03 -0.55759433485E+03  0.66958600631E+03  0.00000000000E+00 0. -1.
         22    1    1    2    0    0 -0.39211625077E+03  0.10542932547E+04 -0.33828675681E+03  0.11746179595E+04  0.00000000000E+00 0. -1.
<mgrwt>
<rscale>  0 0.24879963E+04</rscale>
<asrwt>0</asrwt>
<pdfrwt beam="1">  1        1 0.90430585E-01 0.24879963E+04</pdfrwt>
<pdfrwt beam="2">  1       -1 0.40503953E+00 0.24879963E+04</pdfrwt>
<totfact> 0.20731494E-01</totfact>
</mgrwt>
</event>
<event>
 6    1  0.1568961E-005  0.1986669E+04  0.7818608E-02  0.8612879E-01
          2   -1    0    0  501    0  0.00000000000E+00  0.00000000000E+00  0.14887576020E+04  0.14887576020E+04  0.00000000000E+00 0. -1.
         -2   -1    0    0    0  501 -0.00000000000E+00 -0.00000000000E+00 -0.66277639751E+03  0.66277639751E+03  0.00000000000E+00 0.  1.
         23    2    1    2    0    0 -0.45101862456E+03 -0.34808831071E+03 -0.46426163163E+03  0.74110504067E+03  0.95470136362E+02 0.  0.
         13    1    3    3    0    0 -0.40021246945E+03 -0.27020258735E+03 -0.40981550376E+03  0.63334682919E+03  0.00000000000E+00 0.  1.
        -13    1    3    3    0    0 -0.50806155107E+02 -0.77885723368E+02 -0.54446127869E+02  0.10775821148E+03  0.00000000000E+00 0. -1.
         22    1    1    2    0    0  0.45101862456E+03  0.34808831071E+03  0.12902428361E+04  0.14104289588E+04  0.00000000000E+00 0. -1.
<mgrwt>
<rscale>  0 0.19866690E+04</rscale>
<asrwt>0</asrwt>
<pdfrwt beam="1">  1        2 0.22903963E+00 0.19866690E+04</pdfrwt>
<pdfrwt beam="2">  1       -2 0.10196560E+00 0.19866690E+04</pdfrwt>
<totfact> 0.94484309E+00</totfact>
</mgrwt>
</event>
<event>
 6    1  0.1568961E-005  0.1052160E+04  0.7818608E-02  0.9253116E-01
         -1   -1    0    0    0  501 -0.00000000000E+00  0.00000000000E+00  0.48064994112E+03  0.48064994112E+03  0.00000000000E+00 0.  1.
          1   -1    0    0  501    0  0.00000000000E+00 -0.00000000000E+00 -0.57580442472E+03  0.57580442472E+03  0.00000000000E+00 0. -1.
         23    2    1    2    0    0 -0.20428200772E+03  0.45351796612E+02  0.43225131156E+03  0.48905257090E+03  0.92429955211E+02 0.  0.
         13    1    3    3    0    0 -0.44185956799E+02  0.35422510917E+02  0.19198101907E+03  0.20015959817E+03  0.00000000000E+00 0. -1.
        -13    1    3    3    0    0 -0.16009605092E+03  0.99292856950E+01  0.24027029249E+03  0.28889297272E+03  0.00000000000E+00 0.  1.
         22    1    1    2    0    0  0.20428200772E+03 -0.45351796612E+02 -0.52740579516E+03  0.56740179494E+03  0.00000000000E+00 0. -1.
<mgrwt>
<rscale>  0 0.10521604E+04</rscale>
<asrwt>0</asrwt>
<pdfrwt beam="1">  1        1 0.88585296E-01 0.10521604E+04</pdfrwt>
<pdfrwt beam="2">  1       -1 0.73946145E-01 0.10521604E+04</pdfrwt>
<totfact> 0.66924029E+01</totfact>
</mgrwt>
</event>
<event>
 6    1  0.1568961E-005  0.2428473E+04  0.7818608E-02  0.8428920E-01
         -1   -1    0    0    0  501 -0.00000000000E+00  0.00000000000E+00  0.92760864932E+03  0.92760864932E+03  0.00000000000E+00 0.  1.
          1   -1    0    0  501    0  0.00000000000E+00 -0.00000000000E+00 -0.15894313927E+04  0.15894313927E+04  0.00000000000E+00 0. -1.
         23    2    1    2    0    0 -0.53479663004E+03 -0.75979094246E+03  0.47609094297E+03  0.10479800469E+04  0.91158548292E+02 0.  0.
         13    1    3    3    0    0 -0.39111911161E+03 -0.62030092949E+03  0.37745290562E+03  0.82475335620E+03  0.00000000000E+00 0.  1.
        -13    1    3    3    0    0 -0.14367751843E+03 -0.13949001297E+03  0.98638037348E+02  0.22322669068E+03  0.00000000000E+00 0. -1.
         22    1    1    2    0    0  0.53479663004E+03  0.75979094246E+03 -0.11379136863E+04  0.14690599951E+04  0.00000000000E+00 0. -1.
<mgrwt>
<rscale>  0 0.24284730E+04</rscale>
<asrwt>0</asrwt>
<pdfrwt beam="1">  1        1 0.24452790E+00 0.24284730E+04</pdfrwt>
<pdfrwt beam="2">  1       -1 0.14270903E+00 0.24284730E+04</pdfrwt>
<totfact> 0.20216187E+00</totfact>
</mgrwt>
</event>
<event>
 6    1  0.1568961E-005  0.3152702E+04  0.7818608E-02  0.8201421E-01
         -2   -1    0    0    0  501 -0.00000000000E+00  0.00000000000E+00  0.13201449575E+04  0.13201449575E+04  0.00000000000E+00 0. -1.
          2   -1    0    0  501    0  0.00000000000E+00 -0.00000000000E+00 -0.18822795152E+04  0.18822795152E+04  0.00000000000E+00 0.  1.
         23    2    1    2    0    0  0.64216016370E+03  0.10608478684E+04  0.70504272926E+03  0.14294309160E+04  0.91758475235E+02 0.  0.
         11    1    3    3    0    0  0.26871862315E+03  0.50237794672E+03  0.36301672907E+03  0.67555491662E+03  0.00000000000E+00 0. -1.
        -11    1    3    3    0    0  0.37344154055E+03  0.55846992168E+03  0.34202600019E+03  0.75387599937E+03  0.00000000000E+00 0.  1.
         22    1    1    2    0    0 -0.64216016370E+03 -0.10608478684E+04 -0.12671772869E+04  0.17729935567E+04  0.00000000000E+00 0.  1.
<mgrwt>
<rscale>  0 0.31527016E+04</rscale>
<asrwt>0</asrwt>
<pdfrwt beam="1">  1        2 0.28958146E+00 0.31527016E+04</pdfrwt>
<pdfrwt beam="2">  1       -2 0.20309922E+00 0.31527016E+04</pdfrwt>
<totfact> 0.83350252E-01</totfact>
</mgrwt>
</event>
<event>
 6    1  0.1568961E-005  0.2454236E+04  0.7818608E-02  0.8419473E-01
          1   -1    0    0  501    0  0.00000000000E+00  0.00000000000E+00  0.21348822568E+04  0.21348822568E+04  0.00000000000E+00 0. -1.
         -1   -1    0    0    0  501 -0.00000000000E+00 -0.00000000000E+00 -0.70534026473E+03  0.70534026473E+03  0.00000000000E+00 0.  1.
         23    2    1    2    0    0 -0.22687419902E+03 -0.98166010472E+03  0.15229411937E+04  0.18283668627E+04  0.91907790784E+02 0.  0.
         11    1    3    3    0    0 -0.25170359656E+02 -0.16003353279E+03  0.30604014002E+03  0.34627279120E+03  0.00000000000E+00 0.  1.
        -11    1    3    3    0    0 -0.20170383936E+03 -0.82162657193E+03  0.12169010537E+04  0.14820940715E+04  0.00000000000E+00 0. -1.
         22    1    1    2    0    0  0.22687419902E+03  0.98166010472E+03 -0.93399201601E+02  0.10118556588E+04  0.00000000000E+00 0.  1.
<mgrwt>
<rscale>  0 0.24542359E+04</rscale>
<asrwt>0</asrwt>
<pdfrwt beam="1">  1        1 0.32844342E+00 0.24542359E+04</pdfrwt>
<pdfrwt beam="2">  1       -1 0.10851389E+00 0.24542359E+04</pdfrwt>
<totfact> 0.16957155E+00</totfact>
</mgrwt>
</event>
<event>
 6    1  0.1568961E-005  0.2342756E+04  0.7818608E-02  0.8461251E-01
          1   -1    0    0  501    0  0.00000000000E+00  0.00000000000E+00  0.22103853902E+04  0.22103853902E+04  0.00000000000E+00 0. -1.
         -1   -1    0    0    0  501 -0.00000000000E+00 -0.00000000000E+00 -0.62076341076E+03  0.62076341076E+03  0.00000000000E+00 0.  1.
         23    2    1    2    0    0 -0.54713690103E+03  0.46317084685E+03 -0.32088614119E+03  0.79057846383E+03  0.90334766383E+02 0.  0.
         13    1    3    3    0    0 -0.18095542212E+03  0.20595581836E+03 -0.10308314869E+03  0.29289725068E+03  0.00000000000E+00 0. -1.
        -13    1    3    3    0    0 -0.36618147891E+03  0.25721502848E+03 -0.21780299250E+03  0.49768121315E+03  0.00000000000E+00 0.  1.
         22    1    1    2    0    0  0.54713690103E+03 -0.46317084685E+03  0.19105081206E+04  0.20405703371E+04  0.00000000000E+00 0. -1.
<mgrwt>
<rscale>  0 0.23427560E+04</rscale>
<asrwt>0</asrwt>
<pdfrwt beam="1">  1        1 0.34005929E+00 0.23427560E+04</pdfrwt>
<pdfrwt beam="2">  1       -1 0.95502064E-01 0.23427560E+04</pdfrwt>
<totfact> 0.20418808E+00</totfact>
</mgrwt>
</event>
<event>
 6    1  0.1568961E-005  0.2815094E+04  0.7818608E-02  0.8298597E-01
         -2   -1    0    0    0  501 -0.00000000000E+00  0.00000000000E+00  0.19390551440E+04  0.19390551440E+04  0.00000000000E+00 0.  1.
          2   -1    0    0  501    0  0.00000000000E+00 -0.00000000000E+00 -0.10217289863E+04  0.10217289863E+04  0.00000000000E+00 0. -1.
         23    2    1    2    0    0  0.37028415095E+03  0.13367521864E+04  0.70015907959E+03  0.15567975562E+04  0.96845928819E+02 0.  0.
         13    1    3    3    0    0  0.14070382980E+03  0.39389143214E+03  0.24747516263E+03  0.48599586846E+03  0.00000000000E+00 0.  1.
        -13    1    3    3    0    0  0.22958032115E+03  0.94286075427E+03  0.45268391696E+03  0.10708016877E+04  0.00000000000E+00 0. -1.
         22    1    1    2    0    0 -0.37028415095E+03 -0.13367521864E+04  0.21716707812E+03  0.14039865741E+04  0.00000000000E+00 0. -1.
<mgrwt>
<rscale>  0 0.28150942E+04</rscale>
<asrwt>0</asrwt>
<pdfrwt beam="1">  1        2 0.15718908E+00 0.28150942E+04</pdfrwt>
<pdfrwt beam="2">  1       -2 0.29831618E+00 0.28150942E+04</pdfrwt>
<totfact> 0.68999786E-01</totfact>
</mgrwt>
</event>
<event>
 6    1  0.1752755E-005  0.4119266E+04  0.7818608E-02  0.7980910E-01
         -2   -1    0    0    0  501 -0.00000000000E+00  0.00000000000E+00  0.13125034370E+04  0.13125034370E+04  0.00000000000E+00 0.  1.
          2   -1    0    0  501    0  0.00000000000E+00 -0.00000000000E+00 -0.32320586500E+04  0.32320586500E+04  0.00000000000E+00 0. -1.
         23    2    1    2    0    0  0.98929538467E+03  0.36583662985E+03  0.99015875179E+03  0.14495698165E+04  0.91085132619E+02 0.  0.
         11    1    3    3    0    0  0.35414794802E+03  0.94844933460E+02  0.30679230653E+03  0.47805632496E+03  0.00000000000E+00 0.  1.
        -11    1    3    3    0    0  0.63514743665E+03  0.27099169639E+03  0.68336644526E+03  0.97151349157E+03  0.00000000000E+00 0. -1.
         22    1    1    2    0    0 -0.98929538467E+03 -0.36583662985E+03 -0.29097139647E+04  0.30949922705E+04  0.00000000000E+00 0. -1.
<mgrwt>
<rscale>  0 0.41192660E+04</rscale>
<asrwt>0</asrwt>
<pdfrwt beam="1">  1        2 0.49723978E+00 0.41192660E+04</pdfrwt>
<pdfrwt beam="2">  1       -2 0.20192361E+00 0.41192660E+04</pdfrwt>
<totfact> 0.12458186E-01</totfact>
</mgrwt>
</event>
<event>
 6    1  0.1568961E-005  0.1661819E+04  0.7818608E-02  0.8783445E-01
         -1   -1    0    0    0  501 -0.00000000000E+00  0.00000000000E+00  0.38282585341E+03  0.38282585341E+03  0.00000000000E+00 0.  1.
          1   -1    0    0  501    0  0.00000000000E+00 -0.00000000000E+00 -0.18034592004E+04  0.18034592004E+04  0.00000000000E+00 0. -1.
         23    2    1    2    0    0  0.13532236807E+03  0.34496294556E+02 -0.17867629894E+04  0.17944265937E+04  0.89121727737E+02 0.  0.
         11    1    3    3    0    0  0.50146255807E+02 -0.23723090060E+02 -0.39962141719E+03  0.40345347818E+03  0.00000000000E+00 0.  1.
        -11    1    3    3    0    0  0.85176112262E+02  0.58219384616E+02 -0.13871415722E+04  0.13909731156E+04  0.00000000000E+00 0. -1.
         22    1    1    2    0    0 -0.13532236807E+03 -0.34496294556E+02  0.36612964244E+03  0.39185846005E+03  0.00000000000E+00 0.  1.
<mgrwt>
<rscale>  0 0.16618193E+04</rscale>
<asrwt>0</asrwt>
<pdfrwt beam="1">  1        1 0.27745526E+00 0.16618193E+04</pdfrwt>
<pdfrwt beam="2">  1       -1 0.58896285E-01 0.16618193E+04</pdfrwt>
<totfact> 0.11303462E+01</totfact>
</mgrwt>
</event>
<event>
 6    1  0.1568961E-005  0.1653618E+04  0.7818608E-02  0.8788269E-01
         -1   -1    0    0    0  501 -0.00000000000E+00  0.00000000000E+00  0.47446570260E+03  0.47446570260E+03  0.00000000000E+00 0.  1.
          1   -1    0    0  501    0  0.00000000000E+00 -0.00000000000E+00 -0.14408060822E+04  0.14408060822E+04  0.00000000000E+00 0. -1.
         23    2    1    2    0    0  0.78924174839E+03 -0.16438702483E+03 -0.68427103312E+03  0.10611706506E+04  0.89054317783E+02 0.  0.
         13    1    3    3    0    0  0.46541972371E+03 -0.86892531536E+02 -0.45697350297E+03  0.65802022284E+03  0.00000000000E+00 0.  1.
        -13    1    3    3    0    0  0.32382202468E+03 -0.77494493298E+02 -0.22729753016E+03  0.40315042772E+03  0.00000000000E+00 0. -1.
         22    1    1    2    0    0 -0.78924174839E+03  0.16438702483E+03 -0.28206934652E+03  0.85410113428E+03  0.00000000000E+00 0.  1.
<mgrwt>
<rscale>  0 0.16536179E+04</rscale>
<asrwt>0</asrwt>
<pdfrwt beam="1">  1        1 0.22166248E+00 0.16536179E+04</pdfrwt>
<pdfrwt beam="2">  1       -1 0.72994723E-01 0.16536179E+04</pdfrwt>
<totfact> 0.13000302E+01</totfact>
</mgrwt>
</event>
<event>
 6    1  0.1568961E-005  0.9218119E+03  0.7818608E-02  0.9398719E-01
         -2   -1    0    0    0  501 -0.00000000000E+00  0.00000000000E+00  0.11054307504E+04  0.11054307504E+04  0.00000000000E+00 0.  1.
          2   -1    0    0  501    0  0.00000000000E+00 -0.00000000000E+00 -0.19217333252E+03  0.19217333252E+03  0.00000000000E+00 0. -1.
         23    2    1    2    0    0  0.12528998766E+03 -0.30742815753E+03  0.20385144020E+02  0.34501259100E+03  0.91697768808E+02 0.  0.
         13    1    3    3    0    0 -0.10130932453E+02 -0.23891925005E+02  0.16538678595E+02  0.30773166273E+02  0.00000000000E+00 0.  1.
        -13    1    3    3    0    0  0.13542092012E+03 -0.28353623252E+03  0.38464654246E+01  0.31423942473E+03  0.00000000000E+00 0. -1.
         22    1    1    2    0    0 -0.12528998766E+03  0.30742815753E+03  0.89287227387E+03  0.95259149193E+03  0.00000000000E+00 0.  1.
<mgrwt>
<rscale>  0 0.92181194E+03</rscale>
<asrwt>0</asrwt>
<pdfrwt beam="1">  1        2 0.29565129E-01 0.92181194E+03</pdfrwt>
<pdfrwt beam="2">  1       -2 0.17006627E+00 0.92181194E+03</pdfrwt>
<totfact> 0.38632779E+01</totfact>
</mgrwt>
</event>
<event>
 6    1  0.1568961E-005  0.1043519E+04  0.7818608E-02  0.9262061E-01
          1   -1    0    0  501    0  0.00000000000E+00  0.00000000000E+00  0.18568206813E+04  0.18568206813E+04  0.00000000000E+00 0. -1.
         -1   -1    0    0    0  501 -0.00000000000E+00 -0.00000000000E+00 -0.14661247606E+03  0.14661247606E+03  0.00000000000E+00 0.  1.
         23    2    1    2    0    0  0.28700760596E+03 -0.15468322896E+03  0.16338445582E+04  0.16685724792E+04  0.91574071590E+02 0.  0.
         13    1    3    3    0    0  0.63464010502E+02 -0.80630901294E+02  0.45309266899E+03  0.46456645333E+03  0.00000000000E+00 0. -1.
        -13    1    3    3    0    0  0.22354359546E+03 -0.74052327669E+02  0.11807518892E+04  0.12040060258E+04  0.00000000000E+00 0.  1.
         22    1    1    2    0    0 -0.28700760596E+03  0.15468322896E+03  0.76363646986E+02  0.33486067817E+03  0.00000000000E+00 0.  1.
<mgrwt>
<rscale>  0 0.10435192E+04</rscale>
<asrwt>0</asrwt>
<pdfrwt beam="1">  1        1 0.28566470E+00 0.10435192E+04</pdfrwt>
<pdfrwt beam="2">  1       -1 0.22555767E-01 0.10435192E+04</pdfrwt>
<totfact> 0.62389534E+01</totfact>
</mgrwt>
</event>
<event>
 6    1  0.1568961E-005  0.2551624E+04  0.7818608E-02  0.8384822E-01
          2   -1    0    0  501    0  0.00000000000E+00  0.00000000000E+00  0.15292327914E+04  0.15292327914E+04  0.00000000000E+00 0. -1.
         -2   -1    0    0    0  501 -0.00000000000E+00 -0.00000000000E+00 -0.10643877519E+04  0.10643877519E+04  0.00000000000E+00 0.  1.
         23    2    1    2    0    0 -0.35355298381E+03  0.20406227712E+03 -0.99326873739E+03  0.10794419173E+04  0.10941180376E+03 0.  0.
         13    1    3    3    0    0 -0.10940703163E+03  0.12470604009E+03 -0.38625656188E+03  0.42037557802E+03  0.00000000000E+00 0.  1.
        -13    1    3    3    0    0 -0.24414595218E+03  0.79356237035E+02 -0.60701217551E+03  0.65906633925E+03  0.00000000000E+00 0. -1.
         22    1    1    2    0    0  0.35355298381E+03 -0.20406227712E+03  0.14581137768E+04  0.15141786260E+04  0.00000000000E+00 0. -1.
<mgrwt>
<rscale>  0 0.25516243E+04</rscale>
<asrwt>0</asrwt>
<pdfrwt beam="1">  1        2 0.23526658E+00 0.25516243E+04</pdfrwt>
<pdfrwt beam="2">  1       -2 0.16375196E+00 0.25516243E+04</pdfrwt>
<totfact> 0.25661706E+00</totfact>
</mgrwt>
</event>
<event>
 6    1  0.1568961E-005  0.2611771E+04  0.7818608E-02  0.8364214E-01
         -2   -1    0    0    0  501 -0.00000000000E+00  0.00000000000E+00  0.13693860096E+04  0.13693860096E+04  0.00000000000E+00 0. -1.
          2   -1    0    0  501    0  0.00000000000E+00 -0.00000000000E+00 -0.12453295130E+04  0.12453295130E+04  0.00000000000E+00 0.  1.
         23    2    1    2    0    0  0.36575409343E+03 -0.60343050941E+03  0.11602535858E+04  0.13610772796E+04  0.91861533235E+02 0.  0.
         11    1    3    3    0    0  0.12630326153E+03 -0.18865187538E+03  0.45617442097E+03  0.50954601981E+03  0.00000000000E+00 0. -1.
        -11    1    3    3    0    0  0.23945083190E+03 -0.41477863404E+03  0.70407916480E+03  0.85153125982E+03  0.00000000000E+00 0.  1.
         22    1    1    2    0    0 -0.36575409343E+03  0.60343050941E+03 -0.10361970892E+04  0.12536382430E+04  0.00000000000E+00 0.  1.
<mgrwt>
<rscale>  0 0.26117709E+04</rscale>
<asrwt>0</asrwt>
<pdfrwt beam="1">  1        2 0.19158916E+00 0.26117709E+04</pdfrwt>
<pdfrwt beam="2">  1       -2 0.21067477E+00 0.26117709E+04</pdfrwt>
<totfact> 0.17833324E+00</totfact>
</mgrwt>
</event>
<event>
 6    1  0.1568961E-005  0.3469985E+04  0.7818608E-02  0.8120940E-01
          2   -1    0    0  501    0  0.00000000000E+00  0.00000000000E+00  0.21695720798E+04  0.21695720798E+04  0.00000000000E+00 0. -1.
         -2   -1    0    0    0  501 -0.00000000000E+00 -0.00000000000E+00 -0.13874618863E+04  0.13874618863E+04  0.00000000000E+00 0.  1.
         23    2    1    2    0    0 -0.50061809957E+03  0.15016311411E+04 -0.33390670131E+03  0.16202819750E+04  0.91134120609E+02 0.  0.
         13    1    3    3    0    0 -0.41186478115E+03  0.11767877854E+04 -0.29574327900E+03  0.12813766725E+04  0.00000000000E+00 0. -1.
        -13    1    3    3    0    0 -0.88753318417E+02  0.32484335572E+03 -0.38163422310E+02  0.33890530254E+03  0.00000000000E+00 0.  1.
         22    1    1    2    0    0  0.50061809957E+03 -0.15016311411E+04  0.11160168948E+04  0.19367519911E+04  0.00000000000E+00 0.  1.
<mgrwt>
<rscale>  0 0.34699848E+04</rscale>
<asrwt>0</asrwt>
<pdfrwt beam="1">  1        2 0.33378032E+00 0.34699848E+04</pdfrwt>
<pdfrwt beam="2">  1       -2 0.21345567E+00 0.34699848E+04</pdfrwt>
<totfact> 0.48140141E-01</totfact>
</mgrwt>
</event>
<event>
 6    1  0.1568961E-005  0.7029983E+03  0.7818608E-02  0.9712118E-01
          1   -1    0    0  501    0  0.00000000000E+00  0.00000000000E+00  0.31437550640E+03  0.31437550640E+03  0.00000000000E+00 0. -1.
         -1   -1    0    0    0  501 -0.00000000000E+00 -0.00000000000E+00 -0.39300661851E+03  0.39300661851E+03  0.00000000000E+00 0.  1.
         23    2    1    2    0    0  0.14562021383E+03  0.30266540678E+03 -0.12174164747E+03  0.36875236632E+03  0.91354714175E+02 0.  0.
         13    1    3    3    0    0  0.38797092716E+02  0.70160530447E+02  0.10280649583E+02  0.80829488380E+02  0.00000000000E+00 0. -1.
        -13    1    3    3    0    0  0.10682312111E+03  0.23250487634E+03 -0.13202229706E+03  0.28792287794E+03  0.00000000000E+00 0.  1.
         22    1    1    2    0    0 -0.14562021383E+03 -0.30266540678E+03  0.43110535359E+02  0.33862975858E+03  0.00000000000E+00 0. -1.
<mgrwt>
<rscale>  0 0.70299831E+03</rscale>
<asrwt>0</asrwt>
<pdfrwt beam="1">  1        1 0.48365462E-01 0.70299831E+03</pdfrwt>
<pdfrwt beam="2">  1       -1 0.60462557E-01 0.70299831E+03</pdfrwt>
<totfact> 0.23201615E+02</totfact>
</mgrwt>
</event>
<event>
 6    1  0.1568961E-005  0.3561544E+04  0.7818608E-02  0.8099358E-01
         -2   -1    0    0    0  501 -0.00000000000E+00  0.00000000000E+00  0.16900008383E+04  0.16900008383E+04  0.00000000000E+00 0.  1.
          2   -1    0    0  501    0  0.00000000000E+00 -0.00000000000E+00 -0.18764182722E+04  0.18764182722E+04  0.00000000000E+00 0. -1.
         23    2    1    2    0    0  0.36317539602E+03 -0.46022987945E+03  0.15890336704E+04  0.16966772744E+04  0.99889226350E+02 0.  0.
         11    1    3    3    0    0  0.10671467120E+02 -0.61862671998E+02  0.16610167531E+03  0.17756868231E+03  0.00000000000E+00 0. -1.
        -11    1    3    3    0    0  0.35250392890E+03 -0.39836720746E+03  0.14229319951E+04  0.15191085920E+04  0.00000000000E+00 0.  1.
         22    1    1    2    0    0 -0.36317539602E+03  0.46022987945E+03 -0.17754511043E+04  0.18697418362E+04  0.00000000000E+00 0. -1.
<mgrwt>
<rscale>  0 0.35615437E+04</rscale>
<asrwt>0</asrwt>
<pdfrwt beam="1">  1        2 0.28867973E+00 0.35615437E+04</pdfrwt>
<pdfrwt beam="2">  1       -2 0.26000013E+00 0.35615437E+04</pdfrwt>
<totfact> 0.35700059E-01</totfact>
</mgrwt>
</event>
<event>
 6    1  0.1568961E-005  0.2096384E+04  0.7818608E-02  0.8562838E-01
         -2   -1    0    0    0  501 -0.00000000000E+00  0.00000000000E+00  0.49295652912E+03  0.49295652912E+03  0.00000000000E+00 0.  1.
          2   -1    0    0  501    0  0.00000000000E+00 -0.00000000000E+00 -0.22288109377E+04  0.22288109377E+04  0.00000000000E+00 0. -1.
         23    2    1    2    0    0 -0.23457976795E+03  0.68438849719E+03 -0.18507906397E+04  0.19892201169E+04  0.90307246879E+02 0.  0.
         13    1    3    3    0    0 -0.78185135174E+02  0.26313889243E+03 -0.58956684477E+03  0.65034149223E+03  0.00000000000E+00 0. -1.
        -13    1    3    3    0    0 -0.15639463278E+03  0.42124960476E+03 -0.12612237949E+04  0.13388786246E+04  0.00000000000E+00 0.  1.
         22    1    1    2    0    0  0.23457976795E+03 -0.68438849719E+03  0.11493623114E+03  0.73254734990E+03  0.00000000000E+00 0.  1.
<mgrwt>
<rscale>  0 0.20963844E+04</rscale>
<asrwt>0</asrwt>
<pdfrwt beam="1">  1        2 0.34289399E+00 0.20963844E+04</pdfrwt>
<pdfrwt beam="2">  1       -2 0.75839465E-01 0.20963844E+04</pdfrwt>
<totfact> 0.71429042E+00</totfact>
</mgrwt>
</event>
<event>
 6    1  0.1568961E-005  0.4371361E+04  0.7818608E-02  0.7933553E-01
          1   -1    0    0  501    0  0.00000000000E+00  0.00000000000E+00  0.37343134699E+04  0.37343134699E+04  0.00000000000E+00 0. -1.
         -1   -1    0    0    0  501 -0.00000000000E+00 -0.00000000000E+00 -0.12792710659E+04  0.12792710659E+04  0.00000000000E+00 0.  1.
         23    2    1    2    0    0 -0.13192338693E+04 -0.12704174773E+04  0.25937913699E+04  0.31768510647E+04  0.10144184714E+03 0.  0.
         13    1    3    3    0    0 -0.63622144132E+03 -0.67667279091E+03  0.13503444233E+04  0.16389307032E+04  0.00000000000E+00 0.  1.
        -13    1    3    3    0    0 -0.68301242796E+03 -0.59374468638E+03  0.12434469466E+04  0.15379203615E+04  0.00000000000E+00 0. -1.
         22    1    1    2    0    0  0.13192338693E+04  0.12704174773E+04 -0.13874896585E+03  0.18367334711E+04  0.00000000000E+00 0.  1.
<mgrwt>
<rscale>  0 0.43713610E+04</rscale>
<asrwt>0</asrwt>
<pdfrwt beam="1">  1        1 0.57450976E+00 0.43713610E+04</pdfrwt>
<pdfrwt beam="2">  1       -1 0.19681093E+00 0.43713610E+04</pdfrwt>
<totfact> 0.19395002E-02</totfact>
</mgrwt>
</event>
<event>
 6    1  0.1568961E-005  0.1535467E+04  0.7818608E-02  0.8861205E-01
          2   -1    0    0  501    0  0.00000000000E+00  0.00000000000E+00  0.27779151673E+04  0.27779151673E+04  0.00000000000E+00 0. -1.
         -2   -1    0    0    0  501 -0.00000000000E+00 -0.00000000000E+00 -0.21217875075E+03  0.21217875075E+03  0.00000000000E+00 0.  1.
         23    2    1    2    0    0  0.67547309557E+03  0.10582958305E+03  0.61826875442E+03  0.92609437869E+03  0.89054713848E+02 0.  0.
         13    1    3    3    0    0  0.26114319701E+03  0.12521747906E+02  0.19206908351E+03  0.32441192388E+03  0.00000000000E+00 0.  1.
        -13    1    3    3    0    0  0.41432989856E+03  0.93307835145E+02  0.42619967091E+03  0.60168245480E+03  0.00000000000E+00 0. -1.
         22    1    1    2    0    0 -0.67547309557E+03 -0.10582958305E+03  0.19474676621E+04  0.20639995393E+04  0.00000000000E+00 0. -1.
<mgrwt>
<rscale>  0 0.15354668E+04</rscale>
<asrwt>0</asrwt>
<pdfrwt beam="1">  1        2 0.42737154E+00 0.15354668E+04</pdfrwt>
<pdfrwt beam="2">  1       -2 0.32642887E-01 0.15354668E+04</pdfrwt>
<totfact> 0.20197084E+01</totfact>
</mgrwt>
</event>
<event>
 6    1  0.1568961E-005  0.4055321E+04  0.7818608E-02  0.7993479E-01
         -1   -1    0    0    0  501 -0.00000000000E+00  0.00000000000E+00  0.18120131340E+04  0.18120131340E+04  0.00000000000E+00 0.  1.
          1   -1    0    0  501    0  0.00000000000E+00 -0.00000000000E+00 -0.22689725272E+04  0.22689725272E+04  0.00000000000E+00 0. -1.
         23    2    1    2    0    0 -0.19628765541E+04  0.50461357067E+03 -0.22612141371E+03  0.20411804267E+04  0.88132957540E+02 0.  0.
         11    1    3    3    0    0 -0.12201692970E+04  0.32934792499E+03 -0.18110733599E+03  0.12767470526E+04  0.00000000000E+00 0.  1.
        -11    1    3    3    0    0 -0.74270725707E+03  0.17526564568E+03 -0.45014077719E+02  0.76443337411E+03  0.00000000000E+00 0. -1.
         22    1    1    2    0    0  0.19628765541E+04 -0.50461357067E+03 -0.23083797952E+03  0.20398052346E+04  0.00000000000E+00 0. -1.
<mgrwt>
<rscale>  0 0.40553215E+04</rscale>
<asrwt>0</asrwt>
<pdfrwt beam="1">  1        1 0.34907270E+00 0.40553215E+04</pdfrwt>
<pdfrwt beam="2">  1       -1 0.27877125E+00 0.40553215E+04</pdfrwt>
<totfact> 0.69031610E-02</totfact>
</mgrwt>
</event>
<event>
 6    1  0.1568961E-005  0.4725526E+04  0.7818608E-02  0.7872301E-01
          1   -1    0    0  501    0  0.00000000000E+00  0.00000000000E+00  0.28490881001E+04  0.28490881001E+04  0.00000000000E+00 0. -1.
         -1   -1    0    0    0  501 -0.00000000000E+00 -0.00000000000E+00 -0.19594510464E+04  0.19594510464E+04  0.00000000000E+00 0.  1.
         23    2    1    2    0    0  0.18684445571E+04  0.12912410808E+04  0.11044523865E+04  0.25271943197E+04  0.92235913278E+02 0.  0.
         11    1    3    3    0    0  0.43776246722E+03  0.27584462476E+03  0.21646550476E+03  0.56087748169E+03  0.00000000000E+00 0.  1.
        -11    1    3    3    0    0  0.14306820899E+04  0.10153964560E+04  0.88798688174E+03  0.19663168380E+04  0.00000000000E+00 0. -1.
         22    1    1    2    0    0 -0.18684445571E+04 -0.12912410808E+04 -0.21481533275E+03  0.22813448268E+04  0.00000000000E+00 0.  1.
<mgrwt>
<rscale>  0 0.47255259E+04</rscale>
<asrwt>0</asrwt>
<pdfrwt beam="1">  1        1 0.43832125E+00 0.47255259E+04</pdfrwt>
<pdfrwt beam="2">  1       -1 0.30145401E+00 0.47255259E+04</pdfrwt>
<totfact> 0.18327100E-02</totfact>
</mgrwt>
</event>
<event>
 6    1  0.1568961E-005  0.1822720E+04  0.7818608E-02  0.8694310E-01
         -1   -1    0    0    0  501 -0.00000000000E+00  0.00000000000E+00  0.53013027001E+03  0.53013027001E+03  0.00000000000E+00 0.  1.
          1   -1    0    0  501    0  0.00000000000E+00 -0.00000000000E+00 -0.15667414246E+04  0.15667414246E+04  0.00000000000E+00 0. -1.
         23    2    1    2    0    0  0.28632829984E+02  0.29265579639E+03 -0.15092085234E+04  0.15402609445E+04  0.90698158069E+02 0.  0.
         11    1    3    3    0    0  0.35273969710E+02  0.76413392653E+02 -0.58779602417E+03  0.59379072538E+03  0.00000000000E+00 0.  1.
        -11    1    3    3    0    0 -0.66411397259E+01  0.21624240373E+03 -0.92141249926E+03  0.94647021913E+03  0.00000000000E+00 0. -1.
         22    1    1    2    0    0 -0.28632829984E+02 -0.29265579639E+03  0.47259736884E+03  0.55661075011E+03  0.00000000000E+00 0.  1.
<mgrwt>
<rscale>  0 0.18227200E+04</rscale>
<asrwt>0</asrwt>
<pdfrwt beam="1">  1        1 0.24103714E+00 0.18227200E+04</pdfrwt>
<pdfrwt beam="2">  1       -1 0.81558504E-01 0.18227200E+04</pdfrwt>
<totfact> 0.82914383E+00</totfact>
</mgrwt>
</event>
<event>
 6    1  0.1568961E-005  0.1140055E+04  0.7818608E-02  0.9167008E-01
          2   -1    0    0  501    0  0.00000000000E+00  0.00000000000E+00  0.37607364663E+03  0.37607364663E+03  0.00000000000E+00 0. -1.
         -2   -1    0    0    0  501 -0.00000000000E+00 -0.00000000000E+00 -0.86400989236E+03  0.86400989236E+03  0.00000000000E+00 0.  1.
         23    2    1    2    0    0  0.37436009223E+03  0.32290746225E+03 -0.54621151003E+03  0.74227763880E+03  0.90633170235E+02 0.  0.
         11    1    3    3    0    0  0.17484145458E+03  0.19798127746E+03 -0.32962530448E+03  0.42239668775E+03  0.00000000000E+00 0.  1.
        -11    1    3    3    0    0  0.19951863764E+03  0.12492618479E+03 -0.21658620555E+03  0.31988095105E+03  0.00000000000E+00 0. -1.
         22    1    1    2    0    0 -0.37436009223E+03 -0.32290746225E+03  0.58275264302E+02  0.49780590018E+03  0.00000000000E+00 0. -1.
<mgrwt>
<rscale>  0 0.11400550E+04</rscale>
<asrwt>0</asrwt>
<pdfrwt beam="1">  1        2 0.57857485E-01 0.11400550E+04</pdfrwt>
<pdfrwt beam="2">  1       -2 0.13292460E+00 0.11400550E+04</pdfrwt>
<totfact> 0.34627727E+01</totfact>
</mgrwt>
</event>
<event>
 6    1  0.1568961E-005  0.1868263E+04  0.7818608E-02  0.8670817E-01
          2   -1    0    0  501    0  0.00000000000E+00  0.00000000000E+00  0.78400309506E+03  0.78400309506E+03  0.00000000000E+00 0. -1.
         -2   -1    0    0    0  501 -0.00000000000E+00 -0.00000000000E+00 -0.11130075782E+04  0.11130075782E+04  0.00000000000E+00 0.  1.
         23    2    1    2    0    0  0.86582029182E+03  0.25424326324E+02 -0.51407660151E+03  0.10112664308E+04  0.89965925238E+02 0.  0.
         13    1    3    3    0    0  0.17375159365E+03  0.32726996321E+02 -0.78097296481E+02  0.19328698948E+03  0.00000000000E+00 0.  1.
        -13    1    3    3    0    0  0.69206869817E+03 -0.73026699974E+01 -0.43597930503E+03  0.81797944130E+03  0.00000000000E+00 0. -1.
         22    1    1    2    0    0 -0.86582029182E+03 -0.25424326324E+02  0.18507211837E+03  0.88574424249E+03  0.00000000000E+00 0. -1.
<mgrwt>
<rscale>  0 0.18682627E+04</rscale>
<asrwt>0</asrwt>
<pdfrwt beam="1">  1        2 0.12061586E+00 0.18682627E+04</pdfrwt>
<pdfrwt beam="2">  1       -2 0.17123193E+00 0.18682627E+04</pdfrwt>
<totfact> 0.69357481E+00</totfact>
</mgrwt>
</event>
<event>
 6    1  0.1568961E-005  0.1905410E+04  0.7818608E-02  0.8652168E-01
          2   -1    0    0  501    0  0.00000000000E+00  0.00000000000E+00  0.69123678044E+03  0.69123678044E+03  0.00000000000E+00 0. -1.
         -2   -1    0    0    0  501 -0.00000000000E+00 -0.00000000000E+00 -0.13130771407E+04  0.13130771407E+04  0.00000000000E+00 0.  1.
         23    2    1    2    0    0  0.53792557451E+03  0.60165098332E+03  0.21637025701E+03  0.84072255457E+03  0.93008043795E+02 0.  0.
         13    1    3    3    0    0  0.17928900713E+03  0.14266646003E+03  0.77909973628E+02  0.24200874134E+03  0.00000000000E+00 0.  1.
        -13    1    3    3    0    0  0.35863656738E+03  0.45898452329E+03  0.13846028338E+03  0.59871381323E+03  0.00000000000E+00 0. -1.
         22    1    1    2    0    0 -0.53792557451E+03 -0.60165098332E+03 -0.83821061730E+03  0.11635913666E+04  0.00000000000E+00 0.  1.
<mgrwt>
<rscale>  0 0.19054104E+04</rscale>
<asrwt>0</asrwt>
<pdfrwt beam="1">  1        2 0.10634412E+00 0.19054104E+04</pdfrwt>
<pdfrwt beam="2">  1       -2 0.20201187E+00 0.19054104E+04</pdfrwt>
<totfact> 0.50249994E+00</totfact>
</mgrwt>
</event>
<event>
 6    1  0.1568961E-005  0.1135272E+04  0.7818608E-02  0.9171479E-01
         -1   -1    0    0    0  501 -0.00000000000E+00  0.00000000000E+00  0.52391039460E+03  0.52391039460E+03  0.00000000000E+00 0.  1.
          1   -1    0    0  501    0  0.00000000000E+00 -0.00000000000E+00 -0.61501092706E+03  0.61501092706E+03  0.00000000000E+00 0. -1.
         23    2    1    2    0    0  0.50605634831E+03  0.57605720942E+02 -0.28735460670E+03  0.59309432672E+03  0.98877518395E+02 0.  0.
         13    1    3    3    0    0  0.36563982515E+03  0.29077013869E+02 -0.25348126209E+03  0.44585951230E+03  0.00000000000E+00 0.  1.
        -13    1    3    3    0    0  0.14041652316E+03  0.28528707073E+02 -0.33873344605E+02  0.14723481442E+03  0.00000000000E+00 0. -1.
         22    1    1    2    0    0 -0.50605634831E+03 -0.57605720942E+02  0.19625407424E+03  0.54582699494E+03  0.00000000000E+00 0.  1.
<mgrwt>
<rscale>  0 0.11352720E+04</rscale>
<asrwt>0</asrwt>
<pdfrwt beam="1">  1        1 0.94617066E-01 0.11352720E+04</pdfrwt>
<pdfrwt beam="2">  1       -1 0.80601599E-01 0.11352720E+04</pdfrwt>
<totfact> 0.50452224E+01</totfact>
</mgrwt>
</event>
<event>
 6    1  0.2277920E-005  0.3530222E+04  0.7818608E-02  0.8106665E-01
         -1   -1    0    0    0  501 -0.00000000000E+00  0.00000000000E+00  0.14499644268E+04  0.14499644268E+04  0.00000000000E+00 0.  1.
          1   -1    0    0  501    0  0.00000000000E+00 -0.00000000000E+00 -0.21487539619E+04  0.21487539619E+04  0.00000000000E+00 0. -1.
         23    2    1    2    0    0 -0.15742394133E+04  0.50951987018E+03  0.27322900148E+03  0.16796925254E+04  0.94194820513E+02 0.  0.
         11    1    3    3    0    0 -0.86947424907E+03  0.30471663027E+03  0.11027633023E+03  0.92790008275E+03  0.00000000000E+00 0.  1.
        -11    1    3    3    0    0 -0.70476516425E+03  0.20480323992E+03  0.16295267125E+03  0.75179244269E+03  0.00000000000E+00 0. -1.
         22    1    1    2    0    0  0.15742394133E+04 -0.50951987018E+03 -0.97201853659E+03  0.19190258633E+04  0.00000000000E+00 0. -1.
<mgrwt>
<rscale>  0 0.35302220E+04</rscale>
<asrwt>0</asrwt>
<pdfrwt beam="1">  1        1 0.33057753E+00 0.35302220E+04</pdfrwt>
<pdfrwt beam="2">  1       -1 0.22307145E+00 0.35302220E+04</pdfrwt>
<totfact> 0.20168418E-01</totfact>
</mgrwt>
</event>
<event>
 6    1  0.1568961E-005  0.3989276E+04  0.7818608E-02  0.8006713E-01
          2   -1    0    0  501    0  0.00000000000E+00  0.00000000000E+00  0.28583387846E+04  0.28583387846E+04  0.00000000000E+00 0. -1.
         -2   -1    0    0    0  501 -0.00000000000E+00 -0.00000000000E+00 -0.13919208737E+04  0.13919208737E+04  0.00000000000E+00 0.  1.
         23    2    1    2    0    0  0.11688347331E+04  0.15576715371E+04  0.11879524199E+04  0.22830132884E+04  0.91670454635E+02 0.  0.
         11    1    3    3    0    0  0.90896554856E+03  0.11643438555E+04  0.86825207540E+03  0.17134108231E+04  0.00000000000E+00 0.  1.
        -11    1    3    3    0    0  0.25986918453E+03  0.39332768155E+03  0.31970034452E+03  0.56960246526E+03  0.00000000000E+00 0. -1.
         22    1    1    2    0    0 -0.11688347331E+04 -0.15576715371E+04  0.27846549098E+03  0.19672463700E+04  0.00000000000E+00 0.  1.
<mgrwt>
<rscale>  0 0.39892763E+04</rscale>
<asrwt>0</asrwt>
<pdfrwt beam="1">  1        2 0.43974443E+00 0.39892763E+04</pdfrwt>
<pdfrwt beam="2">  1       -2 0.21414167E+00 0.39892763E+04</pdfrwt>
<totfact> 0.18114401E-01</totfact>
</mgrwt>
</event>
<event>
 6    1  0.1568961E-005  0.1425554E+04  0.7818608E-02  0.8935526E-01
          2   -1    0    0  501    0  0.00000000000E+00  0.00000000000E+00  0.71983577809E+03  0.71983577809E+03  0.00000000000E+00 0. -1.
         -2   -1    0    0    0  501 -0.00000000000E+00 -0.00000000000E+00 -0.70578745613E+03  0.70578745613E+03  0.00000000000E+00 0.  1.
         23    2    1    2    0    0  0.95400116763E+02 -0.49512023876E+03 -0.49251695028E+03  0.71088299598E+03  0.92392935628E+02 0.  0.
         13    1    3    3    0    0 -0.14448941857E+02 -0.77342102683E+02 -0.99708892669E+02  0.12701352702E+03  0.00000000000E+00 0. -1.
        -13    1    3    3    0    0  0.10984905862E+03 -0.41777813608E+03 -0.39280805761E+03  0.58386946896E+03  0.00000000000E+00 0.  1.
         22    1    1    2    0    0 -0.95400116763E+02  0.49512023876E+03  0.50656527225E+03  0.71474023824E+03  0.00000000000E+00 0. -1.
<mgrwt>
<rscale>  0 0.14255540E+04</rscale>
<asrwt>0</asrwt>
<pdfrwt beam="1">  1        2 0.11074397E+00 0.14255540E+04</pdfrwt>
<pdfrwt beam="2">  1       -2 0.10858269E+00 0.14255540E+04</pdfrwt>
<totfact> 0.26045399E+01</totfact>
</mgrwt>
</event>
<event>
 6    1  0.1568961E-005  0.1476890E+04  0.7818608E-02  0.8899968E-01
          1   -1    0    0  501    0  0.00000000000E+00  0.00000000000E+00  0.17870438094E+04  0.17870438094E+04  0.00000000000E+00 0.  1.
         -1   -1    0    0    0  501 -0.00000000000E+00 -0.00000000000E+00 -0.30514117879E+03  0.30514117879E+03  0.00000000000E+00 0. -1.
         23    2    1    2    0    0 -0.42653847931E+03 -0.70697486526E+02  0.15869154203E+04  0.16472570222E+04  0.90674897781E+02 0.  0.
         13    1    3    3    0    0 -0.94993919107E+02  0.15754896695E+02  0.43126902863E+03  0.44188803615E+03  0.00000000000E+00 0. -1.
        -13    1    3    3    0    0 -0.33154456020E+03 -0.86452383221E+02  0.11556463916E+04  0.12053689860E+04  0.00000000000E+00 0.  1.
         22    1    1    2    0    0  0.42653847931E+03  0.70697486526E+02 -0.10501278968E+03  0.44492796600E+03  0.00000000000E+00 0. -1.
<mgrwt>
<rscale>  0 0.14768895E+04</rscale>
<asrwt>0</asrwt>
<pdfrwt beam="1">  1        1 0.27492981E+00 0.14768895E+04</pdfrwt>
<pdfrwt beam="2">  1       -1 0.46944798E-01 0.14768895E+04</pdfrwt>
<totfact> 0.18230150E+01</totfact>
</mgrwt>
</event>
<event>
 6    1  0.1568961E-005  0.1309314E+04  0.7818608E-02  0.9022211E-01
          1   -1    0    0  501    0  0.00000000000E+00  0.00000000000E+00  0.24549203512E+04  0.24549203512E+04  0.00000000000E+00 0. -1.
         -1   -1    0    0    0  501 -0.00000000000E+00 -0.00000000000E+00 -0.17457831487E+03  0.17457831487E+03  0.00000000000E+00 0.  1.
         23    2    1    2    0    0 -0.15079960570E+03  0.46954278873E+03  0.28972174525E+03  0.57869879899E+03  0.87992378956E+02 0.  0.
         13    1    3    3    0    0 -0.39767667894E+02  0.15675724899E+03  0.50009357192E+02  0.16927858201E+03  0.00000000000E+00 0. -1.
        -13    1    3    3    0    0 -0.11103193781E+03  0.31278553974E+03  0.23971238806E+03  0.40942021698E+03  0.00000000000E+00 0.  1.
         22    1    1    2    0    0  0.15079960570E+03 -0.46954278873E+03  0.19906202910E+04  0.20507998670E+04  0.00000000000E+00 0. -1.
<mgrwt>
<rscale>  0 0.13093141E+04</rscale>
<asrwt>0</asrwt>
<pdfrwt beam="1">  1        1 0.37768003E+00 0.13093141E+04</pdfrwt>
<pdfrwt beam="2">  1       -1 0.26858204E-01 0.13093141E+04</pdfrwt>
<totfact> 0.17765633E+01</totfact>
</mgrwt>
</event>
<event>
 6    1  0.1568961E-005  0.2043799E+04  0.7818608E-02  0.8586413E-01
         -1   -1    0    0    0  501 -0.00000000000E+00  0.00000000000E+00  0.82000509442E+03  0.82000509442E+03  0.00000000000E+00 0.  1.
          1   -1    0    0  501    0  0.00000000000E+00 -0.00000000000E+00 -0.12735024156E+04  0.12735024156E+04  0.00000000000E+00 0. -1.
         23    2    1    2    0    0 -0.66391027320E+03 -0.71800660991E+03 -0.52370932552E+03  0.11130789974E+04  0.91449735467E+02 0.  0.
         11    1    3    3    0    0 -0.52511188512E+03 -0.51813661982E+03 -0.41662706262E+03  0.84722261420E+03  0.00000000000E+00 0. -1.
        -11    1    3    3    0    0 -0.13879838807E+03 -0.19986999009E+03 -0.10708226290E+03  0.26585638322E+03  0.00000000000E+00 0.  1.
         22    1    1    2    0    0  0.66391027320E+03  0.71800660991E+03  0.70212004369E+02  0.98042851258E+03  0.00000000000E+00 0.  1.
<mgrwt>
<rscale>  0 0.20437989E+04</rscale>
<asrwt>0</asrwt>
<pdfrwt beam="1">  1        1 0.19592345E+00 0.20437989E+04</pdfrwt>
<pdfrwt beam="2">  1       -1 0.12615463E+00 0.20437989E+04</pdfrwt>
<totfact> 0.47770895E+00</totfact>
</mgrwt>
</event>
<event>
 6    1  0.1568961E-005  0.5760639E+04  0.7818608E-02  0.7720809E-01
          2   -1    0    0  501    0  0.00000000000E+00  0.00000000000E+00  0.20249863496E+04  0.20249863496E+04  0.00000000000E+00 0. -1.
         -2   -1    0    0    0  501 -0.00000000000E+00 -0.00000000000E+00 -0.40969370371E+04  0.40969370371E+04  0.00000000000E+00 0.  1.
         23    2    1    2    0    0  0.99983786151E+03  0.23760010702E+04 -0.24000686816E+04  0.35233241000E+04  0.91794348422E+02 0.  0.
         11    1    3    3    0    0  0.64658144639E+03  0.14258196355E+04 -0.14391505595E+04  0.21265426242E+04  0.00000000000E+00 0. -1.
        -11    1    3    3    0    0  0.35325641513E+03  0.95018143475E+03 -0.96091812218E+03  0.13967814759E+04  0.00000000000E+00 0.  1.
         22    1    1    2    0    0 -0.99983786151E+03 -0.23760010702E+04  0.32811799414E+03  0.25985992867E+04  0.00000000000E+00 0. -1.
<mgrwt>
<rscale>  0 0.57606394E+04</rscale>
<asrwt>0</asrwt>
<pdfrwt beam="1">  1        2 0.31153636E+00 0.57606394E+04</pdfrwt>
<pdfrwt beam="2">  1       -2 0.63029801E+00 0.57606394E+04</pdfrwt>
<totfact> 0.17734414E-03</totfact>
</mgrwt>
</event>
<event>
 6    1  0.1568961E-005  0.2646045E+04  0.7818608E-02  0.8352727E-01
         -2   -1    0    0    0  501 -0.00000000000E+00  0.00000000000E+00  0.23155002665E+04  0.23155002665E+04  0.00000000000E+00 0. -1.
          2   -1    0    0  501    0  0.00000000000E+00 -0.00000000000E+00 -0.75594407651E+03  0.75594407651E+03  0.00000000000E+00 0.  1.
         23    2    1    2    0    0 -0.24742129228E+03  0.10758904238E+04  0.16236473097E+04  0.19656119997E+04  0.92964763802E+02 0.  0.
         11    1    3    3    0    0 -0.21406714496E+03  0.74042766706E+03  0.11252786250E+04  0.13639317639E+04  0.00000000000E+00 0.  1.
        -11    1    3    3    0    0 -0.33354147324E+02  0.33546275673E+03  0.49836868468E+03  0.60168023581E+03  0.00000000000E+00 0. -1.
         22    1    1    2    0    0  0.24742129228E+03 -0.10758904238E+04 -0.64091119686E+02  0.11058323433E+04  0.00000000000E+00 0.  1.
<mgrwt>
<rscale>  0 0.26460451E+04</rscale>
<asrwt>0</asrwt>
<pdfrwt beam="1">  1        2 0.11629909E+00 0.26460451E+04</pdfrwt>
<pdfrwt beam="2">  1       -2 0.35623081E+00 0.26460451E+04</pdfrwt>
<totfact> 0.46482610E-01</totfact>
</mgrwt>
</event>
<event>
 6    1  0.1568961E-005  0.1689529E+04  0.7818608E-02  0.8767359E-01
          1   -1    0    0  501    0  0.00000000000E+00  0.00000000000E+00  0.15548866405E+04  0.15548866405E+04  0.00000000000E+00 0. -1.
         -1   -1    0    0    0  501 -0.00000000000E+00 -0.00000000000E+00 -0.45895757044E+03  0.45895757044E+03  0.00000000000E+00 0.  1.
         23    2    1    2    0    0 -0.29743864240E+02 -0.68344289893E+03 -0.36194129922E+02  0.69108881652E+03  0.91185764869E+02 0.  0.
         13    1    3    3    0    0 -0.10850110736E+02 -0.39760382923E+03  0.23602545244E+02  0.39845151532E+03  0.00000000000E+00 0.  1.
        -13    1    3    3    0    0 -0.18893753503E+02 -0.28583906970E+03 -0.59796675166E+02  0.29263730119E+03  0.00000000000E+00 0. -1.
         22    1    1    2    0    0  0.29743864240E+02  0.68344289893E+03  0.11321232000E+04  0.13227553944E+04  0.00000000000E+00 0. -1.
<mgrwt>
<rscale>  0 0.16895289E+04</rscale>
<asrwt>0</asrwt>
<pdfrwt beam="1">  1        1 0.23921333E+00 0.16895289E+04</pdfrwt>
<pdfrwt beam="2">  1       -1 0.70608858E-01 0.16895289E+04</pdfrwt>
<totfact> 0.11569950E+01</totfact>
</mgrwt>
</event>
<event>
 6    1  0.1568961E-005  0.1261350E+04  0.7818608E-02  0.9060790E-01
          1   -1    0    0  501    0  0.00000000000E+00  0.00000000000E+00  0.22537313642E+04  0.22537313642E+04  0.00000000000E+00 0. -1.
         -1   -1    0    0    0  501 -0.00000000000E+00 -0.00000000000E+00 -0.17648540363E+03  0.17648540363E+03  0.00000000000E+00 0.  1.
         23    2    1    2    0    0 -0.32629885388E+03 -0.48055729106E+03  0.15010225183E+04  0.16120238154E+04  0.90254799344E+02 0.  0.
         11    1    3    3    0    0 -0.18210753955E+03 -0.22625890985E+03  0.85366475236E+03  0.90172044430E+03  0.00000000000E+00 0. -1.
        -11    1    3    3    0    0 -0.14419131433E+03 -0.25429838121E+03  0.64735776594E+03  0.71030337106E+03  0.00000000000E+00 0.  1.
         22    1    1    2    0    0  0.32629885388E+03  0.48055729106E+03  0.57622344223E+03  0.81819295243E+03  0.00000000000E+00 0.  1.
<mgrwt>
<rscale>  0 0.12613496E+04</rscale>
<asrwt>0</asrwt>
<pdfrwt beam="1">  1        1 0.34672788E+00 0.12613496E+04</pdfrwt>
<pdfrwt beam="2">  1       -1 0.27151602E-01 0.12613496E+04</pdfrwt>
<totfact> 0.24034822E+01</totfact>
</mgrwt>
</event>
<event>
 6    1  0.1568961E-005  0.4170673E+04  0.7818608E-02  0.7970974E-01
          2   -1    0    0  501    0  0.00000000000E+00  0.00000000000E+00  0.20759191516E+04  0.20759191516E+04  0.00000000000E+00 0.  1.
         -2   -1    0    0    0  501 -0.00000000000E+00 -0.00000000000E+00 -0.20947962044E+04  0.20947962044E+04  0.00000000000E+00 0. -1.
         23    2    1    2    0    0  0.22237898908E+02 -0.10194525562E+04  0.18083221407E+04  0.20782443451E+04  0.96397897988E+02 0.  0.
         13    1    3    3    0    0  0.46251276093E+02 -0.31550470303E+03  0.60689623952E+03  0.68556943027E+03  0.00000000000E+00 0.  1.
        -13    1    3    3    0    0 -0.24013377184E+02 -0.70394785313E+03  0.12014259012E+04  0.13926749148E+04  0.00000000000E+00 0. -1.
         22    1    1    2    0    0 -0.22237898908E+02  0.10194525562E+04 -0.18271991935E+04  0.20924710109E+04  0.00000000000E+00 0. -1.
<mgrwt>
<rscale>  0 0.41706726E+04</rscale>
<asrwt>0</asrwt>
<pdfrwt beam="1">  1        2 0.31937218E+00 0.41706726E+04</pdfrwt>
<pdfrwt beam="2">  1       -2 0.32227634E+00 0.41706726E+04</pdfrwt>
<totfact> 0.10931301E-01</totfact>
</mgrwt>
</event>
<event>
 6    1  0.1568961E-005  0.3117443E+04  0.7818608E-02  0.8210967E-01
          2   -1    0    0  501    0  0.00000000000E+00  0.00000000000E+00  0.12263515412E+04  0.12263515412E+04  0.00000000000E+00 0. -1.
         -2   -1    0    0    0  501 -0.00000000000E+00 -0.00000000000E+00 -0.19811709687E+04  0.19811709687E+04  0.00000000000E+00 0.  1.
         23    2    1    2    0    0  0.42319433149E+02 -0.97846761117E+03  0.86813473936E+03  0.13119566239E+04  0.91555757395E+02 0.  0.
         13    1    3    3    0    0  0.22030341064E+02 -0.67011166224E+03  0.64891831230E+03  0.93307553383E+03  0.00000000000E+00 0. -1.
        -13    1    3    3    0    0  0.20289092084E+02 -0.30835594893E+03  0.21921642706E+03  0.37888109004E+03  0.00000000000E+00 0.  1.
         22    1    1    2    0    0 -0.42319433149E+02  0.97846761117E+03 -0.16229541669E+04  0.18955658861E+04  0.00000000000E+00 0.  1.
<mgrwt>
<rscale>  0 0.31174426E+04</rscale>
<asrwt>0</asrwt>
<pdfrwt beam="1">  1        2 0.18866947E+00 0.31174426E+04</pdfrwt>
<pdfrwt beam="2">  1       -2 0.30479553E+00 0.31174426E+04</pdfrwt>
<totfact> 0.45997511E-01</totfact>
</mgrwt>
</event>
<event>
 6    1  0.1568961E-005  0.1145459E+04  0.7818608E-02  0.9161983E-01
          1   -1    0    0  501    0  0.00000000000E+00  0.00000000000E+00  0.33783477767E+04  0.33783477767E+04  0.00000000000E+00 0. -1.
         -1   -1    0    0    0  501 -0.00000000000E+00 -0.00000000000E+00 -0.97094554224E+02  0.97094554224E+02  0.00000000000E+00 0.  1.
         23    2    1    2    0    0  0.28560954130E+03  0.17345632055E+02  0.31436108244E+04  0.31579220784E+04  0.91154576196E+02 0.  0.
         13    1    3    3    0    0  0.20673271342E+03 -0.25520193145E+01  0.26063909676E+04  0.26145781311E+04  0.00000000000E+00 0. -1.
        -13    1    3    3    0    0  0.78876827885E+02  0.19897651369E+02  0.53721985681E+03  0.54334394729E+03  0.00000000000E+00 0.  1.
         22    1    1    2    0    0 -0.28560954130E+03 -0.17345632055E+02  0.13764239809E+03  0.31752025256E+03  0.00000000000E+00 0.  1.
<mgrwt>
<rscale>  0 0.11454592E+04</rscale>
<asrwt>0</asrwt>
<pdfrwt beam="1">  1        1 0.51974572E+00 0.11454592E+04</pdfrwt>
<pdfrwt beam="2">  1       -1 0.14937626E-01 0.11454592E+04</pdfrwt>
<totfact> 0.10470196E+01</totfact>
</mgrwt>
</event>
<event>
 6    1  0.1568961E-005  0.6859283E+04  0.7818608E-02  0.7592124E-01
         -1   -1    0    0    0  501 -0.00000000000E+00  0.00000000000E+00  0.34339848399E+04  0.34339848399E+04  0.00000000000E+00 0.  1.
          1   -1    0    0  501    0  0.00000000000E+00 -0.00000000000E+00 -0.34253040528E+04  0.34253040528E+04  0.00000000000E+00 0. -1.
         23    2    1    2    0    0  0.18642702305E+04  0.24945446875E+04 -0.14309645368E+04  0.34284237906E+04  0.90407367495E+02 0.  0.
         11    1    3    3    0    0  0.14334136293E+04  0.18528082312E+04 -0.10755057017E+04  0.25776511572E+04  0.00000000000E+00 0. -1.
        -11    1    3    3    0    0  0.43085660121E+03  0.64173645634E+03 -0.35545883513E+03  0.85077263336E+03  0.00000000000E+00 0.  1.
         22    1    1    2    0    0 -0.18642702305E+04 -0.24945446875E+04  0.14396453239E+04  0.34308651021E+04  0.00000000000E+00 0.  1.
<mgrwt>
<rscale>  0 0.68592834E+04</rscale>
<asrwt>0</asrwt>
<pdfrwt beam="1">  1        1 0.52696985E+00 0.68592834E+04</pdfrwt>
<pdfrwt beam="2">  1       -1 0.52830536E+00 0.68592834E+04</pdfrwt>
<totfact> 0.18125340E-04</totfact>
</mgrwt>
</event>
<event>
 6    1  0.1568961E-005  0.9996765E+03  0.7818608E-02  0.9308900E-01
          2   -1    0    0  501    0  0.00000000000E+00  0.00000000000E+00  0.43188652377E+04  0.43188652377E+04  0.00000000000E+00 0.  1.
         -2   -1    0    0    0  501 -0.00000000000E+00 -0.00000000000E+00 -0.57848129159E+02  0.57848129159E+02  0.00000000000E+00 0. -1.
         23    2    1    2    0    0 -0.13196780018E+03  0.36533012496E+03  0.34965430043E+04  0.35192156954E+04  0.90468388790E+02 0.  0.
         13    1    3    3    0    0 -0.10122011313E+03  0.15064334530E+03  0.15089396208E+04  0.15198150243E+04  0.00000000000E+00 0. -1.
        -13    1    3    3    0    0 -0.30747687055E+02  0.21468677966E+03  0.19876033835E+04  0.19994006712E+04  0.00000000000E+00 0.  1.
         22    1    1    2    0    0  0.13196780018E+03 -0.36533012496E+03  0.76447410420E+03  0.85749767142E+03  0.00000000000E+00 0. -1.
<mgrwt>
<rscale>  0 0.99967650E+03</rscale>
<asrwt>0</asrwt>
<pdfrwt beam="1">  1        2 0.66444055E+00 0.99967650E+03</pdfrwt>
<pdfrwt beam="2">  1       -2 0.88997156E-02 0.99967650E+03</pdfrwt>
<totfact> 0.16237048E+01</totfact>
</mgrwt>
</event>
<event>
 6    1  0.1568961E-005  0.1299195E+04  0.7818608E-02  0.9030204E-01
         -2   -1    0    0    0  501 -0.00000000000E+00  0.00000000000E+00  0.27260108344E+03  0.27260108344E+03  0.00000000000E+00 0.  1.
          2   -1    0    0  501    0  0.00000000000E+00 -0.00000000000E+00 -0.15479654135E+04  0.15479654135E+04  0.00000000000E+00 0. -1.
         23    2    1    2    0    0  0.71112466858E+02  0.55602033199E+03 -0.10919259050E+04  0.12307654726E+04  0.90916852327E+02 0.  0.
         13    1    3    3    0    0 -0.19094686879E+02  0.11512397324E+03 -0.25780011401E+03  0.28298239355E+03  0.00000000000E+00 0. -1.
        -13    1    3    3    0    0  0.90207153736E+02  0.44089635875E+03 -0.83412579104E+03  0.94778307909E+03  0.00000000000E+00 0.  1.
         22    1    1    2    0    0 -0.71112466858E+02 -0.55602033199E+03 -0.18343842506E+03  0.58980102434E+03  0.00000000000E+00 0. -1.
<mgrwt>
<rscale>  0 0.12991952E+04</rscale>
<asrwt>0</asrwt>
<pdfrwt beam="1">  1        2 0.23814853E+00 0.12991952E+04</pdfrwt>
<pdfrwt beam="2">  1       -2 0.41938628E-01 0.12991952E+04</pdfrwt>
<totfact> 0.62972924E+01</totfact>
</mgrwt>
</event>
<event>
 6    1  0.1568961E-005  0.1554619E+04  0.7818608E-02  0.8848923E-01
          2   -1    0    0  501    0  0.00000000000E+00  0.00000000000E+00  0.18262321866E+04  0.18262321866E+04  0.00000000000E+00 0. -1.
         -2   -1    0    0    0  501 -0.00000000000E+00 -0.00000000000E+00 -0.33085070030E+03  0.33085070030E+03  0.00000000000E+00 0.  1.
         23    2    1    2    0    0 -0.26546666006E+03 -0.10529881935E+03  0.17494422819E+04  0.17748430711E+04  0.89214576109E+02 0.  0.
         13    1    3    3    0    0 -0.16599854392E+03 -0.34432703395E+02  0.81439972285E+03  0.83185818276E+03  0.00000000000E+00 0. -1.
        -13    1    3    3    0    0 -0.99468116142E+02 -0.70866115952E+02  0.93504255903E+03  0.94298488838E+03  0.00000000000E+00 0.  1.
         22    1    1    2    0    0  0.26546666006E+03  0.10529881935E+03 -0.25406079553E+03  0.38223981580E+03  0.00000000000E+00 0.  1.
<mgrwt>
<rscale>  0 0.15546192E+04</rscale>
<asrwt>0</asrwt>
<pdfrwt beam="1">  1        2 0.28095879E+00 0.15546192E+04</pdfrwt>
<pdfrwt beam="2">  1       -2 0.50900109E-01 0.15546192E+04</pdfrwt>
<totfact> 0.29294260E+01</totfact>
</mgrwt>
</event>
<event>
 6    1  0.1568961E-005  0.9601980E+03  0.7818608E-02  0.9353309E-01
         -4   -1    0    0    0  501 -0.00000000000E+00  0.00000000000E+00  0.50072417142E+03  0.50072417142E+03  0.00000000000E+00 0. -1.
          4   -1    0    0  501    0  0.00000000000E+00 -0.00000000000E+00 -0.46032339081E+03  0.46032339081E+03  0.00000000000E+00 0.  1.
         23    2    1    2    0    0  0.10804465217E+03  0.42264069994E+03 -0.16902299096E+03  0.47714971743E+03  0.93831089028E+02 0.  0.
         13    1    3    3    0    0 -0.37548323816E+01  0.10865953701E+03 -0.70576736702E+02  0.12962279704E+03  0.00000000000E+00 0.  1.
        -13    1    3    3    0    0  0.11179948456E+03  0.31398116293E+03 -0.98446254254E+02  0.34752692039E+03  0.00000000000E+00 0. -1.
         22    1    1    2    0    0 -0.10804465217E+03 -0.42264069994E+03  0.20942377156E+03  0.48389784480E+03  0.00000000000E+00 0. -1.
<mgrwt>
<rscale>  0 0.96019800E+03</rscale>
<asrwt>0</asrwt>
<pdfrwt beam="1">  1        4 0.70818983E-01 0.96019800E+03</pdfrwt>
<pdfrwt beam="2">  1       -4 0.77034488E-01 0.96019800E+03</pdfrwt>
<totfact> 0.54773382E+00</totfact>
</mgrwt>
</event>
<event>
 6    1  0.1568961E-005  0.2130994E+04  0.7818608E-02  0.8547712E-01
         -1   -1    0    0    0  501 -0.00000000000E+00  0.00000000000E+00  0.18313360662E+04  0.18313360662E+04  0.00000000000E+00 0.  1.
          1   -1    0    0  501    0  0.00000000000E+00 -0.00000000000E+00 -0.61992096119E+03  0.61992096119E+03  0.00000000000E+00 0. -1.
         23    2    1    2    0    0  0.14786958352E+03  0.64714060274E+03 -0.34844271128E+03  0.75602465969E+03  0.97491484579E+02 0.  0.
         11    1    3    3    0    0  0.37717537281E+02  0.32428014052E+03 -0.13276829759E+03  0.35243104716E+03  0.00000000000E+00 0. -1.
        -11    1    3    3    0    0  0.11015204624E+03  0.32286046222E+03 -0.21567441369E+03  0.40359361253E+03  0.00000000000E+00 0.  1.
         22    1    1    2    0    0 -0.14786958352E+03 -0.64714060274E+03  0.15598578163E+04  0.16952323677E+04  0.00000000000E+00 0.  1.
<mgrwt>
<rscale>  0 0.21309938E+04</rscale>
<asrwt>0</asrwt>
<pdfrwt beam="1">  1        1 0.95372456E-01 0.21309938E+04</pdfrwt>
<pdfrwt beam="2">  1       -1 0.28174401E+00 0.21309938E+04</pdfrwt>
<totfact> 0.12992880E+00</totfact>
</mgrwt>
</event>
<event>
 6    1  0.1568961E-005  0.1671646E+04  0.7818608E-02  0.8777703E-01
         -1   -1    0    0    0  501 -0.00000000000E+00  0.00000000000E+00  0.85117839257E+03  0.85117839257E+03  0.00000000000E+00 0.  1.
          1   -1    0    0  501    0  0.00000000000E+00 -0.00000000000E+00 -0.82074505731E+03  0.82074505731E+03  0.00000000000E+00 0. -1.
         23    2    1    2    0    0 -0.20304909344E+02 -0.22771119032E+03  0.81681527682E+03  0.85298435961E+03  0.90168984411E+02 0.  0.
         13    1    3    3    0    0 -0.34365196746E+01 -0.16496901617E+02  0.11853370683E+02  0.20602422843E+02  0.00000000000E+00 0.  1.
        -13    1    3    3    0    0 -0.16868389670E+02 -0.21121428871E+03  0.80496190614E+03  0.83238193677E+03  0.00000000000E+00 0. -1.
         22    1    1    2    0    0  0.20304909344E+02  0.22771119032E+03 -0.78638194156E+03  0.81893909026E+03  0.00000000000E+00 0. -1.
<mgrwt>
<rscale>  0 0.16716464E+04</rscale>
<asrwt>0</asrwt>
<pdfrwt beam="1">  1        1 0.12626847E+00 0.16716464E+04</pdfrwt>
<pdfrwt beam="2">  1       -1 0.13095052E+00 0.16716464E+04</pdfrwt>
<totfact> 0.10075738E+01</totfact>
</mgrwt>
</event>
<event>
 6    1  0.1568961E-005  0.1297049E+04  0.7818608E-02  0.9031909E-01
          2   -1    0    0  501    0  0.00000000000E+00  0.00000000000E+00  0.20257769599E+04  0.20257769599E+04  0.00000000000E+00 0. -1.
         -2   -1    0    0    0  501 -0.00000000000E+00 -0.00000000000E+00 -0.20761610534E+03  0.20761610534E+03  0.00000000000E+00 0.  1.
         23    2    1    2    0    0  0.30065696223E+03 -0.43721251652E+03  0.28091976179E+03  0.60715213266E+03  0.90379234806E+02 0.  0.
         13    1    3    3    0    0  0.17615767207E+03 -0.17750700293E+03  0.13814598193E+03  0.28570014673E+03  0.00000000000E+00 0.  1.
        -13    1    3    3    0    0  0.12449929016E+03 -0.25970551360E+03  0.14277377986E+03  0.32145198593E+03  0.00000000000E+00 0. -1.
         22    1    1    2    0    0 -0.30065696223E+03  0.43721251652E+03  0.15372410928E+04  0.16262409326E+04  0.00000000000E+00 0. -1.
<mgrwt>
<rscale>  0 0.12970488E+04</rscale>
<asrwt>0</asrwt>
<pdfrwt beam="1">  1        2 0.31165798E+00 0.12970488E+04</pdfrwt>
<pdfrwt beam="2">  1       -2 0.31940941E-01 0.12970488E+04</pdfrwt>
<totfact> 0.57827645E+01</totfact>
</mgrwt>
</event>
<event>
 6    1  0.1568961E-005  0.2867789E+04  0.7818608E-02  0.8282526E-01
         -2   -1    0    0    0  501 -0.00000000000E+00  0.00000000000E+00  0.15964253309E+04  0.15964253309E+04  0.00000000000E+00 0.  1.
          2   -1    0    0  501    0  0.00000000000E+00 -0.00000000000E+00 -0.12879112051E+04  0.12879112051E+04  0.00000000000E+00 0. -1.
         23    2    1    2    0    0 -0.89498165433E+03  0.27414424982E+03  0.12449709407E+04  0.15602902387E+04  0.91682901917E+02 0.  0.
         11    1    3    3    0    0 -0.22974528762E+03  0.11193555075E+03  0.35340542612E+03  0.43612826085E+03  0.00000000000E+00 0. -1.
        -11    1    3    3    0    0 -0.66523636672E+03  0.16220869907E+03  0.89156551458E+03  0.11241619779E+04  0.00000000000E+00 0.  1.
         22    1    1    2    0    0  0.89498165433E+03 -0.27414424982E+03 -0.93645681486E+03  0.13240462973E+04  0.00000000000E+00 0. -1.
<mgrwt>
<rscale>  0 0.28677894E+04</rscale>
<asrwt>0</asrwt>
<pdfrwt beam="1">  1        2 0.19814019E+00 0.28677894E+04</pdfrwt>
<pdfrwt beam="2">  1       -2 0.24560390E+00 0.28677894E+04</pdfrwt>
<totfact> 0.99451137E-01</totfact>
</mgrwt>
</event>
<event>
 6    1  0.1568961E-005  0.3087946E+04  0.7818608E-02  0.8219054E-01
          2   -1    0    0  501    0  0.00000000000E+00  0.00000000000E+00  0.17384899821E+04  0.17384899821E+04  0.00000000000E+00 0.  1.
         -2   -1    0    0    0  501 -0.00000000000E+00 -0.00000000000E+00 -0.13712201846E+04  0.13712201846E+04  0.00000000000E+00 0. -1.
         23    2    1    2    0    0 -0.49157755763E+03  0.12740440075E+04 -0.53884537449E+03  0.14708442987E+04  0.90509585021E+02 0.  0.
         11    1    3    3    0    0 -0.25912545553E+03  0.66483479935E+03 -0.23298613226E+03  0.75062230846E+03  0.00000000000E+00 0. -1.
        -11    1    3    3    0    0 -0.23245210210E+03  0.60920920820E+03 -0.30585924223E+03  0.72022199021E+03  0.00000000000E+00 0.  1.
         22    1    1    2    0    0  0.49157755763E+03 -0.12740440075E+04  0.90611517206E+03  0.16388658680E+04  0.00000000000E+00 0.  1.
<mgrwt>
<rscale>  0 0.30879460E+04</rscale>
<asrwt>0</asrwt>
<pdfrwt beam="1">  1        2 0.26746000E+00 0.30879460E+04</pdfrwt>
<pdfrwt beam="2">  1       -2 0.21095695E+00 0.30879460E+04</pdfrwt>
<totfact> 0.89575116E-01</totfact>
</mgrwt>
</event>
<event>
 6    1  0.1568961E-005  0.2881545E+04  0.7818608E-02  0.8278390E-01
          1   -1    0    0  501    0  0.00000000000E+00  0.00000000000E+00  0.24769393668E+04  0.24769393668E+04  0.00000000000E+00 0. -1.
         -1   -1    0    0    0  501 -0.00000000000E+00 -0.00000000000E+00 -0.83806046552E+03  0.83806046552E+03  0.00000000000E+00 0.  1.
         23    2    1    2    0    0  0.11785354708E+04 -0.28142792121E+03  0.17139892754E+04  0.21010026746E+04  0.91134361135E+02 0.  0.
         13    1    3    3    0    0  0.58292458824E+03 -0.17112993642E+03  0.80059934508E+03  0.10050103691E+04  0.00000000000E+00 0.  1.
        -13    1    3    3    0    0  0.59561088251E+03 -0.11029798479E+03  0.91338993029E+03  0.10959923054E+04  0.00000000000E+00 0. -1.
         22    1    1    2    0    0 -0.11785354708E+04  0.28142792121E+03 -0.75110374124E+02  0.12139971577E+04  0.00000000000E+00 0. -1.
<mgrwt>
<rscale>  0 0.28815447E+04</rscale>
<asrwt>0</asrwt>
<pdfrwt beam="1">  1        1 0.38106759E+00 0.28815447E+04</pdfrwt>
<pdfrwt beam="2">  1       -1 0.12893238E+00 0.28815447E+04</pdfrwt>
<totfact> 0.62547032E-01</totfact>
</mgrwt>
</event>
<event>
 6    1  0.1568961E-005  0.2123749E+04  0.7818608E-02  0.8550853E-01
          2   -1    0    0  501    0  0.00000000000E+00  0.00000000000E+00  0.30380878928E+04  0.30380878928E+04  0.00000000000E+00 0. -1.
         -2   -1    0    0    0  501 -0.00000000000E+00 -0.00000000000E+00 -0.37114711301E+03  0.37114711301E+03  0.00000000000E+00 0.  1.
         23    2    1    2    0    0 -0.70417271276E+03  0.59786998866E+03  0.50171596405E+03  0.10551945993E+04  0.91700605727E+02 0.  0.
         11    1    3    3    0    0 -0.55087900315E+03  0.45057962654E+03  0.42649660077E+03  0.82969212750E+03  0.00000000000E+00 0.  1.
        -11    1    3    3    0    0 -0.15329370961E+03  0.14729036213E+03  0.75219363274E+02  0.22550247181E+03  0.00000000000E+00 0. -1.
         22    1    1    2    0    0  0.70417271276E+03 -0.59786998866E+03  0.21652248157E+04  0.23540404065E+04  0.00000000000E+00 0. -1.
<mgrwt>
<rscale>  0 0.21237491E+04</rscale>
<asrwt>0</asrwt>
<pdfrwt beam="1">  1        2 0.46739812E+00 0.21237491E+04</pdfrwt>
<pdfrwt beam="2">  1       -2 0.57099558E-01 0.21237491E+04</pdfrwt>
<totfact> 0.43645426E+00</totfact>
</mgrwt>
</event>
<event>
 6    1  0.1568961E-005  0.3381405E+04  0.7818608E-02  0.8142485E-01
          2   -1    0    0  501    0  0.00000000000E+00  0.00000000000E+00  0.17496600272E+04  0.17496600272E+04  0.00000000000E+00 0. -1.
         -2   -1    0    0    0  501 -0.00000000000E+00 -0.00000000000E+00 -0.16337317144E+04  0.16337317144E+04  0.00000000000E+00 0.  1.
         23    2    1    2    0    0 -0.16832900314E+04  0.86124998901E+02 -0.58071829541E+02  0.16889423045E+04  0.90944626280E+02 0.  0.
         11    1    3    3    0    0 -0.97685501930E+03  0.66280076810E+02  0.81287762997E+01  0.97913474778E+03  0.00000000000E+00 0. -1.
        -11    1    3    3    0    0 -0.70643501213E+03  0.19844922091E+02 -0.66200605840E+02  0.70980755667E+03  0.00000000000E+00 0.  1.
         22    1    1    2    0    0  0.16832900314E+04 -0.86124998901E+02  0.17400014233E+03  0.16944494371E+04  0.00000000000E+00 0.  1.
<mgrwt>
<rscale>  0 0.33814051E+04</rscale>
<asrwt>0</asrwt>
<pdfrwt beam="1">  1        2 0.26917847E+00 0.33814051E+04</pdfrwt>
<pdfrwt beam="2">  1       -2 0.25134334E+00 0.33814051E+04</pdfrwt>
<totfact> 0.48143162E-01</totfact>
</mgrwt>
</event>
<event>
 6    1  0.1568961E-005  0.2536286E+04  0.7818608E-02  0.8390171E-01
          2   -1    0    0  501    0  0.00000000000E+00  0.00000000000E+00  0.32418897073E+04  0.32418897073E+04  0.00000000000E+00 0. -1.
         -2   -1    0    0    0  501 -0.00000000000E+00 -0.00000000000E+00 -0.49606473288E+03  0.49606473288E+03  0.00000000000E+00 0.  1.
         23    2    1    2    0    0 -0.56818870374E+03 -0.99030184600E+03  0.21825807949E+04  0.24648557971E+04  0.91208688708E+02 0.  0.
         11    1    3    3    0    0 -0.37111050766E+03 -0.66318155486E+03  0.13594292237E+04  0.15574275578E+04  0.00000000000E+00 0.  1.
        -11    1    3    3    0    0 -0.19707819608E+03 -0.32712029114E+03  0.82315157119E+03  0.90742823926E+03  0.00000000000E+00 0. -1.
         22    1    1    2    0    0  0.56818870374E+03  0.99030184600E+03  0.56324417948E+03  0.12730986431E+04  0.00000000000E+00 0.  1.
<mgrwt>
<rscale>  0 0.25362864E+04</rscale>
<asrwt>0</asrwt>
<pdfrwt beam="1">  1        2 0.49875225E+00 0.25362864E+04</pdfrwt>
<pdfrwt beam="2">  1       -2 0.76317653E-01 0.25362864E+04</pdfrwt>
<totfact> 0.16634740E+00</totfact>
</mgrwt>
</event>
<event>
 6    1  0.1568961E-005  0.1344355E+04  0.7818608E-02  0.8995112E-01
          2   -1    0    0  501    0  0.00000000000E+00  0.00000000000E+00  0.20554403328E+04  0.20554403328E+04  0.00000000000E+00 0.  1.
         -2   -1    0    0    0  501 -0.00000000000E+00 -0.00000000000E+00 -0.21981799662E+03  0.21981799662E+03  0.00000000000E+00 0. -1.
         23    2    1    2    0    0 -0.26489830922E+03  0.59349155620E+03  0.65267355422E+03  0.92552829632E+03  0.90645007606E+02 0.  0.
         11    1    3    3    0    0 -0.25046393892E+03  0.50259569265E+03  0.58783062266E+03  0.81294492796E+03  0.00000000000E+00 0.  1.
        -11    1    3    3    0    0 -0.14434370298E+02  0.90895863557E+02  0.64842931564E+02  0.11258336836E+03  0.00000000000E+00 0. -1.
         22    1    1    2    0    0  0.26489830922E+03 -0.59349155620E+03  0.11829487819E+04  0.13497300331E+04  0.00000000000E+00 0.  1.
<mgrwt>
<rscale>  0 0.13443553E+04</rscale>
<asrwt>0</asrwt>
<pdfrwt beam="1">  1        2 0.31622158E+00 0.13443553E+04</pdfrwt>
<pdfrwt beam="2">  1       -2 0.33818155E-01 0.13443553E+04</pdfrwt>
<totfact> 0.49790037E+01</totfact>
</mgrwt>
</event>
<event>
 6    1  0.1568961E-005  0.5391651E+04  0.7818608E-02  0.7770776E-01
         -1   -1    0    0    0  501 -0.00000000000E+00  0.00000000000E+00  0.29391437163E+04  0.29391437163E+04  0.00000000000E+00 0.  1.
          1   -1    0    0  501    0  0.00000000000E+00 -0.00000000000E+00 -0.24726506267E+04  0.24726506267E+04  0.00000000000E+00 0. -1.
         23    2    1    2    0    0 -0.15620037813E+04 -0.12481369929E+04 -0.15805391720E+04  0.25503187017E+04  0.91212061928E+02 0.  0.
         13    1    3    3    0    0 -0.85693843575E+03 -0.73272214341E+03 -0.92284796858E+03  0.14570084403E+04  0.00000000000E+00 0.  1.
        -13    1    3    3    0    0 -0.70506534551E+03 -0.51541484951E+03 -0.65769120338E+03  0.10933102613E+04  0.00000000000E+00 0. -1.
         22    1    1    2    0    0  0.15620037813E+04  0.12481369929E+04  0.20470322616E+04  0.28614756413E+04  0.00000000000E+00 0.  1.
<mgrwt>
<rscale>  0 0.53916512E+04</rscale>
<asrwt>0</asrwt>
<pdfrwt beam="1">  1        1 0.38040779E+00 0.53916512E+04</pdfrwt>
<pdfrwt beam="2">  1       -1 0.45217596E+00 0.53916512E+04</pdfrwt>
<totfact> 0.31073229E-03</totfact>
</mgrwt>
</event>
<event>
 6    1  0.1568961E-005  0.3507685E+04  0.7818608E-02  0.8111971E-01
         -1   -1    0    0    0  501 -0.00000000000E+00  0.00000000000E+00  0.20071452730E+04  0.20071452730E+04  0.00000000000E+00 0.  1.
          1   -1    0    0  501    0  0.00000000000E+00 -0.00000000000E+00 -0.15325064190E+04  0.15325064190E+04  0.00000000000E+00 0. -1.
         23    2    1    2    0    0  0.11463152183E+04 -0.11895540268E+04  0.82826537821E+03  0.18502349048E+04  0.90930214127E+02 0.  0.
         11    1    3    3    0    0  0.10229059011E+04 -0.10417010996E+04  0.70215834721E+03  0.16200321009E+04  0.00000000000E+00 0. -1.
        -11    1    3    3    0    0  0.12340931714E+03 -0.14785292717E+03  0.12610703100E+03  0.23020280384E+03  0.00000000000E+00 0.  1.
         22    1    1    2    0    0 -0.11463152183E+04  0.11895540268E+04 -0.35362652430E+03  0.16894167872E+04  0.00000000000E+00 0. -1.
<mgrwt>
<rscale>  0 0.35076847E+04</rscale>
<asrwt>0</asrwt>
<pdfrwt beam="1">  1        1 0.23577022E+00 0.35076847E+04</pdfrwt>
<pdfrwt beam="2">  1       -1 0.30879158E+00 0.35076847E+04</pdfrwt>
<totfact> 0.14660846E-01</totfact>
</mgrwt>
</event>
<event>
 6    1  0.1568961E-005  0.1189711E+04  0.7818608E-02  0.9121911E-01
          1   -1    0    0  501    0  0.00000000000E+00  0.00000000000E+00  0.43194396402E+03  0.43194396402E+03  0.00000000000E+00 0. -1.
         -1   -1    0    0    0  501 -0.00000000000E+00 -0.00000000000E+00 -0.81920990426E+03  0.81920990426E+03  0.00000000000E+00 0.  1.
         23    2    1    2    0    0 -0.19785552794E+03 -0.17139055203E+03 -0.75256410422E+03  0.80174950707E+03  0.89039372566E+02 0.  0.
         13    1    3    3    0    0 -0.57328153192E+02 -0.76266732059E+02 -0.38903639476E+03  0.40056516076E+03  0.00000000000E+00 0.  1.
        -13    1    3    3    0    0 -0.14052737475E+03 -0.95123819975E+02 -0.36352770946E+03  0.40118434631E+03  0.00000000000E+00 0. -1.
         22    1    1    2    0    0  0.19785552794E+03  0.17139055203E+03  0.36529816399E+03  0.44940436121E+03  0.00000000000E+00 0. -1.
<mgrwt>
<rscale>  0 0.11897105E+04</rscale>
<asrwt>0</asrwt>
<pdfrwt beam="1">  1        1 0.66452918E-01 0.11897105E+04</pdfrwt>
<pdfrwt beam="2">  1       -1 0.12603229E+00 0.11897105E+04</pdfrwt>
<totfact> 0.29397916E+01</totfact>
</mgrwt>
</event>
<event>
 6    1  0.1568961E-005  0.2443395E+04  0.7818608E-02  0.8423434E-01
          1   -1    0    0  501    0  0.00000000000E+00  0.00000000000E+00  0.19998882669E+04  0.19998882669E+04  0.00000000000E+00 0. -1.
         -1   -1    0    0    0  501 -0.00000000000E+00 -0.00000000000E+00 -0.74631394304E+03  0.74631394304E+03  0.00000000000E+00 0.  1.
         23    2    1    2    0    0 -0.69017197707E+03  0.94997133676E+03  0.25634167560E+03  0.12056646890E+04  0.95568766302E+02 0.  0.
         13    1    3    3    0    0 -0.46565027531E+03  0.56502732576E+03  0.14651921986E+03  0.74669534587E+03  0.00000000000E+00 0. -1.
        -13    1    3    3    0    0 -0.22452170177E+03  0.38494401100E+03  0.10982245575E+03  0.45896934315E+03  0.00000000000E+00 0.  1.
         22    1    1    2    0    0  0.69017197707E+03 -0.94997133676E+03  0.99723264821E+03  0.15405375209E+04  0.00000000000E+00 0. -1.
<mgrwt>
<rscale>  0 0.24433948E+04</rscale>
<asrwt>0</asrwt>
<pdfrwt beam="1">  1        1 0.30767512E+00 0.24433948E+04</pdfrwt>
<pdfrwt beam="2">  1       -1 0.11481753E+00 0.24433948E+04</pdfrwt>
<totfact> 0.18330973E+00</totfact>
</mgrwt>
</event>
<event>
 6    1  0.1568961E-005  0.2146474E+04  0.7818608E-02  0.8541043E-01
          2   -1    0    0  501    0  0.00000000000E+00  0.00000000000E+00  0.16858662964E+04  0.16858662964E+04  0.00000000000E+00 0. -1.
         -2   -1    0    0    0  501 -0.00000000000E+00 -0.00000000000E+00 -0.68323200000E+03  0.68323200000E+03  0.00000000000E+00 0.  1.
         23    2    1    2    0    0 -0.44708445699E+03  0.49842856030E+03  0.14252137708E+04  0.15773351034E+04  0.91848759194E+02 0.  0.
         11    1    3    3    0    0 -0.14634256218E+03  0.10598114228E+03  0.34998827570E+03  0.39387807905E+03  0.00000000000E+00 0. -1.
        -11    1    3    3    0    0 -0.30074189480E+03  0.39244741802E+03  0.10752254951E+04  0.11834570244E+04  0.00000000000E+00 0.  1.
         22    1    1    2    0    0  0.44708445699E+03 -0.49842856030E+03 -0.42257947448E+03  0.79176319292E+03  0.00000000000E+00 0.  1.
<mgrwt>
<rscale>  0 0.21464741E+04</rscale>
<asrwt>0</asrwt>
<pdfrwt beam="1">  1        2 0.25936405E+00 0.21464741E+04</pdfrwt>
<pdfrwt beam="2">  1       -2 0.10511262E+00 0.21464741E+04</pdfrwt>
<totfact> 0.67223474E+00</totfact>
</mgrwt>
</event>
<event>
 6    1  0.1568961E-005  0.4754397E+04  0.7818608E-02  0.7867553E-01
          2   -1    0    0  501    0  0.00000000000E+00  0.00000000000E+00  0.33469893631E+04  0.33469893631E+04  0.00000000000E+00 0. -1.
         -2   -1    0    0    0  501 -0.00000000000E+00 -0.00000000000E+00 -0.16884046283E+04  0.16884046283E+04  0.00000000000E+00 0.  1.
         23    2    1    2    0    0  0.47088097860E+03  0.13926381798E+04 -0.11477963894E+04  0.18672801977E+04  0.90159799030E+02 0.  0.
         11    1    3    3    0    0  0.17835233476E+03  0.44938383825E+03 -0.33438851151E+03  0.58785292891E+03  0.00000000000E+00 0.  1.
        -11    1    3    3    0    0  0.29252864383E+03  0.94325434156E+03 -0.81340787785E+03  0.12794272688E+04  0.00000000000E+00 0. -1.
         22    1    1    2    0    0 -0.47088097860E+03 -0.13926381798E+04  0.28063811241E+04  0.31681137937E+04  0.00000000000E+00 0. -1.
<mgrwt>
<rscale>  0 0.47543968E+04</rscale>
<asrwt>0</asrwt>
<pdfrwt beam="1">  1        2 0.51492144E+00 0.47543968E+04</pdfrwt>
<pdfrwt beam="2">  1       -2 0.25975456E+00 0.47543968E+04</pdfrwt>
<totfact> 0.42989181E-02</totfact>
</mgrwt>
</event>
<event>
 6    1  0.1568961E-005  0.4954084E+04  0.7818608E-02  0.7835629E-01
         -1   -1    0    0    0  501 -0.00000000000E+00  0.00000000000E+00  0.20919045920E+04  0.20919045920E+04  0.00000000000E+00 0.  1.
          1   -1    0    0  501    0  0.00000000000E+00 -0.00000000000E+00 -0.29330869038E+04  0.29330869038E+04  0.00000000000E+00 0. -1.
         23    2    1    2    0    0 -0.18148242061E+04  0.10043287421E+04 -0.17926290433E+04  0.27429936859E+04  0.90732313918E+02 0.  0.
         11    1    3    3    0    0 -0.81016762332E+03  0.41077417305E+03 -0.82536902087E+03  0.12273308518E+04  0.00000000000E+00 0.  1.
        -11    1    3    3    0    0 -0.10046565828E+04  0.59355456903E+03 -0.96726002245E+03  0.15156628341E+04  0.00000000000E+00 0. -1.
         22    1    1    2    0    0  0.18148242061E+04 -0.10043287421E+04  0.95144673154E+03  0.22819978098E+04  0.00000000000E+00 0. -1.
<mgrwt>
<rscale>  0 0.49540844E+04</rscale>
<asrwt>0</asrwt>
<pdfrwt beam="1">  1        1 0.45124414E+00 0.49540844E+04</pdfrwt>
<pdfrwt beam="2">  1       -1 0.32183148E+00 0.49540844E+04</pdfrwt>
<totfact> 0.11535110E-02</totfact>
</mgrwt>
</event>
<event>
 6    1  0.1568961E-005  0.2858505E+04  0.7818608E-02  0.8285331E-01
          2   -1    0    0  501    0  0.00000000000E+00  0.00000000000E+00  0.20525419886E+04  0.20525419886E+04  0.00000000000E+00 0. -1.
         -2   -1    0    0    0  501 -0.00000000000E+00 -0.00000000000E+00 -0.99523586337E+03  0.99523586337E+03  0.00000000000E+00 0.  1.
         23    2    1    2    0    0 -0.28499954025E+03 -0.80024966492E+03  0.17527780336E+04  0.19499138170E+04  0.91152587472E+02 0.  0.
         13    1    3    3    0    0 -0.16820577902E+03 -0.57847845285E+03  0.11881252125E+04  0.13321306336E+04  0.00000000000E+00 0.  1.
        -13    1    3    3    0    0 -0.11679376124E+03 -0.22177121207E+03  0.56465282117E+03  0.61778318335E+03  0.00000000000E+00 0. -1.
         22    1    1    2    0    0  0.28499954025E+03  0.80024966492E+03 -0.69547190837E+03  0.10978640351E+04  0.00000000000E+00 0.  1.
<mgrwt>
<rscale>  0 0.28585055E+04</rscale>
<asrwt>0</asrwt>
<pdfrwt beam="1">  1        2 0.31577569E+00 0.28585055E+04</pdfrwt>
<pdfrwt beam="2">  1       -2 0.15311321E+00 0.28585055E+04</pdfrwt>
<totfact> 0.15343885E+00</totfact>
</mgrwt>
</event>
<event>
 6    1  0.1568961E-005  0.1958695E+04  0.7818608E-02  0.8626179E-01
          1   -1    0    0  501    0  0.00000000000E+00  0.00000000000E+00  0.17950939043E+04  0.17950939043E+04  0.00000000000E+00 0. -1.
         -1   -1    0    0    0  501 -0.00000000000E+00 -0.00000000000E+00 -0.53430161754E+03  0.53430161754E+03  0.00000000000E+00 0.  1.
         23    2    1    2    0    0  0.61018987743E+03  0.52229369994E+03  0.12930843727E+04  0.15255515231E+04  0.10058756889E+03 0.  0.
         13    1    3    3    0    0  0.41005979677E+03  0.30202020724E+03  0.87378800761E+03  0.10113707158E+04  0.00000000000E+00 0. -1.
        -13    1    3    3    0    0  0.20013008066E+03  0.22027349270E+03  0.41929636511E+03  0.51418080728E+03  0.00000000000E+00 0.  1.
         22    1    1    2    0    0 -0.61018987743E+03 -0.52229369994E+03 -0.32292085987E+02  0.80384399876E+03  0.00000000000E+00 0. -1.
<mgrwt>
<rscale>  0 0.19586951E+04</rscale>
<asrwt>0</asrwt>
<pdfrwt beam="1">  1        1 0.27616829E+00 0.19586951E+04</pdfrwt>
<pdfrwt beam="2">  1       -1 0.82200250E-01 0.19586951E+04</pdfrwt>
<totfact> 0.56247394E+00</totfact>
</mgrwt>
</event>
<event>
 6    1  0.1568961E-005  0.2213190E+04  0.7818608E-02  0.8512958E-01
          1   -1    0    0  501    0  0.00000000000E+00  0.00000000000E+00  0.13866064435E+04  0.13866064435E+04  0.00000000000E+00 0. -1.
         -1   -1    0    0    0  501 -0.00000000000E+00 -0.00000000000E+00 -0.88312904421E+03  0.88312904421E+03  0.00000000000E+00 0.  1.
         23    2    1    2    0    0  0.99013312617E+03 -0.36592555359E+03 -0.83255531918E+02  0.10620432045E+04  0.82092425454E+02 0.  0.
         13    1    3    3    0    0  0.50544189304E+03 -0.14899247792E+03 -0.20732091616E+02  0.52735195585E+03  0.00000000000E+00 0.  1.
        -13    1    3    3    0    0  0.48469123312E+03 -0.21693307567E+03 -0.62523440303E+02  0.53469124864E+03  0.00000000000E+00 0. -1.
         22    1    1    2    0    0 -0.99013312617E+03  0.36592555359E+03  0.58673293116E+03  0.12076922832E+04  0.00000000000E+00 0. -1.
<mgrwt>
<rscale>  0 0.22131899E+04</rscale>
<asrwt>0</asrwt>
<pdfrwt beam="1">  1        1 0.21332407E+00 0.22131899E+04</pdfrwt>
<pdfrwt beam="2">  1       -1 0.13586601E+00 0.22131899E+04</pdfrwt>
<totfact> 0.32401184E+00</totfact>
</mgrwt>
</event>
<event>
 6    1  0.1568961E-005  0.2714902E+04  0.7818608E-02  0.8330186E-01
          2   -1    0    0  501    0  0.00000000000E+00  0.00000000000E+00  0.15378023359E+04  0.15378023359E+04  0.00000000000E+00 0. -1.
         -2   -1    0    0    0  501 -0.00000000000E+00 -0.00000000000E+00 -0.11982511421E+04  0.11982511421E+04  0.00000000000E+00 0.  1.
         23    2    1    2    0    0 -0.12766003348E+04 -0.15319803603E+03  0.60211788112E+03  0.14237580394E+04  0.10659718067E+03 0.  0.
         13    1    3    3    0    0 -0.88706351193E+03 -0.15536861700E+03  0.42665422705E+03  0.99652140509E+03  0.00000000000E+00 0. -1.
        -13    1    3    3    0    0 -0.38953682285E+03  0.21705809627E+01  0.17546365406E+03  0.42723663428E+03  0.00000000000E+00 0.  1.
         22    1    1    2    0    0  0.12766003348E+04  0.15319803603E+03 -0.26256668729E+03  0.13122954386E+04  0.00000000000E+00 0.  1.
<mgrwt>
<rscale>  0 0.27149021E+04</rscale>
<asrwt>0</asrwt>
<pdfrwt beam="1">  1        2 0.23658497E+00 0.27149021E+04</pdfrwt>
<pdfrwt beam="2">  1       -2 0.18434633E+00 0.27149021E+04</pdfrwt>
<totfact> 0.17928912E+00</totfact>
</mgrwt>
</event>
<event>
 6    1  0.1568961E-005  0.2047265E+04  0.7818608E-02  0.8584836E-01
         -1   -1    0    0    0  501 -0.00000000000E+00  0.00000000000E+00  0.10514656630E+04  0.10514656630E+04  0.00000000000E+00 0.  1.
          1   -1    0    0  501    0  0.00000000000E+00 -0.00000000000E+00 -0.99653614604E+03  0.99653614604E+03  0.00000000000E+00 0. -1.
         23    2    1    2    0    0  0.34819595247E+03  0.94244443077E+03 -0.15781403498E+03  0.10210150782E+04  0.90136529508E+02 0.  0.
         11    1    3    3    0    0  0.22042540118E+03  0.67461631906E+03 -0.79796780015E+02  0.71418629329E+03  0.00000000000E+00 0.  1.
        -11    1    3    3    0    0  0.12777055130E+03  0.26782811171E+03 -0.78017254970E+02  0.30682878495E+03  0.00000000000E+00 0. -1.
         22    1    1    2    0    0 -0.34819595247E+03 -0.94244443077E+03  0.21274355199E+03  0.10269867308E+04  0.00000000000E+00 0.  1.
<mgrwt>
<rscale>  0 0.20472650E+04</rscale>
<asrwt>0</asrwt>
<pdfrwt beam="1">  1        1 0.15331325E+00 0.20472650E+04</pdfrwt>
<pdfrwt beam="2">  1       -1 0.16176395E+00 0.20472650E+04</pdfrwt>
<totfact> 0.39867398E+00</totfact>
</mgrwt>
</event>
<event>
 6    1  0.1568961E-005  0.1853411E+04  0.7818608E-02  0.8678400E-01
          2   -1    0    0  501    0  0.00000000000E+00  0.00000000000E+00  0.14092637417E+04  0.14092637417E+04  0.00000000000E+00 0. -1.
         -2   -1    0    0    0  501 -0.00000000000E+00 -0.00000000000E+00 -0.60938447335E+03  0.60938447335E+03  0.00000000000E+00 0.  1.
         23    2    1    2    0    0  0.42046517973E+03 -0.82329621587E+03  0.39037020844E+03  0.10075570735E+04  0.90414214706E+02 0.  0.
         11    1    3    3    0    0  0.35537938733E+03 -0.61180912177E+03  0.29287603640E+03  0.76575536767E+03  0.00000000000E+00 0. -1.
        -11    1    3    3    0    0  0.65085792402E+02 -0.21148709410E+03  0.97494172036E+02  0.24180170579E+03  0.00000000000E+00 0.  1.
         22    1    1    2    0    0 -0.42046517973E+03  0.82329621587E+03  0.40950905990E+03  0.10110911416E+04  0.00000000000E+00 0.  1.
<mgrwt>
<rscale>  0 0.18534114E+04</rscale>
<asrwt>0</asrwt>
<pdfrwt beam="1">  1        2 0.21680980E+00 0.18534114E+04</pdfrwt>
<pdfrwt beam="2">  1       -2 0.93751458E-01 0.18534114E+04</pdfrwt>
<totfact> 0.12918655E+01</totfact>
</mgrwt>
</event>
<event>
 6    1  0.1568961E-005  0.2221871E+04  0.7818608E-02  0.8509380E-01
          1   -1    0    0  501    0  0.00000000000E+00  0.00000000000E+00  0.92672453154E+03  0.92672453154E+03  0.00000000000E+00 0. -1.
         -1   -1    0    0    0  501 -0.00000000000E+00 -0.00000000000E+00 -0.13317627081E+04  0.13317627081E+04  0.00000000000E+00 0.  1.
         23    2    1    2    0    0 -0.43590889907E+03 -0.82708977886E+03 -0.80926376253E+03  0.12399135335E+04  0.91562342216E+02 0.  0.
         11    1    3    3    0    0 -0.14246286534E+03 -0.33531658474E+03 -0.27187203480E+03  0.45458473722E+03  0.00000000000E+00 0.  1.
        -11    1    3    3    0    0 -0.29344603373E+03 -0.49177319412E+03 -0.53739172774E+03  0.78532879624E+03  0.00000000000E+00 0. -1.
         22    1    1    2    0    0  0.43590889907E+03  0.82708977886E+03  0.40422558597E+03  0.10185737062E+04  0.00000000000E+00 0. -1.
<mgrwt>
<rscale>  0 0.22218705E+04</rscale>
<asrwt>0</asrwt>
<pdfrwt beam="1">  1        1 0.14257300E+00 0.22218705E+04</pdfrwt>
<pdfrwt beam="2">  1       -1 0.20488657E+00 0.22218705E+04</pdfrwt>
<totfact> 0.21936087E+00</totfact>
</mgrwt>
</event>
<event>
 6    1  0.1568961E-005  0.4602177E+04  0.7818608E-02  0.7892989E-01
          2   -1    0    0  501    0  0.00000000000E+00  0.00000000000E+00  0.20894370353E+04  0.20894370353E+04  0.00000000000E+00 0. -1.
         -2   -1    0    0    0  501 -0.00000000000E+00 -0.00000000000E+00 -0.25341790897E+04  0.25341790897E+04  0.00000000000E+00 0.  1.
         23    2    1    2    0    0  0.16980653819E+04 -0.61131762413E+02 -0.17804409664E+04  0.24623075591E+04  0.76323965002E+02 0.  0.
         11    1    3    3    0    0  0.73765085053E+03 -0.44885427739E+01 -0.81733391949E+03  0.11009921254E+04  0.00000000000E+00 0.  1.
        -11    1    3    3    0    0  0.96041453132E+03 -0.56643219639E+02 -0.96310704688E+03  0.13613154337E+04  0.00000000000E+00 0. -1.
         22    1    1    2    0    0 -0.16980653819E+04  0.61131762413E+02  0.13356989120E+04  0.21613085659E+04  0.00000000000E+00 0. -1.
<mgrwt>
<rscale>  0 0.46021767E+04</rscale>
<asrwt>0</asrwt>
<pdfrwt beam="1">  1        2 0.32145185E+00 0.46021767E+04</pdfrwt>
<pdfrwt beam="2">  1       -2 0.38987371E+00 0.46021767E+04</pdfrwt>
<totfact> 0.38684996E-02</totfact>
</mgrwt>
</event>
<event>
 6    1  0.1568961E-005  0.1008582E+04  0.7818608E-02  0.9299182E-01
         -1   -1    0    0    0  501 -0.00000000000E+00  0.00000000000E+00  0.19965665431E+03  0.19965665431E+03  0.00000000000E+00 0. -1.
          1   -1    0    0  501    0  0.00000000000E+00 -0.00000000000E+00 -0.12737338150E+04  0.12737338150E+04  0.00000000000E+00 0.  1.
         23    2    1    2    0    0 -0.57497254768E+02 -0.38512913549E+03 -0.99997476898E+03  0.10770048619E+04  0.91430567114E+02 0.  0.
         13    1    3    3    0    0  0.96273382796E+01 -0.67410223113E+02 -0.26273896469E+03  0.27141957813E+03  0.00000000000E+00 0.  1.
        -13    1    3    3    0    0 -0.67124593048E+02 -0.31771891237E+03 -0.73723580429E+03  0.80558528375E+03  0.00000000000E+00 0. -1.
         22    1    1    2    0    0  0.57497254768E+02  0.38512913549E+03 -0.74102391673E+02  0.39638560741E+03  0.00000000000E+00 0. -1.
<mgrwt>
<rscale>  0 0.10085820E+04</rscale>
<asrwt>0</asrwt>
<pdfrwt beam="1">  1        1 0.19595904E+00 0.10085820E+04</pdfrwt>
<pdfrwt beam="2">  1       -1 0.30716409E-01 0.10085820E+04</pdfrwt>
<totfact> 0.92581400E+01</totfact>
</mgrwt>
</event>
<event>
 6    1  0.1568961E-005  0.2353138E+04  0.7818608E-02  0.8457259E-01
         -2   -1    0    0    0  501 -0.00000000000E+00  0.00000000000E+00  0.90433398243E+03  0.90433398243E+03  0.00000000000E+00 0.  1.
          2   -1    0    0  501    0  0.00000000000E+00 -0.00000000000E+00 -0.15307561009E+04  0.15307561009E+04  0.00000000000E+00 0. -1.
         23    2    1    2    0    0  0.94650484639E+03 -0.66678277037E+03 -0.52179838151E+03  0.12725855399E+04  0.82034860264E+02 0.  0.
         13    1    3    3    0    0  0.89901615226E+03 -0.65097318309E+03 -0.49009236749E+03  0.12133369919E+04  0.00000000000E+00 0.  1.
        -13    1    3    3    0    0  0.47488694125E+02 -0.15809587284E+02 -0.31706014017E+02  0.59248548038E+02  0.00000000000E+00 0. -1.
         22    1    1    2    0    0 -0.94650484639E+03  0.66678277037E+03 -0.10462373692E+03  0.11625045434E+04  0.00000000000E+00 0. -1.
<mgrwt>
<rscale>  0 0.23531381E+04</rscale>
<asrwt>0</asrwt>
<pdfrwt beam="1">  1        2 0.23550094E+00 0.23531381E+04</pdfrwt>
<pdfrwt beam="2">  1       -2 0.13912831E+00 0.23531381E+04</pdfrwt>
<totfact> 0.40196420E+00</totfact>
</mgrwt>
</event>
<event>
 6    1  0.1568961E-005  0.6795139E+03  0.7818608E-02  0.9752922E-01
          1   -1    0    0  501    0  0.00000000000E+00  0.00000000000E+00  0.67146406722E+03  0.67146406722E+03  0.00000000000E+00 0. -1.
         -1   -1    0    0    0  501 -0.00000000000E+00 -0.00000000000E+00 -0.17191507809E+03  0.17191507809E+03  0.00000000000E+00 0.  1.
         23    2    1    2    0    0  0.14491129220E+03 -0.24312460501E+02 -0.11777947021E+03  0.20880463822E+03  0.90205293612E+02 0.  0.
         13    1    3    3    0    0  0.23586998406E+02  0.26504599347E+02 -0.48635189496E+02  0.60201511092E+02  0.00000000000E+00 0. -1.
        -13    1    3    3    0    0  0.12132429379E+03 -0.50817059848E+02 -0.69144280715E+02  0.14860312713E+03  0.00000000000E+00 0.  1.
         22    1    1    2    0    0 -0.14491129220E+03  0.24312460501E+02  0.61732845934E+03  0.63457450709E+03  0.00000000000E+00 0.  1.
<mgrwt>
<rscale>  0 0.67951394E+03</rscale>
<asrwt>0</asrwt>
<pdfrwt beam="1">  1        1 0.10330216E+00 0.67951394E+03</pdfrwt>
<pdfrwt beam="2">  1       -1 0.26448474E-01 0.67951394E+03</pdfrwt>
<totfact> 0.37289577E+02</totfact>
</mgrwt>
</event>
<event>
 6    1  0.1568961E-005  0.2910093E+04  0.7818608E-02  0.8269881E-01
         -2   -1    0    0    0  501 -0.00000000000E+00  0.00000000000E+00  0.48049567656E+03  0.48049567656E+03  0.00000000000E+00 0.  1.
          2   -1    0    0  501    0  0.00000000000E+00 -0.00000000000E+00 -0.44062016456E+04  0.44062016456E+04  0.00000000000E+00 0. -1.
         23    2    1    2    0    0 -0.10393707576E+04 -0.10065283263E+04 -0.17305933668E+04  0.22576461283E+04  0.92853628099E+02 0.  0.
         11    1    3    3    0    0 -0.13393944688E+03 -0.17362247949E+03 -0.24583775267E+03  0.32942486465E+03  0.00000000000E+00 0.  1.
        -11    1    3    3    0    0 -0.90543131070E+03 -0.83290584678E+03 -0.14847556142E+04  0.19282212637E+04  0.00000000000E+00 0. -1.
         22    1    1    2    0    0  0.10393707576E+04  0.10065283263E+04 -0.21951126022E+04  0.26290511938E+04  0.00000000000E+00 0.  1.
<mgrwt>
<rscale>  0 0.29100934E+04</rscale>
<asrwt>0</asrwt>
<pdfrwt beam="1">  1        2 0.67787722E+00 0.29100934E+04</pdfrwt>
<pdfrwt beam="2">  1       -2 0.73922407E-01 0.29100934E+04</pdfrwt>
<totfact> 0.21535263E-01</totfact>
</mgrwt>
</event>
<event>
 6    1  0.1568961E-005  0.1874199E+04  0.7818608E-02  0.8667807E-01
          1   -1    0    0  501    0  0.00000000000E+00  0.00000000000E+00  0.26105048861E+04  0.26105048861E+04  0.00000000000E+00 0. -1.
         -1   -1    0    0    0  501 -0.00000000000E+00 -0.00000000000E+00 -0.33639305541E+03  0.33639305541E+03  0.00000000000E+00 0.  1.
         23    2    1    2    0    0 -0.54363303910E+03  0.72559368733E+03  0.78198625018E+03  0.12009134547E+04  0.93099676694E+02 0.  0.
         13    1    3    3    0    0 -0.21748157036E+02  0.60227195155E+02  0.75571155983E+02  0.99051991334E+02  0.00000000000E+00 0.  1.
        -13    1    3    3    0    0 -0.52188488207E+03  0.66536649217E+03  0.70641509420E+03  0.11018614633E+04  0.00000000000E+00 0. -1.
         22    1    1    2    0    0  0.54363303910E+03 -0.72559368733E+03  0.14921255805E+04  0.17459844868E+04  0.00000000000E+00 0. -1.
<mgrwt>
<rscale>  0 0.18741993E+04</rscale>
<asrwt>0</asrwt>
<pdfrwt beam="1">  1        1 0.40161612E+00 0.18741993E+04</pdfrwt>
<pdfrwt beam="2">  1       -1 0.51752779E-01 0.18741993E+04</pdfrwt>
<totfact> 0.40019204E+00</totfact>
</mgrwt>
</event>
<event>
 6    1  0.1568961E-005  0.3563656E+04  0.7818608E-02  0.8098868E-01
          2   -1    0    0  501    0  0.00000000000E+00  0.00000000000E+00  0.49885394915E+04  0.49885394915E+04  0.00000000000E+00 0. -1.
         -2   -1    0    0    0  501 -0.00000000000E+00 -0.00000000000E+00 -0.63644098749E+03  0.63644098749E+03  0.00000000000E+00 0.  1.
         23    2    1    2    0    0  0.11600698073E+04  0.20009378860E+03  0.67650467198E+02  0.11817502956E+04  0.78470972002E+02 0.  0.
         11    1    3    3    0    0  0.57602929682E+03  0.11699535698E+03 -0.14682767085E+01  0.58779232743E+03  0.00000000000E+00 0. -1.
        -11    1    3    3    0    0  0.58404051049E+03  0.83098431618E+02  0.69118743906E+02  0.59395796820E+03  0.00000000000E+00 0.  1.
         22    1    1    2    0    0 -0.11600698073E+04 -0.20009378860E+03  0.42844480369E+04  0.44432301834E+04  0.00000000000E+00 0. -1.
<mgrwt>
<rscale>  0 0.35636560E+04</rscale>
<asrwt>0</asrwt>
<pdfrwt beam="1">  1        2 0.76746759E+00 0.35636560E+04</pdfrwt>
<pdfrwt beam="2">  1       -2 0.97914001E-01 0.35636560E+04</pdfrwt>
<totfact> 0.24989613E-02</totfact>
</mgrwt>
</event>
<event>
 6    1  0.1870137E-005  0.2951393E+04  0.7818608E-02  0.8257749E-01
         -1   -1    0    0    0  501 -0.00000000000E+00  0.00000000000E+00  0.16815910097E+04  0.16815910097E+04  0.00000000000E+00 0.  1.
          1   -1    0    0  501    0  0.00000000000E+00 -0.00000000000E+00 -0.12950113673E+04  0.12950113673E+04  0.00000000000E+00 0. -1.
         23    2    1    2    0    0  0.11125821739E+04 -0.54195374511E+03 -0.61459201645E+03  0.13847802620E+04  0.91323993096E+02 0.  0.
         13    1    3    3    0    0  0.29520101713E+03 -0.12822198279E+03 -0.11857194918E+03  0.34299245548E+03  0.00000000000E+00 0. -1.
        -13    1    3    3    0    0  0.81738115679E+03 -0.41373176233E+03 -0.49602006727E+03  0.10417878065E+04  0.00000000000E+00 0.  1.
         22    1    1    2    0    0 -0.11125821739E+04  0.54195374511E+03  0.10011716589E+04  0.15918221151E+04  0.00000000000E+00 0.  1.
<mgrwt>
<rscale>  0 0.29513925E+04</rscale>
<asrwt>0</asrwt>
<pdfrwt beam="1">  1        1 0.19923252E+00 0.29513925E+04</pdfrwt>
<pdfrwt beam="2">  1       -1 0.25870631E+00 0.29513925E+04</pdfrwt>
<totfact> 0.47679660E-01</totfact>
</mgrwt>
</event>
<event>
 6    1  0.1568961E-005  0.6451312E+04  0.7818608E-02  0.7636831E-01
         -2   -1    0    0    0  501 -0.00000000000E+00  0.00000000000E+00  0.33754104632E+04  0.33754104632E+04  0.00000000000E+00 0.  1.
          2   -1    0    0  501    0  0.00000000000E+00 -0.00000000000E+00 -0.30825454402E+04  0.30825454402E+04  0.00000000000E+00 0. -1.
         23    2    1    2    0    0 -0.29113515160E+04  0.10327397004E+04 -0.78084388857E+03  0.31875782853E+04  0.91756243611E+02 0.  0.
         13    1    3    3    0    0 -0.65090672337E+03  0.26078173417E+03 -0.15032308121E+03  0.71713576409E+03  0.00000000000E+00 0.  1.
        -13    1    3    3    0    0 -0.22604447926E+04  0.77195796624E+03 -0.63052080736E+03  0.24704425212E+04  0.00000000000E+00 0. -1.
         22    1    1    2    0    0  0.29113515160E+04 -0.10327397004E+04  0.10737089116E+04  0.32703776181E+04  0.00000000000E+00 0.  1.
<mgrwt>
<rscale>  0 0.64513118E+04</rscale>
<asrwt>0</asrwt>
<pdfrwt beam="1">  1        2 0.47423776E+00 0.64513118E+04</pdfrwt>
<pdfrwt beam="2">  1       -2 0.51929392E+00 0.64513118E+04</pdfrwt>
<totfact> 0.12863269E-03</totfact>
</mgrwt>
</event>
<event>
 6    1  0.1568961E-005  0.1021624E+04  0.7818608E-02  0.9285141E-01
          2   -1    0    0  501    0  0.00000000000E+00  0.00000000000E+00  0.14295110482E+04  0.14295110482E+04  0.00000000000E+00 0.  1.
         -2   -1    0    0    0  501 -0.00000000000E+00 -0.00000000000E+00 -0.18253028003E+03  0.18253028003E+03  0.00000000000E+00 0. -1.
         23    2    1    2    0    0  0.43259821242E+03 -0.18306291421E+03  0.32844895379E+03  0.58036602175E+03  0.91064592498E+02 0.  0.
         11    1    3    3    0    0  0.12444481147E+03 -0.58560050000E+02  0.48552700754E+02  0.14585319780E+03  0.00000000000E+00 0.  1.
        -11    1    3    3    0    0  0.30815340096E+03 -0.12450286421E+03  0.27989625303E+03  0.43451282395E+03  0.00000000000E+00 0. -1.
         22    1    1    2    0    0 -0.43259821242E+03  0.18306291421E+03  0.91853181436E+03  0.10316753065E+04  0.00000000000E+00 0.  1.
<mgrwt>
<rscale>  0 0.10216243E+04</rscale>
<asrwt>0</asrwt>
<pdfrwt beam="1">  1        2 0.21992477E+00 0.10216243E+04</pdfrwt>
<pdfrwt beam="2">  1       -2 0.28081583E-01 0.10216243E+04</pdfrwt>
<totfact> 0.16076820E+02</totfact>
</mgrwt>
</event>
<event>
 6    1  0.1568961E-005  0.1921798E+04  0.7818608E-02  0.8644081E-01
          1   -1    0    0  501    0  0.00000000000E+00  0.00000000000E+00  0.12311759535E+04  0.12311759535E+04  0.00000000000E+00 0. -1.
         -1   -1    0    0    0  501 -0.00000000000E+00 -0.00000000000E+00 -0.74995545943E+03  0.74995545943E+03  0.00000000000E+00 0.  1.
         23    2    1    2    0    0  0.31837231487E+03  0.81513453479E+03 -0.16250043048E+03  0.89476965488E+03  0.91657540320E+02 0.  0.
         11    1    3    3    0    0  0.12572649460E+03  0.29265062957E+03 -0.10288854701E+03  0.33472017499E+03  0.00000000000E+00 0. -1.
        -11    1    3    3    0    0  0.19264582027E+03  0.52248390522E+03 -0.59611883469E+02  0.56004947989E+03  0.00000000000E+00 0.  1.
         22    1    1    2    0    0 -0.31837231487E+03 -0.81513453479E+03  0.64372092460E+03  0.10863617581E+04  0.00000000000E+00 0. -1.
<mgrwt>
<rscale>  0 0.19217982E+04</rscale>
<asrwt>0</asrwt>
<pdfrwt beam="1">  1        1 0.18941169E+00 0.19217982E+04</pdfrwt>
<pdfrwt beam="2">  1       -1 0.11537776E+00 0.19217982E+04</pdfrwt>
<totfact> 0.64497950E+00</totfact>
</mgrwt>
</event>
<event>
 6    1  0.1568961E-005  0.2241617E+04  0.7818608E-02  0.8501303E-01
         -2   -1    0    0    0  501 -0.00000000000E+00  0.00000000000E+00  0.50588541435E+03  0.50588541435E+03  0.00000000000E+00 0.  1.
          2   -1    0    0  501    0  0.00000000000E+00 -0.00000000000E+00 -0.24831939491E+04  0.24831939491E+04  0.00000000000E+00 0. -1.
         23    2    1    2    0    0  0.77786366842E+03 -0.31495189024E+03 -0.19773593242E+04  0.21498734397E+04  0.87973461893E+02 0.  0.
         13    1    3    3    0    0  0.65984103821E+03 -0.26324505987E+03 -0.15857597241E+04  0.17376196534E+04  0.00000000000E+00 0.  1.
        -13    1    3    3    0    0  0.11802263021E+03 -0.51706830379E+02 -0.39159960010E+03  0.41225378634E+03  0.00000000000E+00 0. -1.
         22    1    1    2    0    0 -0.77786366842E+03  0.31495189024E+03  0.50789460019E-01  0.83920592371E+03  0.00000000000E+00 0.  1.
<mgrwt>
<rscale>  0 0.22416169E+04</rscale>
<asrwt>0</asrwt>
<pdfrwt beam="1">  1        2 0.38202984E+00 0.22416169E+04</pdfrwt>
<pdfrwt beam="2">  1       -2 0.77828526E-01 0.22416169E+04</pdfrwt>
<totfact> 0.47684656E+00</totfact>
</mgrwt>
</event>
<event>
 6    1  0.1568961E-005  0.3435109E+04  0.7818608E-02  0.8129343E-01
         -1   -1    0    0    0  501 -0.00000000000E+00  0.00000000000E+00  0.23929127493E+04  0.23929127493E+04  0.00000000000E+00 0. -1.
          1   -1    0    0  501    0  0.00000000000E+00 -0.00000000000E+00 -0.12328042253E+04  0.12328042253E+04  0.00000000000E+00 0.  1.
         23    2    1    2    0    0  0.89280700001E+02  0.76548835685E+03  0.21991768129E+04  0.23320375796E+04  0.89872967799E+02 0.  0.
         11    1    3    3    0    0  0.51034382125E+02  0.37201516827E+03  0.12047453815E+04  0.12619077731E+04  0.00000000000E+00 0. -1.
        -11    1    3    3    0    0  0.38246317876E+02  0.39347318859E+03  0.99443143147E+03  0.10701298065E+04  0.00000000000E+00 0.  1.
         22    1    1    2    0    0 -0.89280700001E+02 -0.76548835685E+03 -0.10390682890E+04  0.12936793950E+04  0.00000000000E+00 0.  1.
<mgrwt>
<rscale>  0 0.34351087E+04</rscale>
<asrwt>0</asrwt>
<pdfrwt beam="1">  1        1 0.18966219E+00 0.34351087E+04</pdfrwt>
<pdfrwt beam="2">  1       -1 0.36814042E+00 0.34351087E+04</pdfrwt>
<totfact> 0.97489821E-02</totfact>
</mgrwt>
</event>
<event>
 6    1  0.1568961E-005  0.2372899E+04  0.7818608E-02  0.8449720E-01
          1   -1    0    0  501    0  0.00000000000E+00  0.00000000000E+00  0.22982462559E+04  0.22982462559E+04  0.00000000000E+00 0. -1.
         -1   -1    0    0    0  501 -0.00000000000E+00 -0.00000000000E+00 -0.61249420951E+03  0.61249420951E+03  0.00000000000E+00 0.  1.
         23    2    1    2    0    0  0.18644031150E+03  0.50652254066E+03 -0.44948344549E+03  0.70834275388E+03  0.91591567539E+02 0.  0.
         11    1    3    3    0    0  0.77029609832E+02  0.11192730267E+03 -0.85967728973E+02  0.16078473901E+03  0.00000000000E+00 0.  1.
        -11    1    3    3    0    0  0.10941070167E+03  0.39459523800E+03 -0.36351571652E+03  0.54755801487E+03  0.00000000000E+00 0. -1.
         22    1    1    2    0    0 -0.18644031150E+03 -0.50652254066E+03  0.21352354919E+04  0.22023977115E+04  0.00000000000E+00 0. -1.
<mgrwt>
<rscale>  0 0.23728991E+04</rscale>
<asrwt>0</asrwt>
<pdfrwt beam="1">  1        1 0.35357634E+00 0.23728991E+04</pdfrwt>
<pdfrwt beam="2">  1       -1 0.94229880E-01 0.23728991E+04</pdfrwt>
<totfact> 0.18276624E+00</totfact>
</mgrwt>
</event>
<event>
 6    1  0.1568961E-005  0.8867224E+03  0.7818608E-02  0.9442333E-01
          1   -1    0    0  501    0  0.00000000000E+00  0.00000000000E+00  0.10231118762E+04  0.10231118762E+04  0.00000000000E+00 0. -1.
         -1   -1    0    0    0  501 -0.00000000000E+00 -0.00000000000E+00 -0.19212871251E+03  0.19212871251E+03  0.00000000000E+00 0.  1.
         23    2    1    2    0    0  0.27780360369E+03  0.19310398314E+03  0.80249075635E+03  0.87571767665E+03  0.91793489150E+02 0.  0.
         13    1    3    3    0    0  0.75974112424E+02  0.21933596907E+02  0.26601847340E+03  0.27752292991E+03  0.00000000000E+00 0.  1.
        -13    1    3    3    0    0  0.20182949126E+03  0.17117038623E+03  0.53647228295E+03  0.59819474675E+03  0.00000000000E+00 0. -1.
         22    1    1    2    0    0 -0.27780360369E+03 -0.19310398314E+03  0.28492407330E+02  0.33952291204E+03  0.00000000000E+00 0.  1.
<mgrwt>
<rscale>  0 0.88672243E+03</rscale>
<asrwt>0</asrwt>
<pdfrwt beam="1">  1        1 0.15740182E+00 0.88672243E+03</pdfrwt>
<pdfrwt beam="2">  1       -1 0.29558264E-01 0.88672243E+03</pdfrwt>
<totfact> 0.15306201E+02</totfact>
</mgrwt>
</event>
<event>
 6    1  0.1568961E-005  0.6032505E+04  0.7818608E-02  0.7686385E-01
          2   -1    0    0  501    0  0.00000000000E+00  0.00000000000E+00  0.31811862142E+04  0.31811862142E+04  0.00000000000E+00 0.  1.
         -2   -1    0    0    0  501 -0.00000000000E+00 -0.00000000000E+00 -0.28598698596E+04  0.28598698596E+04  0.00000000000E+00 0. -1.
         23    2    1    2    0    0  0.45824932588E+03  0.14794039690E+04  0.27520938646E+04  0.31588159986E+04  0.73954888630E+02 0.  0.
         11    1    3    3    0    0  0.11721193921E+03  0.45710633400E+03  0.88931898512E+03  0.10067636746E+04  0.00000000000E+00 0. -1.
        -11    1    3    3    0    0  0.34103738667E+03  0.10222976350E+04  0.18627748795E+04  0.21520523240E+04  0.00000000000E+00 0.  1.
         22    1    1    2    0    0 -0.45824932588E+03 -0.14794039690E+04 -0.24307775099E+04  0.28822400752E+04  0.00000000000E+00 0. -1.
<mgrwt>
<rscale>  0 0.60325048E+04</rscale>
<asrwt>0</asrwt>
<pdfrwt beam="1">  1        2 0.48941326E+00 0.60325048E+04</pdfrwt>
<pdfrwt beam="2">  1       -2 0.43997998E+00 0.60325048E+04</pdfrwt>
<totfact> 0.36322537E-03</totfact>
</mgrwt>
</event>
<event>
 6    1  0.1568961E-005  0.1188713E+04  0.7818608E-02  0.9122794E-01
          1   -1    0    0  501    0  0.00000000000E+00  0.00000000000E+00  0.25930562189E+03  0.25930562189E+03  0.00000000000E+00 0. -1.
         -1   -1    0    0    0  501 -0.00000000000E+00 -0.00000000000E+00 -0.13623283423E+04  0.13623283423E+04  0.00000000000E+00 0.  1.
         23    2    1    2    0    0 -0.26538567606E+03 -0.26597598188E+03 -0.11768590632E+04  0.12387180654E+04  0.90842781817E+02 0.  0.
         13    1    3    3    0    0 -0.89682150419E+00  0.56071173037E+01 -0.37991019471E+02  0.38413039632E+02  0.00000000000E+00 0.  1.
        -13    1    3    3    0    0 -0.26448885456E+03 -0.27158309919E+03 -0.11388680437E+04  0.12003050258E+04  0.00000000000E+00 0. -1.
         22    1    1    2    0    0  0.26538567606E+03  0.26597598188E+03  0.73836342798E+02  0.38291589875E+03  0.00000000000E+00 0. -1.
<mgrwt>
<rscale>  0 0.11887126E+04</rscale>
<asrwt>0</asrwt>
<pdfrwt beam="1">  1        1 0.39893173E-01 0.11887126E+04</pdfrwt>
<pdfrwt beam="2">  1       -1 0.20958897E+00 0.11887126E+04</pdfrwt>
<totfact> 0.13598334E+01</totfact>
</mgrwt>
</event>
<event>
 6    1  0.1568961E-005  0.1385254E+04  0.7818608E-02  0.8964562E-01
          1   -1    0    0  501    0  0.00000000000E+00  0.00000000000E+00  0.13103021678E+04  0.13103021678E+04  0.00000000000E+00 0. -1.
         -1   -1    0    0    0  501 -0.00000000000E+00 -0.00000000000E+00 -0.36612330783E+03  0.36612330783E+03  0.00000000000E+00 0.  1.
         23    2    1    2    0    0  0.18442762816E+03 -0.47559521929E+03  0.10358411679E+04  0.11581530170E+04  0.90261414635E+02 0.  0.
         13    1    3    3    0    0  0.59354902161E+02 -0.25935091060E+03  0.48128593915E+03  0.54992913585E+03  0.00000000000E+00 0.  1.
        -13    1    3    3    0    0  0.12507272600E+03 -0.21624430869E+03  0.55455522876E+03  0.60822388113E+03  0.00000000000E+00 0. -1.
         22    1    1    2    0    0 -0.18442762816E+03  0.47559521929E+03 -0.91662307990E+02  0.51827245860E+03  0.00000000000E+00 0.  1.
<mgrwt>
<rscale>  0 0.13852540E+04</rscale>
<asrwt>0</asrwt>
<pdfrwt beam="1">  1        1 0.20158495E+00 0.13852540E+04</pdfrwt>
<pdfrwt beam="2">  1       -1 0.56326663E-01 0.13852540E+04</pdfrwt>
<totfact> 0.27687172E+01</totfact>
</mgrwt>
</event>
<event>
 6    1  0.1568961E-005  0.1627343E+04  0.7818608E-02  0.8803924E-01
          2   -1    0    0  501    0  0.00000000000E+00  0.00000000000E+00  0.80022023119E+03  0.80022023119E+03  0.00000000000E+00 0. -1.
         -2   -1    0    0    0  501 -0.00000000000E+00 -0.00000000000E+00 -0.82734845427E+03  0.82734845427E+03  0.00000000000E+00 0.  1.
         23    2    1    2    0    0 -0.77068286289E+02 -0.71716376170E+03 -0.38444687313E+03  0.82262148253E+03  0.92969475741E+02 0.  0.
         11    1    3    3    0    0 -0.43109880013E+01 -0.29219414975E+03 -0.19735312033E+03  0.35262481460E+03  0.00000000000E+00 0. -1.
        -11    1    3    3    0    0 -0.72757298287E+02 -0.42496961194E+03 -0.18709375280E+03  0.46999666793E+03  0.00000000000E+00 0.  1.
         22    1    1    2    0    0  0.77068286289E+02  0.71716376170E+03  0.35731865005E+03  0.80494720294E+03  0.00000000000E+00 0. -1.
<mgrwt>
<rscale>  0 0.16273426E+04</rscale>
<asrwt>0</asrwt>
<pdfrwt beam="1">  1        2 0.12311080E+00 0.16273426E+04</pdfrwt>
<pdfrwt beam="2">  1       -2 0.12728438E+00 0.16273426E+04</pdfrwt>
<totfact> 0.15092677E+01</totfact>
</mgrwt>
</event>
<event>
 6    1  0.1568961E-005  0.3033185E+04  0.7818608E-02  0.8234318E-01
          2   -1    0    0  501    0  0.00000000000E+00  0.00000000000E+00  0.29463143832E+04  0.29463143832E+04  0.00000000000E+00 0. -1.
         -2   -1    0    0    0  501 -0.00000000000E+00 -0.00000000000E+00 -0.78065440934E+03  0.78065440934E+03  0.00000000000E+00 0.  1.
         23    2    1    2    0    0  0.81342842318E+03 -0.10115916405E+04  0.20441952861E+04  0.24232291264E+04  0.91222719651E+02 0.  0.
         13    1    3    3    0    0  0.37173799133E+03 -0.52761960158E+03  0.10518686316E+04  0.12340985359E+04  0.00000000000E+00 0. -1.
        -13    1    3    3    0    0  0.44169043184E+03 -0.48397203890E+03  0.99232665454E+03  0.11891305905E+04  0.00000000000E+00 0.  1.
         22    1    1    2    0    0 -0.81342842318E+03  0.10115916405E+04  0.12146468776E+03  0.13037396661E+04  0.00000000000E+00 0.  1.
<mgrwt>
<rscale>  0 0.30331853E+04</rscale>
<asrwt>0</asrwt>
<pdfrwt beam="1">  1        2 0.45327913E+00 0.30331853E+04</pdfrwt>
<pdfrwt beam="2">  1       -2 0.12010068E+00 0.30331853E+04</pdfrwt>
<totfact> 0.85032868E-01</totfact>
</mgrwt>
</event>
<event>
 6    1  0.1568961E-005  0.4017469E+04  0.7818608E-02  0.8001032E-01
         -1   -1    0    0    0  501 -0.00000000000E+00  0.00000000000E+00  0.90791929298E+03  0.90791929298E+03  0.00000000000E+00 0.  1.
          1   -1    0    0  501    0  0.00000000000E+00 -0.00000000000E+00 -0.44442429939E+04  0.44442429939E+04  0.00000000000E+00 0. -1.
         23    2    1    2    0    0 -0.59022798830E+03  0.17373347314E+04 -0.68337591240E+03  0.19601109708E+04  0.91276135919E+02 0.  0.
         13    1    3    3    0    0 -0.13919056847E+03  0.53903743850E+03 -0.21275544566E+03  0.59598679022E+03  0.00000000000E+00 0.  1.
        -13    1    3    3    0    0 -0.45103741983E+03  0.11982972929E+04 -0.47062046674E+03  0.13641241806E+04  0.00000000000E+00 0. -1.
         22    1    1    2    0    0  0.59022798830E+03 -0.17373347314E+04 -0.28529477885E+04  0.33920513161E+04  0.00000000000E+00 0. -1.
<mgrwt>
<rscale>  0 0.40174688E+04</rscale>
<asrwt>0</asrwt>
<pdfrwt beam="1">  1        1 0.68372968E+00 0.40174688E+04</pdfrwt>
<pdfrwt beam="2">  1       -1 0.13967989E+00 0.40174688E+04</pdfrwt>
<totfact> 0.12029681E-02</totfact>
</mgrwt>
</event>
<event>
 6    1  0.1568961E-005  0.2858429E+04  0.7818608E-02  0.8285355E-01
          1   -1    0    0  501    0  0.00000000000E+00  0.00000000000E+00  0.21237075736E+04  0.21237075736E+04  0.00000000000E+00 0. -1.
         -1   -1    0    0    0  501 -0.00000000000E+00 -0.00000000000E+00 -0.96183368068E+03  0.96183368068E+03  0.00000000000E+00 0.  1.
         23    2    1    2    0    0 -0.27765812670E+03  0.12969135168E+04  0.10962255062E+02  0.13295013050E+04  0.91514171604E+02 0.  0.
         13    1    3    3    0    0 -0.24656864821E+03  0.11136105778E+04  0.40234697664E+02  0.11412902559E+04  0.00000000000E+00 0. -1.
        -13    1    3    3    0    0 -0.31089478487E+02  0.18330293899E+03 -0.29272442602E+02  0.18821104912E+03  0.00000000000E+00 0.  1.
         22    1    1    2    0    0  0.27765812670E+03 -0.12969135168E+04  0.11509116378E+04  0.17560399493E+04  0.00000000000E+00 0. -1.
<mgrwt>
<rscale>  0 0.28584286E+04</rscale>
<asrwt>0</asrwt>
<pdfrwt beam="1">  1        1 0.32672424E+00 0.28584286E+04</pdfrwt>
<pdfrwt beam="2">  1       -1 0.14797441E+00 0.28584286E+04</pdfrwt>
<totfact> 0.76540056E-01</totfact>
</mgrwt>
</event>
<event>
 6    1  0.1568961E-005  0.3379859E+04  0.7818608E-02  0.8142867E-01
         -1   -1    0    0    0  501 -0.00000000000E+00  0.00000000000E+00  0.11617320525E+04  0.11617320525E+04  0.00000000000E+00 0.  1.
          1   -1    0    0  501    0  0.00000000000E+00 -0.00000000000E+00 -0.24582791961E+04  0.24582791961E+04  0.00000000000E+00 0. -1.
         23    2    1    2    0    0 -0.80645110341E+03 -0.14643525984E+04 -0.89958247555E+03  0.19017933165E+04  0.11347807487E+03 0.  0.
         11    1    3    3    0    0 -0.21635590376E+03 -0.41811242246E+03 -0.19786325174E+03  0.51066401998E+03  0.00000000000E+00 0.  1.
        -11    1    3    3    0    0 -0.59009519965E+03 -0.10462401760E+04 -0.70171922381E+03  0.13911292965E+04  0.00000000000E+00 0. -1.
         22    1    1    2    0    0  0.80645110341E+03  0.14643525984E+04 -0.39696466799E+03  0.17182179321E+04  0.00000000000E+00 0.  1.
<mgrwt>
<rscale>  0 0.33798590E+04</rscale>
<asrwt>0</asrwt>
<pdfrwt beam="1">  1        1 0.37819679E+00 0.33798590E+04</pdfrwt>
<pdfrwt beam="2">  1       -1 0.17872801E+00 0.33798590E+04</pdfrwt>
<totfact> 0.25358532E-01</totfact>
</mgrwt>
</event>
<event>
 6    1  0.1568961E-005  0.2663357E+04  0.7818608E-02  0.8346993E-01
          2   -1    0    0  501    0  0.00000000000E+00  0.00000000000E+00  0.33814890928E+04  0.33814890928E+04  0.00000000000E+00 0.  1.
         -2   -1    0    0    0  501 -0.00000000000E+00 -0.00000000000E+00 -0.52443383554E+03  0.52443383554E+03  0.00000000000E+00 0. -1.
         23    2    1    2    0    0  0.77638857730E+03  0.45502851884E+03 -0.63318142365E+01  0.90445400511E+03  0.90370236046E+02 0.  0.
         11    1    3    3    0    0  0.45990783868E+03  0.25128884871E+03 -0.45384461658E+02  0.52604282613E+03  0.00000000000E+00 0. -1.
        -11    1    3    3    0    0  0.31648073862E+03  0.20373967014E+03  0.39052647421E+02  0.37841117898E+03  0.00000000000E+00 0.  1.
         22    1    1    2    0    0 -0.77638857730E+03 -0.45502851884E+03  0.28633870715E+04  0.30014689232E+04  0.00000000000E+00 0.  1.
<mgrwt>
<rscale>  0 0.26633568E+04</rscale>
<asrwt>0</asrwt>
<pdfrwt beam="1">  1        2 0.52022908E+00 0.26633568E+04</pdfrwt>
<pdfrwt beam="2">  1       -2 0.80682131E-01 0.26633568E+04</pdfrwt>
<totfact> 0.11714483E+00</totfact>
</mgrwt>
</event>
<event>
 6    1  0.1568961E-005  0.1243279E+04  0.7818608E-02  0.9075796E-01
          1   -1    0    0  501    0  0.00000000000E+00  0.00000000000E+00  0.63545790857E+03  0.63545790857E+03  0.00000000000E+00 0. -1.
         -1   -1    0    0    0  501 -0.00000000000E+00 -0.00000000000E+00 -0.60812148697E+03  0.60812148697E+03  0.00000000000E+00 0.  1.
         23    2    1    2    0    0 -0.40236768727E+02 -0.52036920509E+03 -0.31683093794E+03  0.61839599962E+03  0.98125745572E+02 0.  0.
         11    1    3    3    0    0 -0.32945728712E+02 -0.23482087303E+03 -0.19840679700E+03  0.30917878412E+03  0.00000000000E+00 0. -1.
        -11    1    3    3    0    0 -0.72910400156E+01 -0.28554833206E+03 -0.11842414094E+03  0.30921721550E+03  0.00000000000E+00 0.  1.
         22    1    1    2    0    0  0.40236768727E+02  0.52036920509E+03  0.34416735954E+03  0.62518339592E+03  0.00000000000E+00 0. -1.
<mgrwt>
<rscale>  0 0.12432789E+04</rscale>
<asrwt>0</asrwt>
<pdfrwt beam="1">  1        1 0.97762754E-01 0.12432789E+04</pdfrwt>
<pdfrwt beam="2">  1       -1 0.93557153E-01 0.12432789E+04</pdfrwt>
<totfact> 0.34452147E+01</totfact>
</mgrwt>
</event>
<event>
 6    1  0.1568961E-005  0.8077737E+03  0.7818608E-02  0.9548833E-01
          1   -1    0    0  501    0  0.00000000000E+00  0.00000000000E+00  0.25948981676E+04  0.25948981676E+04  0.00000000000E+00 0. -1.
         -1   -1    0    0    0  501 -0.00000000000E+00 -0.00000000000E+00 -0.62863578442E+02  0.62863578442E+02  0.00000000000E+00 0.  1.
         23    2    1    2    0    0 -0.29313777598E+03 -0.25268793942E+03  0.96394866898E+03  0.10426226178E+04  0.89910713148E+02 0.  0.
         13    1    3    3    0    0 -0.22136879548E+03 -0.20197834017E+03  0.63530018397E+03  0.70242844281E+03  0.00000000000E+00 0. -1.
        -13    1    3    3    0    0 -0.71768980497E+02 -0.50709599252E+02  0.32864848501E+03  0.34019417502E+03  0.00000000000E+00 0.  1.
         22    1    1    2    0    0  0.29313777598E+03  0.25268793942E+03  0.15680859201E+04  0.16151391282E+04  0.00000000000E+00 0. -1.
<mgrwt>
<rscale>  0 0.80777369E+03</rscale>
<asrwt>0</asrwt>
<pdfrwt beam="1">  1        1 0.39921502E+00 0.80777369E+03</pdfrwt>
<pdfrwt beam="2">  1       -1 0.96713218E-02 0.80777369E+03</pdfrwt>
<totfact> 0.80394890E+01</totfact>
</mgrwt>
</event>
<event>
 6    1  0.1568961E-005  0.4931414E+04  0.7818608E-02  0.7839175E-01
         -2   -1    0    0    0  501 -0.00000000000E+00  0.00000000000E+00  0.21188735773E+04  0.21188735773E+04  0.00000000000E+00 0.  1.
          2   -1    0    0  501    0  0.00000000000E+00 -0.00000000000E+00 -0.28693129139E+04  0.28693129139E+04  0.00000000000E+00 0. -1.
         23    2    1    2    0    0  0.23903038999E+03  0.76410447004E+03  0.19826997010E+04  0.21401976979E+04  0.91416155212E+02 0.  0.
         11    1    3    3    0    0  0.15408777241E+03  0.42613788702E+03  0.12276658898E+04  0.13086252624E+04  0.00000000000E+00 0.  1.
        -11    1    3    3    0    0  0.84942617576E+02  0.33796658302E+03  0.75503381113E+03  0.83157243549E+03  0.00000000000E+00 0. -1.
         22    1    1    2    0    0 -0.23903038999E+03 -0.76410447004E+03 -0.27331390375E+04  0.28479887933E+04  0.00000000000E+00 0. -1.
<mgrwt>
<rscale>  0 0.49314141E+04</rscale>
<asrwt>0</asrwt>
<pdfrwt beam="1">  1        2 0.44143276E+00 0.49314141E+04</pdfrwt>
<pdfrwt beam="2">  1       -2 0.32598055E+00 0.49314141E+04</pdfrwt>
<totfact> 0.33759970E-02</totfact>
</mgrwt>
</event>
<event>
 6    1  0.1568961E-005  0.2016420E+04  0.7818608E-02  0.8598982E-01
         -2   -1    0    0    0  501 -0.00000000000E+00  0.00000000000E+00  0.34674408982E+03  0.34674408982E+03  0.00000000000E+00 0.  1.
          2   -1    0    0  501    0  0.00000000000E+00 -0.00000000000E+00 -0.29315211482E+04  0.29315211482E+04  0.00000000000E+00 0. -1.
         23    2    1    2    0    0  0.93612023241E+03 -0.19514285933E+03 -0.18065385668E+04  0.20453593313E+04  0.74238640078E+02 0.  0.
         11    1    3    3    0    0  0.42403011518E+03 -0.11531636603E+03 -0.88448287110E+03  0.98762814466E+03  0.00000000000E+00 0.  1.
        -11    1    3    3    0    0  0.51209011723E+03 -0.79826493298E+02 -0.92205569574E+03  0.10577311867E+04  0.00000000000E+00 0. -1.
         22    1    1    2    0    0 -0.93612023241E+03  0.19514285933E+03 -0.77823849153E+03  0.12329059067E+04  0.00000000000E+00 0.  1.
<mgrwt>
<rscale>  0 0.20164202E+04</rscale>
<asrwt>0</asrwt>
<pdfrwt beam="1">  1        2 0.45100326E+00 0.20164202E+04</pdfrwt>
<pdfrwt beam="2">  1       -2 0.53345244E-01 0.20164202E+04</pdfrwt>
<totfact> 0.59155927E+00</totfact>
</mgrwt>
</event>
<event>
 6    1  0.1568961E-005  0.4187332E+04  0.7818608E-02  0.7967786E-01
         -1   -1    0    0    0  501 -0.00000000000E+00  0.00000000000E+00  0.15061484901E+04  0.15061484901E+04  0.00000000000E+00 0.  1.
          1   -1    0    0  501    0  0.00000000000E+00 -0.00000000000E+00 -0.29103618519E+04  0.29103618519E+04  0.00000000000E+00 0. -1.
         23    2    1    2    0    0  0.34066437140E+03 -0.10321142272E+04 -0.25886019501E+04  0.28090003669E+04  0.91164757300E+02 0.  0.
         13    1    3    3    0    0  0.19391736770E+02 -0.15817314896E+03 -0.39851660599E+03  0.42919723876E+03  0.00000000000E+00 0.  1.
        -13    1    3    3    0    0  0.32127263463E+03 -0.87394107829E+03 -0.21900853441E+04  0.23798031281E+04  0.00000000000E+00 0. -1.
         22    1    1    2    0    0 -0.34066437140E+03  0.10321142272E+04  0.11843885883E+04  0.16075099751E+04  0.00000000000E+00 0.  1.
<mgrwt>
<rscale>  0 0.41873319E+04</rscale>
<asrwt>0</asrwt>
<pdfrwt beam="1">  1        1 0.44774797E+00 0.41873319E+04</pdfrwt>
<pdfrwt beam="2">  1       -1 0.23171516E+00 0.41873319E+04</pdfrwt>
<totfact> 0.49202994E-02</totfact>
</mgrwt>
</event>
<event>
 6    1  0.1568961E-005  0.3033692E+04  0.7818608E-02  0.8234175E-01
          1   -1    0    0  501    0  0.00000000000E+00  0.00000000000E+00  0.81887762746E+03  0.81887762746E+03  0.00000000000E+00 0. -1.
         -1   -1    0    0    0  501 -0.00000000000E+00 -0.00000000000E+00 -0.28097252177E+04  0.28097252177E+04  0.00000000000E+00 0.  1.
         23    2    1    2    0    0  0.21428230290E+03  0.14390404435E+04 -0.15035996619E+04  0.20942740516E+04  0.91747242666E+02 0.  0.
         13    1    3    3    0    0  0.20502214069E+03  0.11816010498E+04 -0.12084815328E+04  0.17025400830E+04  0.00000000000E+00 0. -1.
        -13    1    3    3    0    0  0.92601622075E+01  0.25743939368E+03 -0.29511812913E+03  0.39173396861E+03  0.00000000000E+00 0.  1.
         22    1    1    2    0    0 -0.21428230290E+03 -0.14390404435E+04 -0.48724792834E+03  0.15343287936E+04  0.00000000000E+00 0.  1.
<mgrwt>
<rscale>  0 0.30336916E+04</rscale>
<asrwt>0</asrwt>
<pdfrwt beam="1">  1        1 0.12598118E+00 0.30336916E+04</pdfrwt>
<pdfrwt beam="2">  1       -1 0.43226541E+00 0.30336916E+04</pdfrwt>
<totfact> 0.77439718E-02</totfact>
</mgrwt>
</event>
<event>
 6    1  0.1568961E-005  0.4773998E+04  0.7818608E-02  0.7864348E-01
         -2   -1    0    0    0  501 -0.00000000000E+00  0.00000000000E+00  0.28662722854E+04  0.28662722854E+04  0.00000000000E+00 0.  1.
          2   -1    0    0  501    0  0.00000000000E+00 -0.00000000000E+00 -0.19878652667E+04  0.19878652667E+04  0.00000000000E+00 0. -1.
         23    2    1    2    0    0 -0.21442140687E+04  0.78609038802E+03  0.11429966488E+04  0.25550943287E+04  0.80458802489E+02 0.  0.
         11    1    3    3    0    0 -0.20188685630E+04  0.75974764487E+03  0.10804877782E+04  0.24125713663E+04  0.00000000000E+00 0.  1.
        -11    1    3    3    0    0 -0.12534550575E+03  0.26342743147E+02  0.62508870618E+02  0.14252296248E+03  0.00000000000E+00 0. -1.
         22    1    1    2    0    0  0.21442140687E+04 -0.78609038802E+03 -0.26458963020E+03  0.22990432234E+04  0.00000000000E+00 0. -1.
<mgrwt>
<rscale>  0 0.47739975E+04</rscale>
<asrwt>0</asrwt>
<pdfrwt beam="1">  1        2 0.30582543E+00 0.47739975E+04</pdfrwt>
<pdfrwt beam="2">  1       -2 0.44096497E+00 0.47739975E+04</pdfrwt>
<totfact> 0.20067993E-02</totfact>
</mgrwt>
</event>
<event>
 6    1  0.1568961E-005  0.5289026E+03  0.7818608E-02  0.1006499E+00
         -2   -1    0    0    0  501 -0.00000000000E+00  0.00000000000E+00  0.28453413565E+02  0.28453413565E+02  0.00000000000E+00 0.  1.
          2   -1    0    0  501    0  0.00000000000E+00 -0.00000000000E+00 -0.24578597607E+04  0.24578597607E+04  0.00000000000E+00 0. -1.
         23    2    1    2    0    0  0.23926255148E+03 -0.77131932990E+02 -0.14982678380E+04  0.15218367221E+04  0.89356536749E+02 0.  0.
         11    1    3    3    0    0  0.19867800807E+03 -0.60004079278E+02 -0.13821288747E+04  0.13976242938E+04  0.00000000000E+00 0. -1.
        -11    1    3    3    0    0  0.40584543408E+02 -0.17127853712E+02 -0.11613896335E+03  0.12421242831E+03  0.00000000000E+00 0.  1.
         22    1    1    2    0    0 -0.23926255148E+03  0.77131932990E+02 -0.93113850914E+03  0.96447645219E+03  0.00000000000E+00 0.  1.
<mgrwt>
<rscale>  0 0.52890264E+03</rscale>
<asrwt>0</asrwt>
<pdfrwt beam="1">  1        2 0.37813227E+00 0.52890264E+03</pdfrwt>
<pdfrwt beam="2">  1       -2 0.43774482E-02 0.52890264E+03</pdfrwt>
<totfact> 0.98510236E+02</totfact>
</mgrwt>
</event>
<event>
 6    1  0.1568961E-005  0.1240082E+04  0.7818608E-02  0.9078478E-01
          2   -1    0    0  501    0  0.00000000000E+00  0.00000000000E+00  0.54326739375E+03  0.54326739375E+03  0.00000000000E+00 0. -1.
         -2   -1    0    0    0  501 -0.00000000000E+00 -0.00000000000E+00 -0.70766459208E+03  0.70766459208E+03  0.00000000000E+00 0.  1.
         23    2    1    2    0    0  0.18275294242E+03  0.18755753488E+03  0.48075176531E+03  0.55466073685E+03  0.89161686279E+02 0.  0.
         11    1    3    3    0    0  0.85851662256E+02  0.73112563521E+02  0.29573026938E+03  0.31650015337E+03  0.00000000000E+00 0.  1.
        -11    1    3    3    0    0  0.96901280164E+02  0.11444497136E+03  0.18502149594E+03  0.23816058348E+03  0.00000000000E+00 0. -1.
         22    1    1    2    0    0 -0.18275294242E+03 -0.18755753488E+03 -0.64514896365E+03  0.69627124898E+03  0.00000000000E+00 0.  1.
<mgrwt>
<rscale>  0 0.12400824E+04</rscale>
<asrwt>0</asrwt>
<pdfrwt beam="1">  1        2 0.83579599E-01 0.12400824E+04</pdfrwt>
<pdfrwt beam="2">  1       -2 0.10887148E+00 0.12400824E+04</pdfrwt>
<totfact> 0.37034903E+01</totfact>
</mgrwt>
</event>
<event>
 6    1  0.1568961E-005  0.2096115E+04  0.7818608E-02  0.8562957E-01
         -2   -1    0    0    0  501 -0.00000000000E+00  0.00000000000E+00  0.58320977209E+03  0.58320977209E+03  0.00000000000E+00 0.  1.
          2   -1    0    0  501    0  0.00000000000E+00 -0.00000000000E+00 -0.18834119472E+04  0.18834119472E+04  0.00000000000E+00 0. -1.
         23    2    1    2    0    0 -0.19559911360E+03  0.48464029233E+03 -0.17179368880E+04  0.17975645345E+04  0.82437117108E+02 0.  0.
         13    1    3    3    0    0 -0.15709286624E+03  0.29641023383E+03 -0.11559312500E+04  0.12036254609E+04  0.00000000000E+00 0.  1.
        -13    1    3    3    0    0 -0.38506247366E+02  0.18823005850E+03 -0.56200563793E+03  0.59393907354E+03  0.00000000000E+00 0. -1.
         22    1    1    2    0    0  0.19559911360E+03 -0.48464029233E+03  0.41773471289E+03  0.66905718481E+03  0.00000000000E+00 0.  1.
<mgrwt>
<rscale>  0 0.20961147E+04</rscale>
<asrwt>0</asrwt>
<pdfrwt beam="1">  1        2 0.28975568E+00 0.20961147E+04</pdfrwt>
<pdfrwt beam="2">  1       -2 0.89724580E-01 0.20961147E+04</pdfrwt>
<totfact> 0.76093811E+00</totfact>
</mgrwt>
</event>
<event>
 6    1  0.1568961E-005  0.1943714E+04  0.7818608E-02  0.8633398E-01
          2   -1    0    0  501    0  0.00000000000E+00  0.00000000000E+00  0.81787424789E+03  0.81787424789E+03  0.00000000000E+00 0. -1.
         -2   -1    0    0    0  501 -0.00000000000E+00 -0.00000000000E+00 -0.11548303958E+04  0.11548303958E+04  0.00000000000E+00 0.  1.
         23    2    1    2    0    0  0.41532395859E+03  0.57773521600E+03  0.49993509307E+03  0.87422436638E+03  0.89784047091E+02 0.  0.
         11    1    3    3    0    0  0.14597744977E+03  0.13993740745E+03  0.16152424914E+03  0.25880876512E+03  0.00000000000E+00 0. -1.
        -11    1    3    3    0    0  0.26934650883E+03  0.43779780855E+03  0.33841084392E+03  0.61541560126E+03  0.00000000000E+00 0.  1.
         22    1    1    2    0    0 -0.41532395859E+03 -0.57773521600E+03 -0.83689124095E+03  0.10984802773E+04  0.00000000000E+00 0.  1.
<mgrwt>
<rscale>  0 0.19437140E+04</rscale>
<asrwt>0</asrwt>
<pdfrwt beam="1">  1        2 0.12582681E+00 0.19437140E+04</pdfrwt>
<pdfrwt beam="2">  1       -2 0.17766622E+00 0.19437140E+04</pdfrwt>
<totfact> 0.58715679E+00</totfact>
</mgrwt>
</event>
<event>
 6    1  0.1568961E-005  0.1790977E+04  0.7818608E-02  0.8711113E-01
         -1   -1    0    0    0  501 -0.00000000000E+00  0.00000000000E+00  0.41979438753E+03  0.41979438753E+03  0.00000000000E+00 0.  1.
          1   -1    0    0  501    0  0.00000000000E+00 -0.00000000000E+00 -0.19102196930E+04  0.19102196930E+04  0.00000000000E+00 0. -1.
         23    2    1    2    0    0 -0.65734056173E+00 -0.72577378599E+03 -0.69289903262E+02  0.73427793320E+03  0.87263806695E+02 0.  0.
         13    1    3    3    0    0  0.17971269540E+02 -0.12940752470E+03 -0.41074736156E+02  0.13695403582E+03  0.00000000000E+00 0. -1.
        -13    1    3    3    0    0 -0.18628610101E+02 -0.59636626129E+03 -0.28215167106E+02  0.59732389738E+03  0.00000000000E+00 0.  1.
         22    1    1    2    0    0  0.65734056173E+00  0.72577378599E+03 -0.14211354022E+04  0.15957361474E+04  0.00000000000E+00 0. -1.
<mgrwt>
<rscale>  0 0.17909768E+04</rscale>
<asrwt>0</asrwt>
<pdfrwt beam="1">  1        1 0.29387996E+00 0.17909768E+04</pdfrwt>
<pdfrwt beam="2">  1       -1 0.64583751E-01 0.17909768E+04</pdfrwt>
<totfact> 0.78719542E+00</totfact>
</mgrwt>
</event>
<event>
 6    1  0.1568961E-005  0.4305315E+04  0.7818608E-02  0.7945636E-01
          2   -1    0    0  501    0  0.00000000000E+00  0.00000000000E+00  0.29195297445E+04  0.29195297445E+04  0.00000000000E+00 0.  1.
         -2   -1    0    0    0  501 -0.00000000000E+00 -0.00000000000E+00 -0.15872191094E+04  0.15872191094E+04  0.00000000000E+00 0. -1.
         23    2    1    2    0    0 -0.13060658427E+04 -0.15005584346E+04 -0.19180567131E+03  0.20006734127E+04  0.91766484024E+02 0.  0.
         11    1    3    3    0    0 -0.98854443279E+03 -0.11521114164E+04 -0.10855683751E+03  0.15219610371E+04  0.00000000000E+00 0.  1.
        -11    1    3    3    0    0 -0.31752140988E+03 -0.34844701827E+03 -0.83248833797E+02  0.47871237565E+03  0.00000000000E+00 0. -1.
         22    1    1    2    0    0  0.13060658427E+04  0.15005584346E+04  0.15241163064E+04  0.25060754411E+04  0.00000000000E+00 0.  1.
<mgrwt>
<rscale>  0 0.43053146E+04</rscale>
<asrwt>0</asrwt>
<pdfrwt beam="1">  1        2 0.44915842E+00 0.43053146E+04</pdfrwt>
<pdfrwt beam="2">  1       -2 0.24418756E+00 0.43053146E+04</pdfrwt>
<totfact> 0.10492154E-01</totfact>
</mgrwt>
</event>
<event>
 6    1  0.1568961E-005  0.3028243E+04  0.7818608E-02  0.8235712E-01
          1   -1    0    0  501    0  0.00000000000E+00  0.00000000000E+00  0.14363933845E+04  0.14363933845E+04  0.00000000000E+00 0.  1.
         -1   -1    0    0    0  501 -0.00000000000E+00 -0.00000000000E+00 -0.15960552350E+04  0.15960552350E+04  0.00000000000E+00 0. -1.
         23    2    1    2    0    0 -0.13325322895E+04  0.65411358419E+03  0.21176892370E+03  0.15022631068E+04  0.91877534874E+02 0.  0.
         11    1    3    3    0    0 -0.62804072083E+03  0.25956999716E+03  0.83163638894E+02  0.68463707267E+03  0.00000000000E+00 0.  1.
        -11    1    3    3    0    0 -0.70449156863E+03  0.39454358702E+03  0.12860528481E+03  0.81762603409E+03  0.00000000000E+00 0. -1.
         22    1    1    2    0    0  0.13325322895E+04 -0.65411358419E+03 -0.37143077414E+03  0.15301855128E+04  0.00000000000E+00 0. -1.
<mgrwt>
<rscale>  0 0.30282425E+04</rscale>
<asrwt>0</asrwt>
<pdfrwt beam="1">  1        1 0.22098360E+00 0.30282425E+04</pdfrwt>
<pdfrwt beam="2">  1       -1 0.24554696E+00 0.30282425E+04</pdfrwt>
<totfact> 0.45856424E-01</totfact>
</mgrwt>
</event>
<event>
 6    1  0.1568961E-005  0.2136972E+04  0.7818608E-02  0.8545130E-01
         -2   -1    0    0    0  501 -0.00000000000E+00  0.00000000000E+00  0.89144017982E+03  0.89144017982E+03  0.00000000000E+00 0.  1.
          2   -1    0    0  501    0  0.00000000000E+00 -0.00000000000E+00 -0.12806936978E+04  0.12806936978E+04  0.00000000000E+00 0. -1.
         23    2    1    2    0    0 -0.10033420808E+04  0.36089337365E+03 -0.22017258240E+03  0.10925377860E+04  0.90683458204E+02 0.  0.
         11    1    3    3    0    0 -0.77224438120E+03  0.23875215193E+03 -0.17953846678E+03  0.82800847544E+03  0.00000000000E+00 0. -1.
        -11    1    3    3    0    0 -0.23109769960E+03  0.12214122172E+03 -0.40634115614E+02  0.26452931058E+03  0.00000000000E+00 0.  1.
         22    1    1    2    0    0  0.10033420808E+04 -0.36089337365E+03 -0.16908093559E+03  0.10795960916E+04  0.00000000000E+00 0.  1.
<mgrwt>
<rscale>  0 0.21369715E+04</rscale>
<asrwt>0</asrwt>
<pdfrwt beam="1">  1        2 0.19702980E+00 0.21369715E+04</pdfrwt>
<pdfrwt beam="2">  1       -2 0.13714464E+00 0.21369715E+04</pdfrwt>
<totfact> 0.59071504E+00</totfact>
</mgrwt>
</event>
<event>
 6    1  0.1568961E-005  0.2265601E+04  0.7818608E-02  0.8491609E-01
          2   -1    0    0  501    0  0.00000000000E+00  0.00000000000E+00  0.22646567120E+04  0.22646567120E+04  0.00000000000E+00 0. -1.
         -2   -1    0    0    0  501 -0.00000000000E+00 -0.00000000000E+00 -0.56663652414E+03  0.56663652414E+03  0.00000000000E+00 0.  1.
         23    2    1    2    0    0 -0.76505475829E+03  0.82980369274E+03  0.76105871586E+03  0.13643986416E+04  0.92142999945E+02 0.  0.
         13    1    3    3    0    0 -0.23543718344E+03  0.31748872033E+03  0.25077653514E+03  0.46810108466E+03  0.00000000000E+00 0.  1.
        -13    1    3    3    0    0 -0.52961757484E+03  0.51231497240E+03  0.51028218072E+03  0.89629755689E+03  0.00000000000E+00 0. -1.
         22    1    1    2    0    0  0.76505475829E+03 -0.82980369274E+03  0.93696147204E+03  0.14668945946E+04  0.00000000000E+00 0. -1.
<mgrwt>
<rscale>  0 0.22656012E+04</rscale>
<asrwt>0</asrwt>
<pdfrwt beam="1">  1        2 0.34840872E+00 0.22656012E+04</pdfrwt>
<pdfrwt beam="2">  1       -2 0.87174851E-01 0.22656012E+04</pdfrwt>
<totfact> 0.49083322E+00</totfact>
</mgrwt>
</event>
<event>
 6    1  0.1568961E-005  0.3492115E+04  0.7818608E-02  0.8115661E-01
         -2   -1    0    0    0  501 -0.00000000000E+00  0.00000000000E+00  0.92856732190E+03  0.92856732190E+03  0.00000000000E+00 0.  1.
          2   -1    0    0  501    0  0.00000000000E+00 -0.00000000000E+00 -0.32832472922E+04  0.32832472922E+04  0.00000000000E+00 0. -1.
         23    2    1    2    0    0  0.13874957251E+04  0.90514476357E+03 -0.18388957161E+04  0.24767455011E+04  0.91100999385E+02 0.  0.
         13    1    3    3    0    0  0.81335903092E+03  0.55605926311E+03 -0.11515867074E+04  0.15155549353E+04  0.00000000000E+00 0.  1.
        -13    1    3    3    0    0  0.57413669418E+03  0.34908550046E+03 -0.68730900872E+03  0.96119056576E+03  0.00000000000E+00 0. -1.
         22    1    1    2    0    0 -0.13874957251E+04 -0.90514476357E+03 -0.51578425419E+03  0.17350691130E+04  0.00000000000E+00 0.  1.
<mgrwt>
<rscale>  0 0.34921146E+04</rscale>
<asrwt>0</asrwt>
<pdfrwt beam="1">  1        2 0.50511496E+00 0.34921146E+04</pdfrwt>
<pdfrwt beam="2">  1       -2 0.14285651E+00 0.34921146E+04</pdfrwt>
<totfact> 0.31980079E-01</totfact>
</mgrwt>
</event>
<event>
 6    1  0.1568961E-005  0.3076941E+04  0.7818608E-02  0.8222095E-01
          2   -1    0    0  501    0  0.00000000000E+00  0.00000000000E+00  0.26657085043E+04  0.26657085043E+04  0.00000000000E+00 0. -1.
         -2   -1    0    0    0  501 -0.00000000000E+00 -0.00000000000E+00 -0.88790351635E+03  0.88790351635E+03  0.00000000000E+00 0.  1.
         23    2    1    2    0    0  0.80478665817E+03  0.12677908052E+04  0.12689706309E+04  0.19680876614E+04  0.90041601782E+02 0.  0.
         13    1    3    3    0    0  0.30418754926E+03  0.56194548514E+03  0.54388194119E+03  0.83911879930E+03  0.00000000000E+00 0. -1.
        -13    1    3    3    0    0  0.50059910891E+03  0.70584532004E+03  0.72508868969E+03  0.11289688621E+04  0.00000000000E+00 0.  1.
         22    1    1    2    0    0 -0.80478665817E+03 -0.12677908052E+04  0.50883435707E+03  0.15855243593E+04  0.00000000000E+00 0.  1.
<mgrwt>
<rscale>  0 0.30769413E+04</rscale>
<asrwt>0</asrwt>
<pdfrwt beam="1">  1        2 0.41010900E+00 0.30769413E+04</pdfrwt>
<pdfrwt beam="2">  1       -2 0.13660054E+00 0.30769413E+04</pdfrwt>
<totfact> 0.90590202E-01</totfact>
</mgrwt>
</event>
<event>
 6    1  0.1568961E-005  0.3142459E+04  0.7818608E-02  0.8204181E-01
          2   -1    0    0  501    0  0.00000000000E+00  0.00000000000E+00  0.20980087233E+04  0.20980087233E+04  0.00000000000E+00 0. -1.
         -2   -1    0    0    0  501 -0.00000000000E+00 -0.00000000000E+00 -0.11767166666E+04  0.11767166666E+04  0.00000000000E+00 0.  1.
         23    2    1    2    0    0  0.80835136450E+03  0.51678850269E+03  0.17558484993E+04  0.20031174546E+04  0.94727501926E+02 0.  0.
         13    1    3    3    0    0  0.61140048397E+03  0.43697386894E+03  0.13579192388E+04  0.15519991537E+04  0.00000000000E+00 0.  1.
        -13    1    3    3    0    0  0.19695088053E+03  0.79814633747E+02  0.39792926048E+03  0.45111830094E+03  0.00000000000E+00 0. -1.
         22    1    1    2    0    0 -0.80835136450E+03 -0.51678850269E+03 -0.83455644267E+03  0.12716079353E+04  0.00000000000E+00 0.  1.
<mgrwt>
<rscale>  0 0.31424588E+04</rscale>
<asrwt>0</asrwt>
<pdfrwt beam="1">  1        2 0.32277057E+00 0.31424588E+04</pdfrwt>
<pdfrwt beam="2">  1       -2 0.18103333E+00 0.31424588E+04</pdfrwt>
<totfact> 0.88906844E-01</totfact>
</mgrwt>
</event>
<event>
 6    1  0.1568961E-005  0.1928083E+04  0.7818608E-02  0.8641003E-01
          2   -1    0    0  501    0  0.00000000000E+00  0.00000000000E+00  0.17444136957E+04  0.17444136957E+04  0.00000000000E+00 0. -1.
         -2   -1    0    0    0  501 -0.00000000000E+00 -0.00000000000E+00 -0.53277249105E+03  0.53277249105E+03  0.00000000000E+00 0.  1.
         23    2    1    2    0    0  0.72901255932E+03  0.61647273715E+03  0.46897180391E+03  0.10676177570E+04  0.91515982228E+02 0.  0.
         11    1    3    3    0    0  0.28431865113E+03  0.24075146059E+03  0.13376967819E+03  0.39584427236E+03  0.00000000000E+00 0.  1.
        -11    1    3    3    0    0  0.44469390819E+03  0.37572127656E+03  0.33520212572E+03  0.67177348469E+03  0.00000000000E+00 0. -1.
         22    1    1    2    0    0 -0.72901255932E+03 -0.61647273715E+03  0.74266940070E+03  0.12095684297E+04  0.00000000000E+00 0. -1.
<mgrwt>
<rscale>  0 0.19280826E+04</rscale>
<asrwt>0</asrwt>
<pdfrwt beam="1">  1        2 0.26837134E+00 0.19280826E+04</pdfrwt>
<pdfrwt beam="2">  1       -2 0.81964999E-01 0.19280826E+04</pdfrwt>
<totfact> 0.11328564E+01</totfact>
</mgrwt>
</event>
<event>
 6    1  0.1568961E-005  0.1433656E+04  0.7818608E-02  0.8929811E-01
         -2   -1    0    0    0  501 -0.00000000000E+00  0.00000000000E+00  0.17348127006E+04  0.17348127006E+04  0.00000000000E+00 0.  1.
          2   -1    0    0  501    0  0.00000000000E+00 -0.00000000000E+00 -0.29619459709E+03  0.29619459709E+03  0.00000000000E+00 0. -1.
         23    2    1    2    0    0  0.61925510090E+03  0.24619097231E+03  0.10850722126E+04  0.12766323433E+04  0.91222577280E+02 0.  0.
         13    1    3    3    0    0  0.16974763196E+03  0.11046207838E+03  0.35071607939E+03  0.40499123158E+03  0.00000000000E+00 0.  1.
        -13    1    3    3    0    0  0.44950746894E+03  0.13572889393E+03  0.73435613319E+03  0.87164111171E+03  0.00000000000E+00 0. -1.
         22    1    1    2    0    0 -0.61925510090E+03 -0.24619097231E+03  0.35354589095E+03  0.75437495442E+03  0.00000000000E+00 0. -1.
<mgrwt>
<rscale>  0 0.14336557E+04</rscale>
<asrwt>0</asrwt>
<pdfrwt beam="1">  1        2 0.45568401E-01 0.14336557E+04</pdfrwt>
<pdfrwt beam="2">  1       -2 0.26689425E+00 0.14336557E+04</pdfrwt>
<totfact> 0.54857385E+00</totfact>
</mgrwt>
</event>
<event>
 6    1  0.1568961E-005  0.2677761E+04  0.7818608E-02  0.8342257E-01
         -1   -1    0    0    0  501 -0.00000000000E+00  0.00000000000E+00  0.81376881133E+03  0.81376881133E+03  0.00000000000E+00 0.  1.
          1   -1    0    0  501    0  0.00000000000E+00 -0.00000000000E+00 -0.22028387127E+04  0.22028387127E+04  0.00000000000E+00 0. -1.
         23    2    1    2    0    0  0.11237601475E+04  0.33228186658E+03 -0.14213105690E+04  0.18443074052E+04  0.89988684704E+02 0.  0.
         13    1    3    3    0    0  0.87692209908E+03  0.29424738958E+03 -0.11425046474E+04  0.14699968583E+04  0.00000000000E+00 0. -1.
        -13    1    3    3    0    0  0.24683804847E+03  0.38034476997E+02 -0.27880592151E+03  0.37431054685E+03  0.00000000000E+00 0.  1.
         22    1    1    2    0    0 -0.11237601475E+04 -0.33228186658E+03  0.32240667533E+02  0.11723001189E+04  0.00000000000E+00 0. -1.
<mgrwt>
<rscale>  0 0.26777613E+04</rscale>
<asrwt>0</asrwt>
<pdfrwt beam="1">  1        1 0.33889826E+00 0.26777613E+04</pdfrwt>
<pdfrwt beam="2">  1       -1 0.12519520E+00 0.26777613E+04</pdfrwt>
<totfact> 0.10574025E+00</totfact>
</mgrwt>
</event>
<event>
 6    1  0.1568961E-005  0.1913377E+04  0.7818608E-02  0.8648226E-01
          2   -1    0    0  501    0  0.00000000000E+00  0.00000000000E+00  0.10821546426E+04  0.10821546426E+04  0.00000000000E+00 0. -1.
         -2   -1    0    0    0  501 -0.00000000000E+00 -0.00000000000E+00 -0.84576915293E+03  0.84576915293E+03  0.00000000000E+00 0.  1.
         23    2    1    2    0    0 -0.35600820912E+03  0.72178927531E+03 -0.39862736718E+03  0.90275896427E+03  0.91369397453E+02 0.  0.
         11    1    3    3    0    0 -0.10855780985E+03  0.26388229745E+03 -0.98071171274E+02  0.30172275291E+03  0.00000000000E+00 0. -1.
        -11    1    3    3    0    0 -0.24745039927E+03  0.45790697787E+03 -0.30055619591E+03  0.60103621136E+03  0.00000000000E+00 0.  1.
         22    1    1    2    0    0  0.35600820912E+03 -0.72178927531E+03  0.63501285689E+03  0.10251648313E+04  0.00000000000E+00 0. -1.
<mgrwt>
<rscale>  0 0.19133771E+04</rscale>
<asrwt>0</asrwt>
<pdfrwt beam="1">  1        2 0.16648533E+00 0.19133771E+04</pdfrwt>
<pdfrwt beam="2">  1       -2 0.13011833E+00 0.19133771E+04</pdfrwt>
<totfact> 0.90601932E+00</totfact>
</mgrwt>
</event>
<event>
 6    1  0.1568961E-005  0.9837154E+03  0.7818608E-02  0.9326588E-01
          2   -1    0    0  501    0  0.00000000000E+00  0.00000000000E+00  0.52000489370E+03  0.52000489370E+03  0.00000000000E+00 0. -1.
         -2   -1    0    0    0  501 -0.00000000000E+00 -0.00000000000E+00 -0.46523407856E+03  0.46523407856E+03  0.00000000000E+00 0.  1.
         23    2    1    2    0    0  0.54923916666E+02  0.46745752807E+03 -0.91775720303E+02  0.49227947674E+03  0.11127948242E+03 0.  0.
         11    1    3    3    0    0  0.23821396814E+02  0.14312890108E+03  0.22853715557E+02  0.14688646495E+03  0.00000000000E+00 0.  1.
        -11    1    3    3    0    0  0.31102519852E+02  0.32432862699E+03 -0.11462943586E+03  0.34539301178E+03  0.00000000000E+00 0. -1.
         22    1    1    2    0    0 -0.54923916666E+02 -0.46745752807E+03  0.14654653545E+03  0.49295949552E+03  0.00000000000E+00 0.  1.
<mgrwt>
<rscale>  0 0.98371540E+03</rscale>
<asrwt>0</asrwt>
<pdfrwt beam="1">  1        2 0.80000753E-01 0.98371540E+03</pdfrwt>
<pdfrwt beam="2">  1       -2 0.71574474E-01 0.98371540E+03</pdfrwt>
<totfact> 0.10413991E+02</totfact>
</mgrwt>
</event>
<event>
 6    1  0.1664832E-005  0.3167494E+04  0.7818608E-02  0.8197455E-01
          2   -1    0    0  501    0  0.00000000000E+00  0.00000000000E+00  0.14780872201E+04  0.14780872201E+04  0.00000000000E+00 0. -1.
         -2   -1    0    0    0  501 -0.00000000000E+00 -0.00000000000E+00 -0.16969595138E+04  0.16969595138E+04  0.00000000000E+00 0.  1.
         23    2    1    2    0    0 -0.48990879131E+03  0.35287008269E+03  0.13566850345E+04  0.14877682111E+04  0.91280053102E+02 0.  0.
         13    1    3    3    0    0 -0.17057341536E+03  0.13372951127E+03  0.38633446827E+03  0.44298215944E+03  0.00000000000E+00 0.  1.
        -13    1    3    3    0    0 -0.31933537596E+03  0.21914057142E+03  0.97035056620E+03  0.10447860516E+04  0.00000000000E+00 0. -1.
         22    1    1    2    0    0  0.48990879131E+03 -0.35287008269E+03 -0.15755573282E+04  0.16872785228E+04  0.00000000000E+00 0.  1.
<mgrwt>
<rscale>  0 0.31674938E+04</rscale>
<asrwt>0</asrwt>
<pdfrwt beam="1">  1        2 0.22739803E+00 0.31674938E+04</pdfrwt>
<pdfrwt beam="2">  1       -2 0.26107069E+00 0.31674938E+04</pdfrwt>
<totfact> 0.60607803E-01</totfact>
</mgrwt>
</event>
<event>
 6    1  0.1568961E-005  0.5634186E+03  0.7818608E-02  0.9984349E-01
          2   -1    0    0  501    0  0.00000000000E+00  0.00000000000E+00  0.19544850639E+03  0.19544850639E+03  0.00000000000E+00 0. -1.
         -2   -1    0    0    0  501 -0.00000000000E+00 -0.00000000000E+00 -0.40604115426E+03  0.40604115426E+03  0.00000000000E+00 0.  1.
         23    2    1    2    0    0 -0.17059509484E+03 -0.15406916034E+03 -0.26815218859E+03  0.36452322151E+03  0.90175330467E+02 0.  0.
         13    1    3    3    0    0 -0.15091691886E+03 -0.15665379991E+03 -0.26734614000E+03  0.34465966982E+03  0.00000000000E+00 0.  1.
        -13    1    3    3    0    0 -0.19678175977E+02  0.25846395759E+01 -0.80604858917E+00  0.19863551692E+02  0.00000000000E+00 0. -1.
         22    1    1    2    0    0  0.17059509484E+03  0.15406916034E+03  0.57559540721E+02  0.23696643914E+03  0.00000000000E+00 0. -1.
<mgrwt>
<rscale>  0 0.56341863E+03</rscale>
<asrwt>0</asrwt>
<pdfrwt beam="1">  1        2 0.30069001E-01 0.56341863E+03</pdfrwt>
<pdfrwt beam="2">  1       -2 0.62467870E-01 0.56341863E+03</pdfrwt>
<totfact> 0.42595479E+02</totfact>
</mgrwt>
</event>
<event>
 6    1  0.1568961E-005  0.5154534E+04  0.7818608E-02  0.7805101E-01
          2   -1    0    0  501    0  0.00000000000E+00  0.00000000000E+00  0.24889963187E+04  0.24889963187E+04  0.00000000000E+00 0.  1.
         -2   -1    0    0    0  501 -0.00000000000E+00 -0.00000000000E+00 -0.26686686132E+04  0.26686686132E+04  0.00000000000E+00 0. -1.
         23    2    1    2    0    0  0.91011307741E+03  0.24101682683E+04 -0.12168142341E+03  0.25807326790E+04  0.90321072563E+02 0.  0.
         11    1    3    3    0    0  0.79678680696E+03  0.20274220173E+04 -0.88153553778E+02  0.21801560268E+04  0.00000000000E+00 0. -1.
        -11    1    3    3    0    0  0.11332627045E+03  0.38274625099E+03 -0.33527869633E+02  0.40057665217E+03  0.00000000000E+00 0.  1.
         22    1    1    2    0    0 -0.91011307741E+03 -0.24101682683E+04 -0.57990871068E+02  0.25769322530E+04  0.00000000000E+00 0. -1.
<mgrwt>
<rscale>  0 0.51545345E+04</rscale>
<asrwt>0</asrwt>
<pdfrwt beam="1">  1        2 0.38292251E+00 0.51545345E+04</pdfrwt>
<pdfrwt beam="2">  1       -2 0.41056440E+00 0.51545345E+04</pdfrwt>
<totfact> 0.16094014E-02</totfact>
</mgrwt>
</event>
<event>
 6    1  0.1568961E-005  0.5572730E+04  0.7818608E-02  0.7745760E-01
         -2   -1    0    0    0  501 -0.00000000000E+00  0.00000000000E+00  0.21543862185E+04  0.21543862185E+04  0.00000000000E+00 0. -1.
          2   -1    0    0  501    0  0.00000000000E+00 -0.00000000000E+00 -0.36037312411E+04  0.36037312411E+04  0.00000000000E+00 0.  1.
         23    2    1    2    0    0 -0.72355900271E+03 -0.26436091085E+04 -0.20918857271E+03  0.27497632968E+04  0.72329665097E+02 0.  0.
         13    1    3    3    0    0 -0.35985390625E+03 -0.11878111243E+04 -0.10788450442E+03  0.12458046264E+04  0.00000000000E+00 0.  1.
        -13    1    3    3    0    0 -0.36370509646E+03 -0.14557979842E+04 -0.10130406829E+03  0.15039586704E+04  0.00000000000E+00 0. -1.
         22    1    1    2    0    0  0.72355900271E+03  0.26436091085E+04 -0.12401564498E+04  0.30083541628E+04  0.00000000000E+00 0.  1.
<mgrwt>
<rscale>  0 0.55727296E+04</rscale>
<asrwt>0</asrwt>
<pdfrwt beam="1">  1        2 0.55442019E+00 0.55727296E+04</pdfrwt>
<pdfrwt beam="2">  1       -2 0.33144404E+00 0.55727296E+04</pdfrwt>
<totfact> 0.96829093E-03</totfact>
</mgrwt>
</event>
<event>
 6    1  0.1568961E-005  0.1837133E+04  0.7818608E-02  0.8686798E-01
          2   -1    0    0  501    0  0.00000000000E+00  0.00000000000E+00  0.12091780687E+04  0.12091780687E+04  0.00000000000E+00 0. -1.
         -2   -1    0    0    0  501 -0.00000000000E+00 -0.00000000000E+00 -0.69779980912E+03  0.69779980912E+03  0.00000000000E+00 0.  1.
         23    2    1    2    0    0  0.23999061451E+03  0.44410481245E+03 -0.53538842832E+03  0.74484833323E+03  0.11547160188E+03 0.  0.
         11    1    3    3    0    0  0.61645892565E+02  0.34787540285E+02 -0.85741751631E+02  0.11118469770E+03  0.00000000000E+00 0.  1.
        -11    1    3    3    0    0  0.17834472195E+03  0.40931727217E+03 -0.44964667669E+03  0.63366363553E+03  0.00000000000E+00 0. -1.
         22    1    1    2    0    0 -0.23999061451E+03 -0.44410481245E+03  0.10467666879E+04  0.11621295446E+04  0.00000000000E+00 0. -1.
<mgrwt>
<rscale>  0 0.18371328E+04</rscale>
<asrwt>0</asrwt>
<pdfrwt beam="1">  1        2 0.18602740E+00 0.18371328E+04</pdfrwt>
<pdfrwt beam="2">  1       -2 0.10735382E+00 0.18371328E+04</pdfrwt>
<totfact> 0.12270382E+01</totfact>
</mgrwt>
</event>
<event>
 6    1  0.1568961E-005  0.1749039E+04  0.7818608E-02  0.8733879E-01
         -2   -1    0    0    0  501 -0.00000000000E+00  0.00000000000E+00  0.43181984845E+03  0.43181984845E+03  0.00000000000E+00 0.  1.
          2   -1    0    0  501    0  0.00000000000E+00 -0.00000000000E+00 -0.17710734101E+04  0.17710734101E+04  0.00000000000E+00 0. -1.
         23    2    1    2    0    0 -0.56723123419E+03  0.63983867876E+03 -0.45421595834E+03  0.97226887754E+03  0.88599241219E+02 0.  0.
         13    1    3    3    0    0 -0.36533712807E+03  0.36074765689E+03 -0.30212195723E+03  0.59572457238E+03  0.00000000000E+00 0. -1.
        -13    1    3    3    0    0 -0.20189410613E+03  0.27909102187E+03 -0.15209400111E+03  0.37654430516E+03  0.00000000000E+00 0.  1.
         22    1    1    2    0    0  0.56723123419E+03 -0.63983867876E+03 -0.88503760333E+03  0.12306243810E+04  0.00000000000E+00 0.  1.
<mgrwt>
<rscale>  0 0.17490393E+04</rscale>
<asrwt>0</asrwt>
<pdfrwt beam="1">  1        2 0.27247283E+00 0.17490393E+04</pdfrwt>
<pdfrwt beam="2">  1       -2 0.66433823E-01 0.17490393E+04</pdfrwt>
<totfact> 0.17675324E+01</totfact>
</mgrwt>
</event>
<event>
 6    1  0.1568961E-005  0.2020492E+04  0.7818608E-02  0.8597099E-01
         -1   -1    0    0    0  501 -0.00000000000E+00  0.00000000000E+00  0.72270607144E+03  0.72270607144E+03  0.00000000000E+00 0.  1.
          1   -1    0    0  501    0  0.00000000000E+00 -0.00000000000E+00 -0.14121882722E+04  0.14121882722E+04  0.00000000000E+00 0. -1.
         23    2    1    2    0    0 -0.65971015897E+02 -0.73099388925E+03 -0.10757557354E+04  0.13054900487E+04  0.91376276053E+02 0.  0.
         11    1    3    3    0    0 -0.75614342469E+02 -0.36188626828E+03 -0.50991049361E+03  0.62983165326E+03  0.00000000000E+00 0.  1.
        -11    1    3    3    0    0  0.96433265724E+01 -0.36910762097E+03 -0.56584524180E+03  0.67565839540E+03  0.00000000000E+00 0. -1.
         22    1    1    2    0    0  0.65971015897E+02  0.73099388925E+03  0.38627353461E+03  0.82940429502E+03  0.00000000000E+00 0.  1.
<mgrwt>
<rscale>  0 0.20204921E+04</rscale>
<asrwt>0</asrwt>
<pdfrwt beam="1">  1        1 0.21725973E+00 0.20204921E+04</pdfrwt>
<pdfrwt beam="2">  1       -1 0.11118555E+00 0.20204921E+04</pdfrwt>
<totfact> 0.51899819E+00</totfact>
</mgrwt>
</event>
<event>
 6    1  0.1568961E-005  0.3380169E+04  0.7818608E-02  0.8142791E-01
         -1   -1    0    0    0  501 -0.00000000000E+00  0.00000000000E+00  0.27510952199E+04  0.27510952199E+04  0.00000000000E+00 0.  1.
          1   -1    0    0  501    0  0.00000000000E+00 -0.00000000000E+00 -0.10382720324E+04  0.10382720324E+04  0.00000000000E+00 0. -1.
         23    2    1    2    0    0  0.14235564062E+04  0.73597559936E+03  0.14545031081E+04  0.21661290727E+04  0.91449131571E+02 0.  0.
         11    1    3    3    0    0  0.62760412162E+03  0.27358593512E+03  0.62245465172E+03  0.92530318860E+03  0.00000000000E+00 0.  1.
        -11    1    3    3    0    0  0.79595228454E+03  0.46238966424E+03  0.83204845640E+03  0.12408258841E+04  0.00000000000E+00 0. -1.
         22    1    1    2    0    0 -0.14235564062E+04 -0.73597559936E+03  0.25832007932E+03  0.16232381796E+04  0.00000000000E+00 0.  1.
<mgrwt>
<rscale>  0 0.33801688E+04</rscale>
<asrwt>0</asrwt>
<pdfrwt beam="1">  1        1 0.15973416E+00 0.33801688E+04</pdfrwt>
<pdfrwt beam="2">  1       -1 0.42324541E+00 0.33801688E+04</pdfrwt>
<totfact> 0.57602671E-02</totfact>
</mgrwt>
</event>
<event>
 6    1  0.1568961E-005  0.2122386E+04  0.7818608E-02  0.8551446E-01
         -1   -1    0    0    0  501 -0.00000000000E+00  0.00000000000E+00  0.83656753598E+03  0.83656753598E+03  0.00000000000E+00 0.  1.
          1   -1    0    0  501    0  0.00000000000E+00 -0.00000000000E+00 -0.13461324835E+04  0.13461324835E+04  0.00000000000E+00 0. -1.
         23    2    1    2    0    0 -0.10346337256E+04 -0.10934642053E+03 -0.45973678947E+03  0.11411116021E+04  0.91401242276E+02 0.  0.
         13    1    3    3    0    0 -0.53827717314E+03 -0.35893227402E+02 -0.28252314023E+03  0.60897451807E+03  0.00000000000E+00 0. -1.
        -13    1    3    3    0    0 -0.49635655247E+03 -0.73453193123E+02 -0.17721364924E+03  0.53213708407E+03  0.00000000000E+00 0.  1.
         22    1    1    2    0    0  0.10346337256E+04  0.10934642053E+03 -0.49828158077E+02  0.10415884174E+04  0.00000000000E+00 0.  1.
<mgrwt>
<rscale>  0 0.21223861E+04</rscale>
<asrwt>0</asrwt>
<pdfrwt beam="1">  1        1 0.20709730E+00 0.21223861E+04</pdfrwt>
<pdfrwt beam="2">  1       -1 0.12870270E+00 0.21223861E+04</pdfrwt>
<totfact> 0.40041748E+00</totfact>
</mgrwt>
</event>
<event>
 6    1  0.1568961E-005  0.1766071E+04  0.7818608E-02  0.8724554E-01
         -2   -1    0    0    0  501 -0.00000000000E+00  0.00000000000E+00  0.25885510003E+03  0.25885510003E+03  0.00000000000E+00 0.  1.
          2   -1    0    0  501    0  0.00000000000E+00 -0.00000000000E+00 -0.30123083923E+04  0.30123083923E+04  0.00000000000E+00 0. -1.
         23    2    1    2    0    0  0.67208782187E+03 -0.51987798915E+03 -0.95220546786E+03  0.12795639119E+04  0.92808338251E+02 0.  0.
         13    1    3    3    0    0  0.55179476489E+03 -0.37977626733E+03 -0.73408558001E+03  0.99377518311E+03  0.00000000000E+00 0. -1.
        -13    1    3    3    0    0  0.12029305698E+03 -0.14010172182E+03 -0.21811988784E+03  0.28578872876E+03  0.00000000000E+00 0.  1.
         22    1    1    2    0    0 -0.67208782187E+03  0.51987798915E+03 -0.18012478244E+04  0.19915995804E+04  0.00000000000E+00 0. -1.
<mgrwt>
<rscale>  0 0.17660707E+04</rscale>
<asrwt>0</asrwt>
<pdfrwt beam="1">  1        2 0.46343210E+00 0.17660707E+04</pdfrwt>
<pdfrwt beam="2">  1       -2 0.39823858E-01 0.17660707E+04</pdfrwt>
<totfact> 0.97004872E+00</totfact>
</mgrwt>
</event>
<event>
 6    1  0.1568961E-005  0.9836559E+03  0.7818608E-02  0.9326655E-01
         -1   -1    0    0    0  501 -0.00000000000E+00  0.00000000000E+00  0.55672035366E+03  0.55672035366E+03  0.00000000000E+00 0.  1.
          1   -1    0    0  501    0  0.00000000000E+00 -0.00000000000E+00 -0.43449954028E+03  0.43449954028E+03  0.00000000000E+00 0. -1.
         23    2    1    2    0    0  0.67586261119E+02  0.96732503699E+02  0.53837496844E+03  0.55865849860E+03  0.91250377841E+02 0.  0.
         13    1    3    3    0    0  0.82123753882E+02  0.59915284130E+02  0.29353845234E+03  0.31064284191E+03  0.00000000000E+00 0.  1.
        -13    1    3    3    0    0 -0.14537492763E+02  0.36817219569E+02  0.24483651610E+03  0.24801565670E+03  0.00000000000E+00 0. -1.
         22    1    1    2    0    0 -0.67586261119E+02 -0.96732503699E+02 -0.41615415506E+03  0.43256139534E+03  0.00000000000E+00 0. -1.
<mgrwt>
<rscale>  0 0.98365591E+03</rscale>
<asrwt>0</asrwt>
<pdfrwt beam="1">  1        1 0.66846083E-01 0.98365591E+03</pdfrwt>
<pdfrwt beam="2">  1       -1 0.85649285E-01 0.98365591E+03</pdfrwt>
<totfact> 0.72605202E+01</totfact>
</mgrwt>
</event>
<event>
 6    1  0.1568961E-005  0.2318027E+04  0.7818608E-02  0.8470847E-01
          1   -1    0    0  501    0  0.00000000000E+00  0.00000000000E+00  0.11831143296E+04  0.11831143296E+04  0.00000000000E+00 0. -1.
         -1   -1    0    0    0  501 -0.00000000000E+00 -0.00000000000E+00 -0.11354038303E+04  0.11354038303E+04  0.00000000000E+00 0.  1.
         23    2    1    2    0    0  0.25412410681E+03 -0.54612915862E+03 -0.96434938663E+03  0.11407654981E+04  0.92412458823E+02 0.  0.
         11    1    3    3    0    0  0.18921215189E+03 -0.33784720329E+03 -0.67789903832E+03  0.78069781436E+03  0.00000000000E+00 0. -1.
        -11    1    3    3    0    0  0.64911954917E+02 -0.20828195533E+03 -0.28645034832E+03  0.36006768372E+03  0.00000000000E+00 0.  1.
         22    1    1    2    0    0 -0.25412410681E+03  0.54612915862E+03  0.10120598859E+04  0.11777526617E+04  0.00000000000E+00 0. -1.
<mgrwt>
<rscale>  0 0.23180272E+04</rscale>
<asrwt>0</asrwt>
<pdfrwt beam="1">  1        1 0.18201759E+00 0.23180272E+04</pdfrwt>
<pdfrwt beam="2">  1       -1 0.17467751E+00 0.23180272E+04</pdfrwt>
<totfact> 0.22567148E+00</totfact>
</mgrwt>
</event>
<event>
 6    1  0.1568961E-005  0.2002184E+04  0.7818608E-02  0.8605600E-01
         -2   -1    0    0    0  501 -0.00000000000E+00  0.00000000000E+00  0.12531918859E+04  0.12531918859E+04  0.00000000000E+00 0. -1.
          2   -1    0    0  501    0  0.00000000000E+00 -0.00000000000E+00 -0.79970596552E+03  0.79970596552E+03  0.00000000000E+00 0.  1.
         23    2    1    2    0    0  0.92521348690E+03 -0.79746951889E+02 -0.15034795768E+03  0.94519982172E+03  0.91753048552E+02 0.  0.
         13    1    3    3    0    0  0.25579093071E+03 -0.61917391430E+02 -0.31169917817E+02  0.26501759823E+03  0.00000000000E+00 0.  1.
        -13    1    3    3    0    0  0.66942255620E+03 -0.17829560459E+02 -0.11917803986E+03  0.68018222349E+03  0.00000000000E+00 0. -1.
         22    1    1    2    0    0 -0.92521348690E+03  0.79746951889E+02  0.60383387804E+03  0.11076980297E+04  0.00000000000E+00 0. -1.
<mgrwt>
<rscale>  0 0.20021838E+04</rscale>
<asrwt>0</asrwt>
<pdfrwt beam="1">  1        2 0.12303169E+00 0.20021838E+04</pdfrwt>
<pdfrwt beam="2">  1       -2 0.19279875E+00 0.20021838E+04</pdfrwt>
<totfact> 0.47498557E+00</totfact>
</mgrwt>
</event>
<event>
 6    1  0.1568961E-005  0.1685697E+04  0.7818608E-02  0.8769564E-01
          2   -1    0    0  501    0  0.00000000000E+00  0.00000000000E+00  0.34514818527E+04  0.34514818527E+04  0.00000000000E+00 0. -1.
         -2   -1    0    0    0  501 -0.00000000000E+00 -0.00000000000E+00 -0.20582272895E+03  0.20582272895E+03  0.00000000000E+00 0.  1.
         23    2    1    2    0    0 -0.70267900334E+03  0.31557485896E+02  0.63088847208E+03  0.94957874297E+03  0.94476813248E+02 0.  0.
         11    1    3    3    0    0 -0.48295782126E+03 -0.21681610248E+02  0.43978245743E+03  0.65354950785E+03  0.00000000000E+00 0. -1.
        -11    1    3    3    0    0 -0.21972118207E+03  0.53239096144E+02  0.19110601465E+03  0.29602923512E+03  0.00000000000E+00 0.  1.
         22    1    1    2    0    0  0.70267900334E+03 -0.31557485896E+02  0.26147706517E+04  0.27077258387E+04  0.00000000000E+00 0. -1.
<mgrwt>
<rscale>  0 0.16856968E+04</rscale>
<asrwt>0</asrwt>
<pdfrwt beam="1">  1        2 0.53099717E+00 0.16856968E+04</pdfrwt>
<pdfrwt beam="2">  1       -2 0.31665038E-01 0.16856968E+04</pdfrwt>
<totfact> 0.78317200E+00</totfact>
</mgrwt>
</event>
<event>
 6    1  0.1568961E-005  0.1444482E+04  0.7818608E-02  0.8922235E-01
          1   -1    0    0  501    0  0.00000000000E+00  0.00000000000E+00  0.65002944364E+03  0.65002944364E+03  0.00000000000E+00 0. -1.
         -1   -1    0    0    0  501 -0.00000000000E+00 -0.00000000000E+00 -0.80247420165E+03  0.80247420165E+03  0.00000000000E+00 0.  1.
         23    2    1    2    0    0 -0.10368901372E+03  0.39683390926E+03  0.51774782128E+03  0.66676408511E+03  0.91010854592E+02 0.  0.
         11    1    3    3    0    0  0.11694760135E+02  0.97211927214E+02  0.14261899117E+03  0.17299451682E+03  0.00000000000E+00 0.  1.
        -11    1    3    3    0    0 -0.11538377386E+03  0.29962198204E+03  0.37512883011E+03  0.49376956829E+03  0.00000000000E+00 0. -1.
         22    1    1    2    0    0  0.10368901372E+03 -0.39683390926E+03 -0.67019257929E+03  0.78573956018E+03  0.00000000000E+00 0.  1.
<mgrwt>
<rscale>  0 0.14444817E+04</rscale>
<asrwt>0</asrwt>
<pdfrwt beam="1">  1        1 0.10000453E+00 0.14444817E+04</pdfrwt>
<pdfrwt beam="2">  1       -1 0.12345757E+00 0.14444817E+04</pdfrwt>
<totfact> 0.17084825E+01</totfact>
</mgrwt>
</event>
<event>
 6    1  0.1568961E-005  0.2061162E+04  0.7818608E-02  0.8578548E-01
         -1   -1    0    0    0  501 -0.00000000000E+00  0.00000000000E+00  0.10962020074E+04  0.10962020074E+04  0.00000000000E+00 0.  1.
          1   -1    0    0  501    0  0.00000000000E+00 -0.00000000000E+00 -0.96888791156E+03  0.96888791156E+03  0.00000000000E+00 0. -1.
         23    2    1    2    0    0  0.10558253590E+03 -0.90260597350E+03 -0.41918880366E+03  0.10046604614E+04  0.88193958537E+02 0.  0.
         11    1    3    3    0    0  0.78751637955E+02 -0.38135680392E+03 -0.20942797431E+03  0.44214806207E+03  0.00000000000E+00 0. -1.
        -11    1    3    3    0    0  0.26830897949E+02 -0.52124916958E+03 -0.20976082936E+03  0.56251239934E+03  0.00000000000E+00 0.  1.
         22    1    1    2    0    0 -0.10558253590E+03  0.90260597350E+03  0.54650289951E+03  0.10604294576E+04  0.00000000000E+00 0.  1.
<mgrwt>
<rscale>  0 0.20611617E+04</rscale>
<asrwt>0</asrwt>
<pdfrwt beam="1">  1        1 0.14905968E+00 0.20611617E+04</pdfrwt>
<pdfrwt beam="2">  1       -1 0.16864646E+00 0.20611617E+04</pdfrwt>
<totfact> 0.37198411E+00</totfact>
</mgrwt>
</event>
<event>
 6    1  0.1568961E-005  0.2608068E+04  0.7818608E-02  0.8365466E-01
          1   -1    0    0  501    0  0.00000000000E+00  0.00000000000E+00  0.13764434387E+04  0.13764434387E+04  0.00000000000E+00 0. -1.
         -1   -1    0    0    0  501 -0.00000000000E+00 -0.00000000000E+00 -0.12354336274E+04  0.12354336274E+04  0.00000000000E+00 0.  1.
         23    2    1    2    0    0 -0.44817796102E+03 -0.20310142119E+03 -0.11371076249E+04  0.12423158761E+04  0.90671458568E+02 0.  0.
         13    1    3    3    0    0 -0.24800692198E+03 -0.15009040754E+03 -0.73307125357E+03  0.78830706364E+03  0.00000000000E+00 0.  1.
        -13    1    3    3    0    0 -0.20017103903E+03 -0.53011013650E+02 -0.40403637136E+03  0.45400881249E+03  0.00000000000E+00 0. -1.
         22    1    1    2    0    0  0.44817796102E+03  0.20310142119E+03  0.12781174363E+04  0.13695611900E+04  0.00000000000E+00 0. -1.
<mgrwt>
<rscale>  0 0.26080679E+04</rscale>
<asrwt>0</asrwt>
<pdfrwt beam="1">  1        1 0.21176053E+00 0.26080679E+04</pdfrwt>
<pdfrwt beam="2">  1       -1 0.19006671E+00 0.26080679E+04</pdfrwt>
<totfact> 0.12400858E+00</totfact>
</mgrwt>
</event>
<event>
 6    1  0.1568961E-005  0.2707751E+04  0.7818608E-02  0.8332495E-01
         -2   -1    0    0    0  501 -0.00000000000E+00  0.00000000000E+00  0.16678084624E+04  0.16678084624E+04  0.00000000000E+00 0.  1.
          2   -1    0    0  501    0  0.00000000000E+00 -0.00000000000E+00 -0.10990342009E+04  0.10990342009E+04  0.00000000000E+00 0. -1.
         23    2    1    2    0    0  0.22662323714E+03  0.11360085496E+04  0.99730039871E+03  0.15317280263E+04  0.98534992767E+02 0.  0.
         13    1    3    3    0    0  0.20219115401E+03  0.10619784997E+04  0.95786751823E+03  0.14443648358E+04  0.00000000000E+00 0. -1.
        -13    1    3    3    0    0  0.24432083126E+02  0.74030049931E+02  0.39432880478E+02  0.87363190426E+02  0.00000000000E+00 0.  1.
         22    1    1    2    0    0 -0.22662323714E+03 -0.11360085496E+04 -0.42852613716E+03  0.12351146370E+04  0.00000000000E+00 0. -1.
<mgrwt>
<rscale>  0 0.27077508E+04</rscale>
<asrwt>0</asrwt>
<pdfrwt beam="1">  1        2 0.16908218E+00 0.27077508E+04</pdfrwt>
<pdfrwt beam="2">  1       -2 0.25658592E+00 0.27077508E+04</pdfrwt>
<totfact> 0.11197537E+00</totfact>
</mgrwt>
</event>
<event>
 6    1  0.1568961E-005  0.1907500E+04  0.7818608E-02  0.8651132E-01
         -2   -1    0    0    0  501 -0.00000000000E+00  0.00000000000E+00  0.23681314162E+03  0.23681314162E+03  0.00000000000E+00 0.  1.
          2   -1    0    0  501    0  0.00000000000E+00 -0.00000000000E+00 -0.38411676653E+04  0.38411676653E+04  0.00000000000E+00 0. -1.
         23    2    1    2    0    0  0.76235325485E+03 -0.19904895268E+03 -0.29451802309E+04  0.30506961731E+04  0.10889250180E+03 0.  0.
         11    1    3    3    0    0  0.26741855315E+03 -0.12385016692E+03 -0.10706578931E+04  0.11104773165E+04  0.00000000000E+00 0. -1.
        -11    1    3    3    0    0  0.49493470170E+03 -0.75198785758E+02 -0.18745223378E+04  0.19402188565E+04  0.00000000000E+00 0.  1.
         22    1    1    2    0    0 -0.76235325485E+03  0.19904895268E+03 -0.65917429276E+03  0.10272846339E+04  0.00000000000E+00 0.  1.
<mgrwt>
<rscale>  0 0.19074999E+04</rscale>
<asrwt>0</asrwt>
<pdfrwt beam="1">  1        2 0.59094887E+00 0.19074999E+04</pdfrwt>
<pdfrwt beam="2">  1       -2 0.36432791E-01 0.19074999E+04</pdfrwt>
<totfact> 0.30634496E+00</totfact>
</mgrwt>
</event>
<event>
 6    1  0.1568961E-005  0.1403509E+04  0.7818608E-02  0.8951282E-01
          2   -1    0    0  501    0  0.00000000000E+00  0.00000000000E+00  0.21862686638E+04  0.21862686638E+04  0.00000000000E+00 0. -1.
         -2   -1    0    0    0  501 -0.00000000000E+00 -0.00000000000E+00 -0.22525106929E+03  0.22525106929E+03  0.00000000000E+00 0.  1.
         23    2    1    2    0    0 -0.45773304465E+03  0.10653392683E+03  0.18732085962E+04  0.19334199131E+04  0.91285801480E+02 0.  0.
         11    1    3    3    0    0 -0.12152452267E+02  0.21855583295E+02  0.11062572801E+03  0.11341693134E+03  0.00000000000E+00 0.  1.
        -11    1    3    3    0    0 -0.44558059238E+03  0.84678343531E+02  0.17625828682E+04  0.18200029817E+04  0.00000000000E+00 0. -1.
         22    1    1    2    0    0  0.45773304465E+03 -0.10653392683E+03  0.87808998298E+02  0.47809982003E+03  0.00000000000E+00 0.  1.
<mgrwt>
<rscale>  0 0.14035090E+04</rscale>
<asrwt>0</asrwt>
<pdfrwt beam="1">  1        2 0.33634901E+00 0.14035090E+04</pdfrwt>
<pdfrwt beam="2">  1       -2 0.34654012E-01 0.14035090E+04</pdfrwt>
<totfact> 0.39994520E+01</totfact>
</mgrwt>
</event>
<event>
 6    1  0.1568961E-005  0.3387345E+04  0.7818608E-02  0.8141019E-01
          1   -1    0    0  501    0  0.00000000000E+00  0.00000000000E+00  0.24587755437E+04  0.24587755437E+04  0.00000000000E+00 0. -1.
         -1   -1    0    0    0  501 -0.00000000000E+00 -0.00000000000E+00 -0.11666486730E+04  0.11666486730E+04  0.00000000000E+00 0.  1.
         23    2    1    2    0    0 -0.11391951628E+04 -0.58344282241E+03 -0.53861900450E+03  0.13916378336E+04  0.91511102344E+02 0.  0.
         11    1    3    3    0    0 -0.70102712391E+02 -0.40979717444E+02 -0.59188656260E+02  0.10048395173E+03  0.00000000000E+00 0. -1.
        -11    1    3    3    0    0 -0.10690924504E+04 -0.54246310497E+03 -0.47943034824E+03  0.12911538818E+04  0.00000000000E+00 0.  1.
         22    1    1    2    0    0  0.11391951628E+04  0.58344282241E+03  0.18307458752E+04  0.22337863832E+04  0.00000000000E+00 0.  1.
<mgrwt>
<rscale>  0 0.33873454E+04</rscale>
<asrwt>0</asrwt>
<pdfrwt beam="1">  1        1 0.37827316E+00 0.33873454E+04</pdfrwt>
<pdfrwt beam="2">  1       -1 0.17948441E+00 0.33873454E+04</pdfrwt>
<totfact> 0.25006846E-01</totfact>
</mgrwt>
</event>
<event>
 6    1  0.1568961E-005  0.1454009E+04  0.7818608E-02  0.8915626E-01
         -2   -1    0    0    0  501 -0.00000000000E+00  0.00000000000E+00  0.20846330827E+03  0.20846330827E+03  0.00000000000E+00 0.  1.
          2   -1    0    0  501    0  0.00000000000E+00 -0.00000000000E+00 -0.25353877610E+04  0.25353877610E+04  0.00000000000E+00 0. -1.
         23    2    1    2    0    0 -0.43053596158E+03  0.38638020939E+03 -0.19899640748E+04  0.20743787571E+04  0.91865818547E+02 0.  0.
         11    1    3    3    0    0 -0.27594378595E+03  0.30342836985E+03 -0.14156720979E+04  0.14738864398E+04  0.00000000000E+00 0. -1.
        -11    1    3    3    0    0 -0.15459217563E+03  0.82951839539E+02 -0.57429197691E+03  0.60049231735E+03  0.00000000000E+00 0.  1.
         22    1    1    2    0    0  0.43053596158E+03 -0.38638020939E+03 -0.33696037794E+03  0.66947231214E+03  0.00000000000E+00 0.  1.
<mgrwt>
<rscale>  0 0.14540087E+04</rscale>
<asrwt>0</asrwt>
<pdfrwt beam="1">  1        2 0.39005967E+00 0.14540087E+04</pdfrwt>
<pdfrwt beam="2">  1       -2 0.32071277E-01 0.14540087E+04</pdfrwt>
<totfact> 0.29217538E+01</totfact>
</mgrwt>
</event>
<event>
 6    1  0.1568961E-005  0.1693526E+04  0.7818608E-02  0.8765065E-01
         -2   -1    0    0    0  501 -0.00000000000E+00  0.00000000000E+00  0.21623777493E+03  0.21623777493E+03  0.00000000000E+00 0.  1.
          2   -1    0    0  501    0  0.00000000000E+00 -0.00000000000E+00 -0.33158306982E+04  0.33158306982E+04  0.00000000000E+00 0. -1.
         23    2    1    2    0    0 -0.63277406556E+03  0.30367475905E+03 -0.25331776935E+04  0.26301551791E+04  0.90031451526E+02 0.  0.
         11    1    3    3    0    0 -0.36125553753E+03  0.21509764285E+03 -0.15935188352E+04  0.16480518310E+04  0.00000000000E+00 0.  1.
        -11    1    3    3    0    0 -0.27151852803E+03  0.88577116206E+02 -0.93965885825E+03  0.98210334816E+03  0.00000000000E+00 0. -1.
         22    1    1    2    0    0  0.63277406556E+03 -0.30367475905E+03 -0.56641522978E+03  0.90191329398E+03  0.00000000000E+00 0.  1.
<mgrwt>
<rscale>  0 0.16935263E+04</rscale>
<asrwt>0</asrwt>
<pdfrwt beam="1">  1        2 0.51012783E+00 0.16935263E+04</pdfrwt>
<pdfrwt beam="2">  1       -2 0.33267348E-01 0.16935263E+04</pdfrwt>
<totfact> 0.88038548E+00</totfact>
</mgrwt>
</event>
<event>
 6    1  0.1568961E-005  0.1692149E+04  0.7818608E-02  0.8765855E-01
         -2   -1    0    0    0  501 -0.00000000000E+00  0.00000000000E+00  0.19283573294E+04  0.19283573294E+04  0.00000000000E+00 0.  1.
          2   -1    0    0  501    0  0.00000000000E+00 -0.00000000000E+00 -0.37121866135E+03  0.37121866135E+03  0.00000000000E+00 0. -1.
         23    2    1    2    0    0 -0.21030006237E+03  0.27658684499E+03 -0.26417323812E+03  0.44541756747E+03  0.88785756856E+02 0.  0.
         11    1    3    3    0    0 -0.10472380157E+03  0.20749011178E+03 -0.16876621834E+03  0.28723032144E+03  0.00000000000E+00 0. -1.
        -11    1    3    3    0    0 -0.10557626080E+03  0.69096733218E+02 -0.95407019771E+02  0.15818724603E+03  0.00000000000E+00 0.  1.
         22    1    1    2    0    0  0.21030006237E+03 -0.27658684499E+03  0.18213119062E+04  0.18541584233E+04  0.00000000000E+00 0.  1.
<mgrwt>
<rscale>  0 0.16921492E+04</rscale>
<asrwt>0</asrwt>
<pdfrwt beam="1">  1        2 0.57110564E-01 0.16921492E+04</pdfrwt>
<pdfrwt beam="2">  1       -2 0.29667035E+00 0.16921492E+04</pdfrwt>
<totfact> 0.27492467E+00</totfact>
</mgrwt>
</event>
<event>
 6    1  0.1568961E-005  0.4102645E+04  0.7818608E-02  0.7984154E-01
          2   -1    0    0  501    0  0.00000000000E+00  0.00000000000E+00  0.34720599878E+04  0.34720599878E+04  0.00000000000E+00 0.  1.
         -2   -1    0    0    0  501 -0.00000000000E+00 -0.00000000000E+00 -0.12119386919E+04  0.12119386919E+04  0.00000000000E+00 0. -1.
         23    2    1    2    0    0  0.19578399851E+03  0.12918766353E+04 -0.67333946651E+03  0.14726954148E+04  0.90383254998E+02 0.  0.
         13    1    3    3    0    0  0.84192634553E+02  0.71355667313E+03 -0.41289370674E+03  0.82869339237E+03  0.00000000000E+00 0. -1.
        -13    1    3    3    0    0  0.11159136396E+03  0.57831996215E+03 -0.26044575977E+03  0.64400202244E+03  0.00000000000E+00 0.  1.
         22    1    1    2    0    0 -0.19578399851E+03 -0.12918766353E+04  0.29334607623E+04  0.32113032649E+04  0.00000000000E+00 0.  1.
<mgrwt>
<rscale>  0 0.41026449E+04</rscale>
<asrwt>0</asrwt>
<pdfrwt beam="1">  1        2 0.53416307E+00 0.41026449E+04</pdfrwt>
<pdfrwt beam="2">  1       -2 0.18645211E+00 0.41026449E+04</pdfrwt>
<totfact> 0.10877366E-01</totfact>
</mgrwt>
</event>
<event>
 6    1  0.1568961E-005  0.1937669E+04  0.7818608E-02  0.8636330E-01
         -1   -1    0    0    0  501 -0.00000000000E+00  0.00000000000E+00  0.10572548575E+04  0.10572548575E+04  0.00000000000E+00 0.  1.
          1   -1    0    0  501    0  0.00000000000E+00 -0.00000000000E+00 -0.88780858290E+03  0.88780858290E+03  0.00000000000E+00 0. -1.
         23    2    1    2    0    0 -0.23366098820E+03 -0.72468341831E+03 -0.51295286563E+03  0.92259969985E+03  0.91137531418E+02 0.  0.
         13    1    3    3    0    0 -0.23967105440E+02 -0.19589863777E+03 -0.11569493656E+03  0.22877066414E+03  0.00000000000E+00 0.  1.
        -13    1    3    3    0    0 -0.20969388276E+03 -0.52878478054E+03 -0.39725792907E+03  0.69382903572E+03  0.00000000000E+00 0. -1.
         22    1    1    2    0    0  0.23366098820E+03  0.72468341831E+03  0.68239914028E+03  0.10224637406E+04  0.00000000000E+00 0.  1.
<mgrwt>
<rscale>  0 0.19376686E+04</rscale>
<asrwt>0</asrwt>
<pdfrwt beam="1">  1        1 0.13658593E+00 0.19376686E+04</pdfrwt>
<pdfrwt beam="2">  1       -1 0.16265459E+00 0.19376686E+04</pdfrwt>
<totfact> 0.48466841E+00</totfact>
</mgrwt>
</event>
<event>
 6    1  0.1568961E-005  0.3126173E+04  0.7818608E-02  0.8208591E-01
          1   -1    0    0  501    0  0.00000000000E+00  0.00000000000E+00  0.15152653113E+04  0.15152653113E+04  0.00000000000E+00 0. -1.
         -1   -1    0    0    0  501 -0.00000000000E+00 -0.00000000000E+00 -0.16124171169E+04  0.16124171169E+04  0.00000000000E+00 0.  1.
         23    2    1    2    0    0 -0.34998237017E+03 -0.16058900130E+03  0.14654007878E+04  0.15183822406E+04  0.99038745143E+02 0.  0.
         11    1    3    3    0    0 -0.34304937798E+02 -0.18795413596E+02  0.65049903588E+02  0.75905113704E+02  0.00000000000E+00 0.  1.
        -11    1    3    3    0    0 -0.31567743237E+03 -0.14179358770E+03  0.14003508842E+04  0.14424771269E+04  0.00000000000E+00 0. -1.
         22    1    1    2    0    0  0.34998237017E+03  0.16058900130E+03 -0.15625525933E+04  0.16093001876E+04  0.00000000000E+00 0.  1.
<mgrwt>
<rscale>  0 0.31261732E+04</rscale>
<asrwt>0</asrwt>
<pdfrwt beam="1">  1        1 0.23311774E+00 0.31261732E+04</pdfrwt>
<pdfrwt beam="2">  1       -1 0.24806417E+00 0.31261732E+04</pdfrwt>
<totfact> 0.38583432E-01</totfact>
</mgrwt>
</event>
<event>
 6    1  0.1568961E-005  0.2109036E+04  0.7818608E-02  0.8557273E-01
         -2   -1    0    0    0  501 -0.00000000000E+00  0.00000000000E+00  0.65602998196E+03  0.65602998196E+03  0.00000000000E+00 0.  1.
          2   -1    0    0  501    0  0.00000000000E+00 -0.00000000000E+00 -0.16950570863E+04  0.16950570863E+04  0.00000000000E+00 0. -1.
         23    2    1    2    0    0 -0.17573671180E+03 -0.39260098026E+03 -0.15910187732E+04  0.16512915810E+04  0.10200111419E+03 0.  0.
         11    1    3    3    0    0 -0.12463129783E+03 -0.25352482609E+03 -0.85356495537E+03  0.89910006722E+03  0.00000000000E+00 0.  1.
        -11    1    3    3    0    0 -0.51105413963E+02 -0.13907615417E+03 -0.73745381783E+03  0.75219151380E+03  0.00000000000E+00 0. -1.
         22    1    1    2    0    0  0.17573671180E+03  0.39260098026E+03  0.55199166881E+03  0.69979548728E+03  0.00000000000E+00 0.  1.
<mgrwt>
<rscale>  0 0.21090361E+04</rscale>
<asrwt>0</asrwt>
<pdfrwt beam="1">  1        2 0.26077801E+00 0.21090361E+04</pdfrwt>
<pdfrwt beam="2">  1       -2 0.10092769E+00 0.21090361E+04</pdfrwt>
<totfact> 0.73442642E+00</totfact>
</mgrwt>
</event>
<event>
 6    1  0.1568961E-005  0.8772488E+03  0.7818608E-02  0.9454477E-01
          2   -1    0    0  501    0  0.00000000000E+00  0.00000000000E+00  0.38448899460E+03  0.38448899460E+03  0.00000000000E+00 0. -1.
         -2   -1    0    0    0  501 -0.00000000000E+00 -0.00000000000E+00 -0.50038199738E+03  0.50038199738E+03  0.00000000000E+00 0.  1.
         23    2    1    2    0    0 -0.32199228799E+03  0.26929417798E+03 -0.16948965926E+03  0.46170318909E+03  0.90800343619E+02 0.  0.
         13    1    3    3    0    0 -0.18330995056E+03  0.10694316716E+03 -0.54157121361E+02  0.21902596369E+03  0.00000000000E+00 0.  1.
        -13    1    3    3    0    0 -0.13868233743E+03  0.16235101082E+03 -0.11533253790E+03  0.24267722540E+03  0.00000000000E+00 0. -1.
         22    1    1    2    0    0  0.32199228799E+03 -0.26929417798E+03  0.53596656488E+02  0.42316780289E+03  0.00000000000E+00 0. -1.
<mgrwt>
<rscale>  0 0.87724882E+03</rscale>
<asrwt>0</asrwt>
<pdfrwt beam="1">  1        2 0.59152153E-01 0.87724882E+03</pdfrwt>
<pdfrwt beam="2">  1       -2 0.76981846E-01 0.87724882E+03</pdfrwt>
<totfact> 0.12590253E+02</totfact>
</mgrwt>
</event>
<event>
 6    1  0.1568961E-005  0.3051015E+04  0.7818608E-02  0.8229311E-01
         -1   -1    0    0    0  501 -0.00000000000E+00  0.00000000000E+00  0.10776830170E+04  0.10776830170E+04  0.00000000000E+00 0.  1.
          1   -1    0    0  501    0  0.00000000000E+00 -0.00000000000E+00 -0.21594226546E+04  0.21594226546E+04  0.00000000000E+00 0. -1.
         23    2    1    2    0    0 -0.15031609962E+04  0.76237083025E+02 -0.28617104740E+03  0.15346854958E+04  0.89781006588E+02 0.  0.
         11    1    3    3    0    0 -0.29855536215E+03  0.51007293901E+02 -0.60442002275E+02  0.30885317538E+03  0.00000000000E+00 0. -1.
        -11    1    3    3    0    0 -0.12046056341E+04  0.25229789125E+02 -0.22572904513E+03  0.12258323204E+04  0.00000000000E+00 0.  1.
         22    1    1    2    0    0  0.15031609962E+04 -0.76237083025E+02 -0.79556859017E+03  0.17024201758E+04  0.00000000000E+00 0.  1.
<mgrwt>
<rscale>  0 0.30510150E+04</rscale>
<asrwt>0</asrwt>
<pdfrwt beam="1">  1        1 0.33221887E+00 0.30510150E+04</pdfrwt>
<pdfrwt beam="2">  1       -1 0.16579739E+00 0.30510150E+04</pdfrwt>
<totfact> 0.52001838E-01</totfact>
</mgrwt>
</event>
<event>
 6    1  0.1568961E-005  0.5878625E+04  0.7818608E-02  0.7705636E-01
          2   -1    0    0  501    0  0.00000000000E+00  0.00000000000E+00  0.48126023664E+04  0.48126023664E+04  0.00000000000E+00 0. -1.
         -2   -1    0    0    0  501 -0.00000000000E+00 -0.00000000000E+00 -0.17951944866E+04  0.17951944866E+04  0.00000000000E+00 0.  1.
         23    2    1    2    0    0  0.17008089559E+04  0.13393094815E+04 -0.72446696328E+03  0.22848200623E+04  0.95128042927E+02 0.  0.
         13    1    3    3    0    0  0.74425058629E+03  0.58722131217E+03 -0.36709848111E+03  0.10166115775E+04  0.00000000000E+00 0. -1.
        -13    1    3    3    0    0  0.95655836958E+03  0.75208816938E+03 -0.35736848217E+03  0.12682084848E+04  0.00000000000E+00 0.  1.
         22    1    1    2    0    0 -0.17008089559E+04 -0.13393094815E+04  0.37418748431E+04  0.43229767907E+04  0.00000000000E+00 0. -1.
<mgrwt>
<rscale>  0 0.58786247E+04</rscale>
<asrwt>0</asrwt>
<pdfrwt beam="1">  1        2 0.74040036E+00 0.58786247E+04</pdfrwt>
<pdfrwt beam="2">  1       -2 0.27618377E+00 0.58786247E+04</pdfrwt>
<totfact> 0.17093762E-03</totfact>
</mgrwt>
</event>
<event>
 6    1  0.1568961E-005  0.1464717E+04  0.7818608E-02  0.8908261E-01
         -1   -1    0    0    0  501 -0.00000000000E+00  0.00000000000E+00  0.12916559079E+04  0.12916559079E+04  0.00000000000E+00 0.  1.
          1   -1    0    0  501    0  0.00000000000E+00 -0.00000000000E+00 -0.41524127844E+03  0.41524127844E+03  0.00000000000E+00 0. -1.
         23    2    1    2    0    0  0.64650067750E+03  0.93141738129E+02  0.81849059141E+03  0.10511581349E+04  0.91477138668E+02 0.  0.
         13    1    3    3    0    0  0.15907622365E+02 -0.12090577502E+02  0.20067598166E+02  0.28318598302E+02  0.00000000000E+00 0. -1.
        -13    1    3    3    0    0  0.63059305514E+03  0.10523231563E+03  0.79842299324E+03  0.10228395366E+04  0.00000000000E+00 0.  1.
         22    1    1    2    0    0 -0.64650067750E+03 -0.93141738129E+02  0.57924038008E+02  0.65573905143E+03  0.00000000000E+00 0. -1.
<mgrwt>
<rscale>  0 0.14647168E+04</rscale>
<asrwt>0</asrwt>
<pdfrwt beam="1">  1        1 0.63883274E-01 0.14647168E+04</pdfrwt>
<pdfrwt beam="2">  1       -1 0.19871629E+00 0.14647168E+04</pdfrwt>
<totfact> 0.85030225E+00</totfact>
</mgrwt>
</event>
<event>
 6    1  0.1568961E-005  0.1985263E+04  0.7818608E-02  0.8613542E-01
         -2   -1    0    0    0  501 -0.00000000000E+00  0.00000000000E+00  0.37055537666E+03  0.37055537666E+03  0.00000000000E+00 0.  1.
          2   -1    0    0  501    0  0.00000000000E+00 -0.00000000000E+00 -0.26590273554E+04  0.26590273554E+04  0.00000000000E+00 0. -1.
         23    2    1    2    0    0  0.85138842773E+03  0.39186455880E+03 -0.65697250197E+03  0.11480379864E+04  0.89209094227E+02 0.  0.
         11    1    3    3    0    0  0.27321366108E+03  0.14589324474E+03 -0.17167523596E+03  0.35412276135E+03  0.00000000000E+00 0.  1.
        -11    1    3    3    0    0  0.57817476665E+03  0.24597131406E+03 -0.48529726601E+03  0.79391522502E+03  0.00000000000E+00 0. -1.
         22    1    1    2    0    0 -0.85138842773E+03 -0.39186455880E+03 -0.16314994768E+04  0.18815447457E+04  0.00000000000E+00 0.  1.
<mgrwt>
<rscale>  0 0.19852626E+04</rscale>
<asrwt>0</asrwt>
<pdfrwt beam="1">  1        2 0.40908111E+00 0.19852626E+04</pdfrwt>
<pdfrwt beam="2">  1       -2 0.57008523E-01 0.19852626E+04</pdfrwt>
<totfact> 0.75439153E+00</totfact>
</mgrwt>
</event>
<event>
 6    1  0.1568961E-005  0.3215321E+04  0.7818608E-02  0.8184783E-01
         -2   -1    0    0    0  501 -0.00000000000E+00  0.00000000000E+00  0.14226600420E+04  0.14226600420E+04  0.00000000000E+00 0. -1.
          2   -1    0    0  501    0  0.00000000000E+00 -0.00000000000E+00 -0.18167176197E+04  0.18167176197E+04  0.00000000000E+00 0.  1.
         23    2    1    2    0    0  0.37511455061E+03 -0.14271258996E+04 -0.83676404233E+03  0.16987971629E+04  0.91315271384E+02 0.  0.
         11    1    3    3    0    0  0.22914052065E+03 -0.95303980192E+03 -0.59870358173E+03  0.11485800891E+04  0.00000000000E+00 0.  1.
        -11    1    3    3    0    0  0.14597402996E+03 -0.47408609769E+03 -0.23806046060E+03  0.55021707384E+03  0.00000000000E+00 0. -1.
         22    1    1    2    0    0 -0.37511455061E+03  0.14271258996E+04  0.44270646463E+03  0.15405804988E+04  0.00000000000E+00 0. -1.
<mgrwt>
<rscale>  0 0.32153206E+04</rscale>
<asrwt>0</asrwt>
<pdfrwt beam="1">  1        2 0.27949502E+00 0.32153206E+04</pdfrwt>
<pdfrwt beam="2">  1       -2 0.21887077E+00 0.32153206E+04</pdfrwt>
<totfact> 0.71380452E-01</totfact>
</mgrwt>
</event>
<event>
 6    1  0.1568961E-005  0.3386121E+04  0.7818608E-02  0.8141321E-01
          2   -1    0    0  501    0  0.00000000000E+00  0.00000000000E+00  0.27702516799E+04  0.27702516799E+04  0.00000000000E+00 0. -1.
         -2   -1    0    0    0  501 -0.00000000000E+00 -0.00000000000E+00 -0.10347270955E+04  0.10347270955E+04  0.00000000000E+00 0.  1.
         23    2    1    2    0    0  0.34125543348E+03  0.95599197285E+03  0.23893010555E+04  0.25975850545E+04  0.91173782070E+02 0.  0.
         13    1    3    3    0    0  0.29174066840E+03  0.84256434096E+03  0.20182098984E+04  0.22063994380E+04  0.00000000000E+00 0. -1.
        -13    1    3    3    0    0  0.49514765080E+02  0.11342763189E+03  0.37109115712E+03  0.39118561646E+03  0.00000000000E+00 0.  1.
         22    1    1    2    0    0 -0.34125543348E+03 -0.95599197285E+03 -0.65377647112E+03  0.12073937209E+04  0.00000000000E+00 0.  1.
<mgrwt>
<rscale>  0 0.33861214E+04</rscale>
<asrwt>0</asrwt>
<pdfrwt beam="1">  1        2 0.42619256E+00 0.33861214E+04</pdfrwt>
<pdfrwt beam="2">  1       -2 0.15918879E+00 0.33861214E+04</pdfrwt>
<totfact> 0.51030787E-01</totfact>
</mgrwt>
</event>
<event>
 6    1  0.1568961E-005  0.8534300E+03  0.7818608E-02  0.9485745E-01
         -1   -1    0    0    0  501 -0.00000000000E+00  0.00000000000E+00  0.34472582473E+03  0.34472582473E+03  0.00000000000E+00 0.  1.
          1   -1    0    0  501    0  0.00000000000E+00 -0.00000000000E+00 -0.52820444204E+03  0.52820444204E+03  0.00000000000E+00 0. -1.
         23    2    1    2    0    0 -0.10748939517E+02  0.31432457142E+03 -0.38030121536E+03  0.50191192355E+03  0.91493653863E+02 0.  0.
         13    1    3    3    0    0  0.28696200508E+02  0.25266744679E+03 -0.29128099418E+03  0.38666384388E+03  0.00000000000E+00 0. -1.
        -13    1    3    3    0    0 -0.39445140024E+02  0.61657124628E+02 -0.89020221178E+02  0.11524807967E+03  0.00000000000E+00 0.  1.
         22    1    1    2    0    0  0.10748939517E+02 -0.31432457142E+03  0.19682259806E+03  0.37101834322E+03  0.00000000000E+00 0.  1.
<mgrwt>
<rscale>  0 0.85343005E+03</rscale>
<asrwt>0</asrwt>
<pdfrwt beam="1">  1        1 0.81262222E-01 0.85343005E+03</pdfrwt>
<pdfrwt beam="2">  1       -1 0.53034742E-01 0.85343005E+03</pdfrwt>
<totfact> 0.14864839E+02</totfact>
</mgrwt>
</event>
<event>
 6    1  0.1568961E-005  0.1775789E+04  0.7818608E-02  0.8719281E-01
          2   -1    0    0  501    0  0.00000000000E+00  0.00000000000E+00  0.12510575732E+04  0.12510575732E+04  0.00000000000E+00 0. -1.
         -2   -1    0    0    0  501 -0.00000000000E+00 -0.00000000000E+00 -0.63015251440E+03  0.63015251440E+03  0.00000000000E+00 0.  1.
         23    2    1    2    0    0  0.27386027060E+03  0.61726135304E+03  0.91815611784E+03  0.11433962778E+04  0.91287269311E+02 0.  0.
         11    1    3    3    0    0  0.15171993370E+03  0.23233281725E+03  0.36423630957E+03  0.45789252611E+03  0.00000000000E+00 0.  1.
        -11    1    3    3    0    0  0.12214033690E+03  0.38492853578E+03  0.55391980826E+03  0.68550375166E+03  0.00000000000E+00 0. -1.
         22    1    1    2    0    0 -0.27386027060E+03 -0.61726135304E+03 -0.29725105909E+03  0.73781380978E+03  0.00000000000E+00 0.  1.
<mgrwt>
<rscale>  0 0.17757895E+04</rscale>
<asrwt>0</asrwt>
<pdfrwt beam="1">  1        2 0.19247039E+00 0.17757895E+04</pdfrwt>
<pdfrwt beam="2">  1       -2 0.96946541E-01 0.17757895E+04</pdfrwt>
<totfact> 0.14849787E+01</totfact>
</mgrwt>
</event>
<event>
 6    1  0.1568961E-005  0.2010277E+04  0.7818608E-02  0.8601831E-01
         -2   -1    0    0    0  501 -0.00000000000E+00  0.00000000000E+00  0.57544753090E+03  0.57544753090E+03  0.00000000000E+00 0.  1.
          2   -1    0    0  501    0  0.00000000000E+00 -0.00000000000E+00 -0.17556822185E+04  0.17556822185E+04  0.00000000000E+00 0. -1.
         23    2    1    2    0    0  0.11396329385E+03 -0.31793662227E+03 -0.16865502126E+04  0.17225028201E+04  0.92157567739E+02 0.  0.
         11    1    3    3    0    0  0.37516099640E+02 -0.24158603958E+02 -0.28340101195E+03  0.28689236562E+03  0.00000000000E+00 0. -1.
        -11    1    3    3    0    0  0.76447194215E+02 -0.29377801832E+03 -0.14031492007E+04  0.14356104545E+04  0.00000000000E+00 0.  1.
         22    1    1    2    0    0 -0.11396329385E+03  0.31793662227E+03  0.50631552507E+03  0.60862692929E+03  0.00000000000E+00 0.  1.
<mgrwt>
<rscale>  0 0.20102766E+04</rscale>
<asrwt>0</asrwt>
<pdfrwt beam="1">  1        2 0.27010495E+00 0.20102766E+04</pdfrwt>
<pdfrwt beam="2">  1       -2 0.88530390E-01 0.20102766E+04</pdfrwt>
<totfact> 0.93049588E+00</totfact>
</mgrwt>
</event>
<event>
 6    1  0.1568961E-005  0.1233667E+04  0.7818608E-02  0.9083887E-01
         -2   -1    0    0    0  501 -0.00000000000E+00  0.00000000000E+00  0.47583175692E+03  0.47583175692E+03  0.00000000000E+00 0.  1.
          2   -1    0    0  501    0  0.00000000000E+00 -0.00000000000E+00 -0.79961837899E+03  0.79961837899E+03  0.00000000000E+00 0. -1.
         23    2    1    2    0    0 -0.22672565115E+03  0.14442303570E+03  0.40750773274E+03  0.49631345502E+03  0.89453671020E+02 0.  0.
         11    1    3    3    0    0 -0.22418223007E+03  0.12111975660E+03  0.34023540565E+03  0.42507387473E+03  0.00000000000E+00 0.  1.
        -11    1    3    3    0    0 -0.25434210756E+01  0.23303279106E+02  0.67272327088E+02  0.71239580289E+02  0.00000000000E+00 0. -1.
         22    1    1    2    0    0  0.22672565115E+03 -0.14442303570E+03 -0.73129435481E+03  0.77913668089E+03  0.00000000000E+00 0. -1.
<mgrwt>
<rscale>  0 0.12336674E+04</rscale>
<asrwt>0</asrwt>
<pdfrwt beam="1">  1        2 0.12301821E+00 0.12336674E+04</pdfrwt>
<pdfrwt beam="2">  1       -2 0.73204887E-01 0.12336674E+04</pdfrwt>
<totfact> 0.57200613E+01</totfact>
</mgrwt>
</event>
<event>
 6    1  0.1568961E-005  0.1838272E+04  0.7818608E-02  0.8686207E-01
         -1   -1    0    0    0  501 -0.00000000000E+00  0.00000000000E+00  0.20485980803E+04  0.20485980803E+04  0.00000000000E+00 0. -1.
          1   -1    0    0  501    0  0.00000000000E+00 -0.00000000000E+00 -0.41238511318E+03  0.41238511318E+03  0.00000000000E+00 0.  1.
         23    2    1    2    0    0  0.73824069766E+03 -0.52250442366E+03  0.61888185565E+03  0.10997437616E+04  0.91713628099E+02 0.  0.
         11    1    3    3    0    0  0.41103149760E+03 -0.33087349425E+03  0.32193026439E+03  0.61811265668E+03  0.00000000000E+00 0.  1.
        -11    1    3    3    0    0  0.32720920007E+03 -0.19163092941E+03  0.29695159125E+03  0.48163110496E+03  0.00000000000E+00 0. -1.
         22    1    1    2    0    0 -0.73824069766E+03  0.52250442366E+03  0.10173311115E+04  0.13612394318E+04  0.00000000000E+00 0.  1.
<mgrwt>
<rscale>  0 0.18382724E+04</rscale>
<asrwt>0</asrwt>
<pdfrwt beam="1">  1        1 0.63443864E-01 0.18382724E+04</pdfrwt>
<pdfrwt beam="2">  1       -1 0.31516893E+00 0.18382724E+04</pdfrwt>
<totfact> 0.14276762E+00</totfact>
</mgrwt>
</event>
<event>
 6    1  0.1568961E-005  0.3075083E+03  0.7818608E-02  0.1081546E+00
          1   -1    0    0  501    0  0.00000000000E+00  0.00000000000E+00  0.30282036360E+04  0.30282036360E+04  0.00000000000E+00 0. -1.
         -1   -1    0    0    0  501 -0.00000000000E+00 -0.00000000000E+00 -0.78067201562E+01  0.78067201562E+01  0.00000000000E+00 0.  1.
         23    2    1    2    0    0 -0.13508905589E+02  0.49218694895E+02  0.29331760299E+04  0.29349536721E+04  0.88467305731E+02 0.  0.
         13    1    3    3    0    0  0.58599878690E+01  0.70768213849E+02  0.17845680812E+04  0.17859803235E+04  0.00000000000E+00 0. -1.
        -13    1    3    3    0    0 -0.19368893458E+02 -0.21549518954E+02  0.11486079487E+04  0.11489733485E+04  0.00000000000E+00 0.  1.
         22    1    1    2    0    0  0.13508905589E+02 -0.49218694895E+02  0.87220885858E+02  0.10105668403E+03  0.00000000000E+00 0.  1.
<mgrwt>
<rscale>  0 0.30750830E+03</rscale>
<asrwt>0</asrwt>
<pdfrwt beam="1">  1        1 0.46587654E+00 0.30750830E+03</pdfrwt>
<pdfrwt beam="2">  1       -1 0.12010363E-02 0.30750830E+03</pdfrwt>
<totfact> 0.99331034E+02</totfact>
</mgrwt>
</event>
<event>
 6    1  0.1568961E-005  0.6515357E+03  0.7818608E-02  0.9803902E-01
          2   -1    0    0  501    0  0.00000000000E+00  0.00000000000E+00  0.14813366149E+04  0.14813366149E+04  0.00000000000E+00 0. -1.
         -2   -1    0    0    0  501 -0.00000000000E+00 -0.00000000000E+00 -0.71641174782E+02  0.71641174782E+02  0.00000000000E+00 0.  1.
         23    2    1    2    0    0 -0.19684679151E+03  0.15806145598E+03  0.11852408848E+04  0.12151732151E+04  0.90099415068E+02 0.  0.
         11    1    3    3    0    0 -0.88682228910E+02  0.70758793018E+02  0.33612817356E+03  0.35475835941E+03  0.00000000000E+00 0.  1.
        -11    1    3    3    0    0 -0.10816456260E+03  0.87302662958E+02  0.84911271120E+03  0.86041485569E+03  0.00000000000E+00 0. -1.
         22    1    1    2    0    0  0.19684679151E+03 -0.15806145598E+03  0.22445455539E+03  0.33780457462E+03  0.00000000000E+00 0. -1.
<mgrwt>
<rscale>  0 0.65153571E+03</rscale>
<asrwt>0</asrwt>
<pdfrwt beam="1">  1        2 0.22789792E+00 0.65153571E+03</pdfrwt>
<pdfrwt beam="2">  1       -2 0.11021720E-01 0.65153571E+03</pdfrwt>
<totfact> 0.77413156E+02</totfact>
</mgrwt>
</event>
<event>
 6    1  0.1568961E-005  0.6250954E+03  0.7818608E-02  0.9854667E-01
          2   -1    0    0  501    0  0.00000000000E+00  0.00000000000E+00  0.13331591780E+04  0.13331591780E+04  0.00000000000E+00 0. -1.
         -2   -1    0    0    0  501 -0.00000000000E+00 -0.00000000000E+00 -0.73274112924E+02  0.73274112924E+02  0.00000000000E+00 0.  1.
         23    2    1    2    0    0  0.28727341359E+03 -0.53353810395E+02  0.44172041735E+03  0.53766057380E+03  0.92678596630E+02 0.  0.
         13    1    3    3    0    0  0.19138682758E+03 -0.56877078447E+01  0.22149522884E+03  0.29278217874E+03  0.00000000000E+00 0. -1.
        -13    1    3    3    0    0  0.95886586007E+02 -0.47666102551E+02  0.22022518852E+03  0.24487839506E+03  0.00000000000E+00 0.  1.
         22    1    1    2    0    0 -0.28727341359E+03  0.53353810395E+02  0.81816464773E+03  0.86877271713E+03  0.00000000000E+00 0. -1.
<mgrwt>
<rscale>  0 0.62509537E+03</rscale>
<asrwt>0</asrwt>
<pdfrwt beam="1">  1        2 0.20510139E+00 0.62509537E+03</pdfrwt>
<pdfrwt beam="2">  1       -2 0.11272941E-01 0.62509537E+03</pdfrwt>
<totfact> 0.90475526E+02</totfact>
</mgrwt>
</event>
<event>
 6    1  0.1568961E-005  0.4337352E+04  0.7818608E-02  0.7939747E-01
          2   -1    0    0  501    0  0.00000000000E+00  0.00000000000E+00  0.28067836145E+04  0.28067836145E+04  0.00000000000E+00 0. -1.
         -2   -1    0    0    0  501 -0.00000000000E+00 -0.00000000000E+00 -0.16756388833E+04  0.16756388833E+04  0.00000000000E+00 0.  1.
         23    2    1    2    0    0 -0.16543328253E+04  0.19976435009E+03 -0.86710540033E+03  0.18805526930E+04  0.88790560146E+02 0.  0.
         13    1    3    3    0    0 -0.93029481927E+03  0.14239921962E+03 -0.45285213016E+03  0.10444142092E+04  0.00000000000E+00 0. -1.
        -13    1    3    3    0    0 -0.72403800605E+03  0.57365130475E+02 -0.41425327016E+03  0.83613848389E+03  0.00000000000E+00 0.  1.
         22    1    1    2    0    0  0.16543328253E+04 -0.19976435009E+03  0.19982501315E+04  0.26018698047E+04  0.00000000000E+00 0. -1.
<mgrwt>
<rscale>  0 0.43373521E+04</rscale>
<asrwt>0</asrwt>
<pdfrwt beam="1">  1        2 0.43181286E+00 0.43373521E+04</pdfrwt>
<pdfrwt beam="2">  1       -2 0.25779060E+00 0.43373521E+04</pdfrwt>
<totfact> 0.10119489E-01</totfact>
</mgrwt>
</event>
<event>
 6    1  0.1568961E-005  0.4880171E+04  0.7818608E-02  0.7847263E-01
         -1   -1    0    0    0  501 -0.00000000000E+00  0.00000000000E+00  0.17801623959E+04  0.17801623959E+04  0.00000000000E+00 0.  1.
          1   -1    0    0  501    0  0.00000000000E+00 -0.00000000000E+00 -0.33446477940E+04  0.33446477940E+04  0.00000000000E+00 0. -1.
         23    2    1    2    0    0  0.78084075785E+03  0.70241725828E+03 -0.30944086708E+04  0.32690711150E+04  0.91425593912E+02 0.  0.
         11    1    3    3    0    0  0.75230602721E+02  0.37764714020E+02 -0.21608195507E+03  0.23189917748E+03  0.00000000000E+00 0. -1.
        -11    1    3    3    0    0  0.70561015513E+03  0.66465254426E+03 -0.28783267157E+04  0.30371719375E+04  0.00000000000E+00 0.  1.
         22    1    1    2    0    0 -0.78084075785E+03 -0.70241725828E+03  0.15299232727E+04  0.18557390749E+04  0.00000000000E+00 0.  1.
<mgrwt>
<rscale>  0 0.48801706E+04</rscale>
<asrwt>0</asrwt>
<pdfrwt beam="1">  1        1 0.51456119E+00 0.48801706E+04</pdfrwt>
<pdfrwt beam="2">  1       -1 0.27387114E+00 0.48801706E+04</pdfrwt>
<totfact> 0.11724377E-02</totfact>
</mgrwt>
</event>
<event>
 6    1  0.1568961E-005  0.6543357E+03  0.7818608E-02  0.9798677E-01
         -2   -1    0    0    0  501 -0.00000000000E+00  0.00000000000E+00  0.13983107126E+03  0.13983107126E+03  0.00000000000E+00 0.  1.
          2   -1    0    0  501    0  0.00000000000E+00 -0.00000000000E+00 -0.76548643372E+03  0.76548643372E+03  0.00000000000E+00 0. -1.
         23    2    1    2    0    0  0.10081380314E+03 -0.12134858037E+03 -0.70538930368E+03  0.72855098597E+03  0.91233593277E+02 0.  0.
         11    1    3    3    0    0  0.64137423029E+02 -0.46073408491E+02 -0.50850022532E+03  0.51459580950E+03  0.00000000000E+00 0. -1.
        -11    1    3    3    0    0  0.36676380106E+02 -0.75275171876E+02 -0.19688907836E+03  0.21395517647E+03  0.00000000000E+00 0.  1.
         22    1    1    2    0    0 -0.10081380314E+03  0.12134858037E+03  0.79733941221E+02  0.17676651901E+03  0.00000000000E+00 0.  1.
<mgrwt>
<rscale>  0 0.65433566E+03</rscale>
<asrwt>0</asrwt>
<pdfrwt beam="1">  1        2 0.11776714E+00 0.65433566E+03</pdfrwt>
<pdfrwt beam="2">  1       -2 0.21512473E-01 0.65433566E+03</pdfrwt>
<totfact> 0.68909146E+02</totfact>
</mgrwt>
</event>
<event>
 6    1  0.1568961E-005  0.1594350E+04  0.7818608E-02  0.8824027E-01
         -2   -1    0    0    0  501 -0.00000000000E+00  0.00000000000E+00  0.45375953196E+03  0.45375953196E+03  0.00000000000E+00 0.  1.
          2   -1    0    0  501    0  0.00000000000E+00 -0.00000000000E+00 -0.14004949289E+04  0.14004949289E+04  0.00000000000E+00 0. -1.
         23    2    1    2    0    0 -0.10467035105E+03 -0.58026617204E+03 -0.10943392166E+04  0.12464291567E+04  0.91337882933E+02 0.  0.
         13    1    3    3    0    0 -0.91198387748E+02 -0.25936706910E+03 -0.53142615619E+03  0.59833283542E+03  0.00000000000E+00 0.  1.
        -13    1    3    3    0    0 -0.13471963305E+02 -0.32089910295E+03 -0.56291306046E+03  0.64809632131E+03  0.00000000000E+00 0. -1.
         22    1    1    2    0    0  0.10467035105E+03  0.58026617204E+03  0.14760381966E+03  0.60782530417E+03  0.00000000000E+00 0.  1.
<mgrwt>
<rscale>  0 0.15943499E+04</rscale>
<asrwt>0</asrwt>
<pdfrwt beam="1">  1        2 0.21546076E+00 0.15943499E+04</pdfrwt>
<pdfrwt beam="2">  1       -2 0.69809160E-01 0.15943499E+04</pdfrwt>
<totfact> 0.25942894E+01</totfact>
</mgrwt>
</event>
<event>
 6    1  0.1568961E-005  0.1359090E+04  0.7818608E-02  0.8983976E-01
          1   -1    0    0  501    0  0.00000000000E+00  0.00000000000E+00  0.12206812417E+04  0.12206812417E+04  0.00000000000E+00 0. -1.
         -1   -1    0    0    0  501 -0.00000000000E+00 -0.00000000000E+00 -0.37829806249E+03  0.37829806249E+03  0.00000000000E+00 0.  1.
         23    2    1    2    0    0 -0.35500541627E+02 -0.33890870209E+03  0.11105835068E+04  0.11653310453E+04  0.92094097128E+02 0.  0.
         11    1    3    3    0    0 -0.32830316529E+02 -0.15892270285E+03  0.67047113022E+03  0.68983026291E+03  0.00000000000E+00 0. -1.
        -11    1    3    3    0    0 -0.26702250978E+01 -0.17998599924E+03  0.44011237657E+03  0.47550078237E+03  0.00000000000E+00 0.  1.
         22    1    1    2    0    0  0.35500541627E+02  0.33890870209E+03 -0.26820032753E+03  0.43364825896E+03  0.00000000000E+00 0.  1.
<mgrwt>
<rscale>  0 0.13590899E+04</rscale>
<asrwt>0</asrwt>
<pdfrwt beam="1">  1        1 0.18779711E+00 0.13590899E+04</pdfrwt>
<pdfrwt beam="2">  1       -1 0.58199703E-01 0.13590899E+04</pdfrwt>
<totfact> 0.30194315E+01</totfact>
</mgrwt>
</event>
<event>
 6    1  0.1568961E-005  0.2033918E+04  0.7818608E-02  0.8590925E-01
         -2   -1    0    0    0  501 -0.00000000000E+00  0.00000000000E+00  0.17461792565E+04  0.17461792565E+04  0.00000000000E+00 0.  1.
          2   -1    0    0  501    0  0.00000000000E+00 -0.00000000000E+00 -0.59226789267E+03  0.59226789267E+03  0.00000000000E+00 0. -1.
         23    2    1    2    0    0  0.41533867620E+03 -0.67537973752E+03 -0.15045014948E+03  0.81201242630E+03  0.89916223237E+02 0.  0.
         13    1    3    3    0    0  0.60458135166E+02 -0.13867778621E+03 -0.57831989260E+02  0.16196065410E+03  0.00000000000E+00 0. -1.
        -13    1    3    3    0    0  0.35488054103E+03 -0.53670195131E+03 -0.92618160215E+02  0.65005177221E+03  0.00000000000E+00 0.  1.
         22    1    1    2    0    0 -0.41533867620E+03  0.67537973752E+03  0.13043615133E+04  0.15264347229E+04  0.00000000000E+00 0.  1.
<mgrwt>
<rscale>  0 0.20339183E+04</rscale>
<asrwt>0</asrwt>
<pdfrwt beam="1">  1        2 0.91118138E-01 0.20339183E+04</pdfrwt>
<pdfrwt beam="2">  1       -2 0.26864296E+00 0.20339183E+04</pdfrwt>
<totfact> 0.23063471E+00</totfact>
</mgrwt>
</event>
<event>
 6    1  0.1568961E-005  0.3856406E+04  0.7818608E-02  0.8034157E-01
         -1   -1    0    0    0  501 -0.00000000000E+00  0.00000000000E+00  0.15975591024E+04  0.15975591024E+04  0.00000000000E+00 0.  1.
          1   -1    0    0  501    0  0.00000000000E+00 -0.00000000000E+00 -0.23272800912E+04  0.23272800912E+04  0.00000000000E+00 0. -1.
         23    2    1    2    0    0  0.16669276229E+04  0.35582953644E+03 -0.12801010849E+04  0.21336997212E+04  0.93559358731E+02 0.  0.
         13    1    3    3    0    0  0.11919164679E+04  0.23970903899E+03 -0.96194284077E+03  0.15503094268E+04  0.00000000000E+00 0. -1.
        -13    1    3    3    0    0  0.47501115502E+03  0.11612049746E+03 -0.31815824415E+03  0.58339029443E+03  0.00000000000E+00 0.  1.
         22    1    1    2    0    0 -0.16669276229E+04 -0.35582953644E+03  0.55038009610E+03  0.17911394723E+04  0.00000000000E+00 0.  1.
<mgrwt>
<rscale>  0 0.38564064E+04</rscale>
<asrwt>0</asrwt>
<pdfrwt beam="1">  1        1 0.35804309E+00 0.38564064E+04</pdfrwt>
<pdfrwt beam="2">  1       -1 0.24577832E+00 0.38564064E+04</pdfrwt>
<totfact> 0.10489707E-01</totfact>
</mgrwt>
</event>
<event>
 6    1  0.1568961E-005  0.5836963E+04  0.7818608E-02  0.7710952E-01
         -2   -1    0    0    0  501 -0.00000000000E+00  0.00000000000E+00  0.31920703619E+04  0.31920703619E+04  0.00000000000E+00 0.  1.
          2   -1    0    0  501    0  0.00000000000E+00 -0.00000000000E+00 -0.26683418095E+04  0.26683418095E+04  0.00000000000E+00 0. -1.
         23    2    1    2    0    0  0.20677742481E+04  0.17618439670E+04 -0.80697997636E+03  0.28354213130E+04  0.92805359564E+02 0.  0.
         11    1    3    3    0    0  0.45079027948E+03  0.40497774877E+03 -0.21695063774E+03  0.64365086211E+03  0.00000000000E+00 0.  1.
        -11    1    3    3    0    0  0.16169839686E+04  0.13568662182E+04 -0.59002933861E+03  0.21917704509E+04  0.00000000000E+00 0. -1.
         22    1    1    2    0    0 -0.20677742481E+04 -0.17618439670E+04  0.13307085287E+04  0.30249908584E+04  0.00000000000E+00 0.  1.
<mgrwt>
<rscale>  0 0.58369632E+04</rscale>
<asrwt>0</asrwt>
<pdfrwt beam="1">  1        2 0.41051412E+00 0.58369632E+04</pdfrwt>
<pdfrwt beam="2">  1       -2 0.49108775E+00 0.58369632E+04</pdfrwt>
<totfact> 0.35798237E-03</totfact>
</mgrwt>
</event>
<event>
 6    1  0.1568961E-005  0.1357319E+04  0.7818608E-02  0.8985306E-01
         -1   -1    0    0    0  501 -0.00000000000E+00  0.00000000000E+00  0.32702492350E+03  0.32702492350E+03  0.00000000000E+00 0.  1.
          1   -1    0    0  501    0  0.00000000000E+00 -0.00000000000E+00 -0.14083897328E+04  0.14083897328E+04  0.00000000000E+00 0. -1.
         23    2    1    2    0    0 -0.22723960498E+03  0.16273243315E+03 -0.13295454078E+04  0.13616322432E+04  0.90728668899E+02 0.  0.
         13    1    3    3    0    0 -0.11535818339E+03  0.11462362368E+03 -0.58460367837E+03  0.60680107642E+03  0.00000000000E+00 0.  1.
        -13    1    3    3    0    0 -0.11188142159E+03  0.48108809464E+02 -0.74494172947E+03  0.75483116679E+03  0.00000000000E+00 0. -1.
         22    1    1    2    0    0  0.22723960498E+03 -0.16273243315E+03  0.24818059852E+03  0.37378241311E+03  0.00000000000E+00 0. -1.
<mgrwt>
<rscale>  0 0.13573187E+04</rscale>
<asrwt>0</asrwt>
<pdfrwt beam="1">  1        1 0.21667534E+00 0.13573187E+04</pdfrwt>
<pdfrwt beam="2">  1       -1 0.50311527E-01 0.13573187E+04</pdfrwt>
<totfact> 0.29406765E+01</totfact>
</mgrwt>
</event>
<event>
 6    1  0.1568961E-005  0.1889427E+04  0.7818608E-02  0.8660137E-01
         -1   -1    0    0    0  501 -0.00000000000E+00  0.00000000000E+00  0.33877576415E+03  0.33877576415E+03  0.00000000000E+00 0.  1.
          1   -1    0    0  501    0  0.00000000000E+00 -0.00000000000E+00 -0.26344373646E+04  0.26344373646E+04  0.00000000000E+00 0. -1.
         23    2    1    2    0    0  0.19809745924E+03  0.79854777569E+03 -0.42659945531E+03  0.93107834970E+03  0.89435141834E+02 0.  0.
         13    1    3    3    0    0  0.63950685424E+02  0.44228108165E+03 -0.23449881984E+03  0.50467013173E+03  0.00000000000E+00 0. -1.
        -13    1    3    3    0    0  0.13414677382E+03  0.35626669404E+03 -0.19210063546E+03  0.42640821797E+03  0.00000000000E+00 0.  1.
         22    1    1    2    0    0 -0.19809745924E+03 -0.79854777569E+03 -0.18690621451E+04  0.20421347791E+04  0.00000000000E+00 0. -1.
<mgrwt>
<rscale>  0 0.18894269E+04</rscale>
<asrwt>0</asrwt>
<pdfrwt beam="1">  1        1 0.40529804E+00 0.18894269E+04</pdfrwt>
<pdfrwt beam="2">  1       -1 0.52119350E-01 0.18894269E+04</pdfrwt>
<totfact> 0.37935062E+00</totfact>
</mgrwt>
</event>
<event>
 6    1  0.1568961E-005  0.6215874E+03  0.7818608E-02  0.9861604E-01
          1   -1    0    0  501    0  0.00000000000E+00  0.00000000000E+00  0.19524110296E+04  0.19524110296E+04  0.00000000000E+00 0. -1.
         -1   -1    0    0    0  501 -0.00000000000E+00 -0.00000000000E+00 -0.49473559111E+02  0.49473559111E+02  0.00000000000E+00 0.  1.
         23    2    1    2    0    0 -0.62842744857E+02 -0.29747097978E+03  0.95050093441E+03  0.10020978366E+04  0.91158397622E+02 0.  0.
         13    1    3    3    0    0 -0.62034644042E+02 -0.11450300792E+03  0.31711412715E+03  0.34281278495E+03  0.00000000000E+00 0. -1.
        -13    1    3    3    0    0 -0.80810081471E+00 -0.18296797186E+03  0.63338680726E+03  0.65928505167E+03  0.00000000000E+00 0.  1.
         22    1    1    2    0    0  0.62842744857E+02  0.29747097978E+03  0.95243653611E+03  0.99978675212E+03  0.00000000000E+00 0. -1.
<mgrwt>
<rscale>  0 0.62158740E+03</rscale>
<asrwt>0</asrwt>
<pdfrwt beam="1">  1        1 0.30037087E+00 0.62158740E+03</pdfrwt>
<pdfrwt beam="2">  1       -1 0.76113183E-02 0.62158740E+03</pdfrwt>
<totfact> 0.32310697E+02</totfact>
</mgrwt>
</event>
<event>
 6    1  0.1568961E-005  0.6321133E+03  0.7818608E-02  0.9840934E-01
          1   -1    0    0  501    0  0.00000000000E+00  0.00000000000E+00  0.21340481921E+04  0.21340481921E+04  0.00000000000E+00 0. -1.
         -1   -1    0    0    0  501 -0.00000000000E+00 -0.00000000000E+00 -0.46808592887E+02  0.46808592887E+02  0.00000000000E+00 0.  1.
         23    2    1    2    0    0 -0.90549709294E+02  0.27983178389E+03  0.73148305126E+03  0.79356413582E+03  0.90396384013E+02 0.  0.
         11    1    3    3    0    0 -0.36621299787E+02  0.93345671650E+02  0.14912150567E+03  0.17969907475E+03  0.00000000000E+00 0.  1.
        -11    1    3    3    0    0 -0.53928409506E+02  0.18648611224E+03  0.58236154559E+03  0.61386506106E+03  0.00000000000E+00 0. -1.
         22    1    1    2    0    0  0.90549709294E+02 -0.27983178389E+03  0.13557565480E+04  0.13872926492E+04  0.00000000000E+00 0.  1.
<mgrwt>
<rscale>  0 0.63211326E+03</rscale>
<asrwt>0</asrwt>
<pdfrwt beam="1">  1        1 0.32831503E+00 0.63211326E+03</pdfrwt>
<pdfrwt beam="2">  1       -1 0.72013236E-02 0.63211326E+03</pdfrwt>
<totfact> 0.26633235E+02</totfact>
</mgrwt>
</event>
<event>
 6    1  0.1568961E-005  0.3579594E+04  0.7818608E-02  0.8095182E-01
         -2   -1    0    0    0  501 -0.00000000000E+00  0.00000000000E+00  0.23905477826E+04  0.23905477826E+04  0.00000000000E+00 0.  1.
          2   -1    0    0  501    0  0.00000000000E+00 -0.00000000000E+00 -0.13400166205E+04  0.13400166205E+04  0.00000000000E+00 0. -1.
         23    2    1    2    0    0 -0.67594978057E+02  0.59547553787E+03 -0.12306947995E+04  0.13719308824E+04  0.91784854341E+02 0.  0.
         11    1    3    3    0    0 -0.47777127315E+02  0.50177025717E+03 -0.10991775288E+04  0.12092341728E+04  0.00000000000E+00 0. -1.
        -11    1    3    3    0    0 -0.19817850742E+02  0.93705280699E+02 -0.13151727066E+03  0.16269670962E+03  0.00000000000E+00 0.  1.
         22    1    1    2    0    0  0.67594978057E+02 -0.59547553787E+03  0.22812259616E+04  0.23586335207E+04  0.00000000000E+00 0.  1.
<mgrwt>
<rscale>  0 0.35795943E+04</rscale>
<asrwt>0</asrwt>
<pdfrwt beam="1">  1        2 0.20615640E+00 0.35795943E+04</pdfrwt>
<pdfrwt beam="2">  1       -2 0.36777658E+00 0.35795943E+04</pdfrwt>
<totfact> 0.15337362E-01</totfact>
</mgrwt>
</event>
<event>
 6    1  0.1568961E-005  0.2452083E+04  0.7818608E-02  0.8420258E-01
          2   -1    0    0  501    0  0.00000000000E+00  0.00000000000E+00  0.21655204252E+04  0.21655204252E+04  0.00000000000E+00 0. -1.
         -2   -1    0    0    0  501 -0.00000000000E+00 -0.00000000000E+00 -0.69414145525E+03  0.69414145525E+03  0.00000000000E+00 0.  1.
         23    2    1    2    0    0 -0.84092568632E+02  0.10548676504E+04  0.14547772345E+04  0.18013174481E+04  0.92468518348E+02 0.  0.
         11    1    3    3    0    0 -0.47310267963E+01  0.43710946679E+03  0.54247434977E+03  0.69668177006E+03  0.00000000000E+00 0.  1.
        -11    1    3    3    0    0 -0.79361541836E+02  0.61775818360E+03  0.91230288471E+03  0.11046356780E+04  0.00000000000E+00 0. -1.
         22    1    1    2    0    0  0.84092568632E+02 -0.10548676504E+04  0.16601735487E+02  0.10583444324E+04  0.00000000000E+00 0.  1.
<mgrwt>
<rscale>  0 0.24520828E+04</rscale>
<asrwt>0</asrwt>
<pdfrwt beam="1">  1        2 0.33315699E+00 0.24520828E+04</pdfrwt>
<pdfrwt beam="2">  1       -2 0.10679099E+00 0.24520828E+04</pdfrwt>
<totfact> 0.34118068E+00</totfact>
</mgrwt>
</event>
<event>
 6    1  0.1568961E-005  0.2491795E+04  0.7818608E-02  0.8405915E-01
          2   -1    0    0  501    0  0.00000000000E+00  0.00000000000E+00  0.26870618136E+04  0.26870618136E+04  0.00000000000E+00 0. -1.
         -2   -1    0    0    0  501 -0.00000000000E+00 -0.00000000000E+00 -0.57767937420E+03  0.57767937420E+03  0.00000000000E+00 0.  1.
         23    2    1    2    0    0 -0.10211126660E+04  0.57720191939E+03  0.15998984043E+04  0.19859108181E+04  0.91289326195E+02 0.  0.
         11    1    3    3    0    0 -0.70547492182E+03  0.41893268314E+03  0.10527566749E+04  0.13347269664E+04  0.00000000000E+00 0.  1.
        -11    1    3    3    0    0 -0.31563774416E+03  0.15826923626E+03  0.54714172933E+03  0.65118385165E+03  0.00000000000E+00 0. -1.
         22    1    1    2    0    0  0.10211126660E+04 -0.57720191939E+03  0.50948403511E+03  0.12788303697E+04  0.00000000000E+00 0. -1.
<mgrwt>
<rscale>  0 0.24917947E+04</rscale>
<asrwt>0</asrwt>
<pdfrwt beam="1">  1        2 0.41339412E+00 0.24917947E+04</pdfrwt>
<pdfrwt beam="2">  1       -2 0.88873752E-01 0.24917947E+04</pdfrwt>
<totfact> 0.26243064E+00</totfact>
</mgrwt>
</event>
<event>
 6    1  0.1568961E-005  0.3978068E+04  0.7818608E-02  0.8008986E-01
         -2   -1    0    0    0  501 -0.00000000000E+00  0.00000000000E+00  0.19145486112E+04  0.19145486112E+04  0.00000000000E+00 0.  1.
          2   -1    0    0  501    0  0.00000000000E+00 -0.00000000000E+00 -0.20664174957E+04  0.20664174957E+04  0.00000000000E+00 0. -1.
         23    2    1    2    0    0  0.12174208860E+04  0.96329612601E+03 -0.13187252371E+04  0.20389035983E+04  0.89658195525E+02 0.  0.
         13    1    3    3    0    0  0.63012500999E+03  0.44153633896E+03 -0.64893030927E+03  0.10065398219E+04  0.00000000000E+00 0.  1.
        -13    1    3    3    0    0  0.58729587603E+03  0.52175978705E+03 -0.66979492779E+03  0.10323637763E+04  0.00000000000E+00 0. -1.
         22    1    1    2    0    0 -0.12174208860E+04 -0.96329612601E+03  0.11668563525E+04  0.19420625087E+04  0.00000000000E+00 0.  1.
<mgrwt>
<rscale>  0 0.39780682E+04</rscale>
<asrwt>0</asrwt>
<pdfrwt beam="1">  1        2 0.31791038E+00 0.39780682E+04</pdfrwt>
<pdfrwt beam="2">  1       -2 0.29454594E+00 0.39780682E+04</pdfrwt>
<totfact> 0.16642013E-01</totfact>
</mgrwt>
</event>
<event>
 6    1  0.1568961E-005  0.9664285E+03  0.7818608E-02  0.9346152E-01
          1   -1    0    0  501    0  0.00000000000E+00  0.00000000000E+00  0.15037240854E+03  0.15037240854E+03  0.00000000000E+00 0. -1.
         -1   -1    0    0    0  501 -0.00000000000E+00 -0.00000000000E+00 -0.15527849733E+04  0.15527849733E+04  0.00000000000E+00 0.  1.
         23    2    1    2    0    0 -0.31922465400E+03  0.76842560138E+02 -0.93164805752E+02  0.35336522997E+03  0.91532212645E+02 0.  0.
         11    1    3    3    0    0 -0.95608711782E+02 -0.15433816834E+02 -0.91223566585E+01  0.97275104018E+02  0.00000000000E+00 0.  1.
        -11    1    3    3    0    0 -0.22361594222E+03  0.92276376972E+02 -0.84042449093E+02  0.25609012595E+03  0.00000000000E+00 0. -1.
         22    1    1    2    0    0  0.31922465400E+03 -0.76842560138E+02 -0.13092477591E+04  0.13497921519E+04  0.00000000000E+00 0.  1.
<mgrwt>
<rscale>  0 0.96642851E+03</rscale>
<asrwt>0</asrwt>
<pdfrwt beam="1">  1        1 0.23134218E-01 0.96642851E+03</pdfrwt>
<pdfrwt beam="2">  1       -1 0.23888999E+00 0.96642851E+03</pdfrwt>
<totfact> 0.18024976E+01</totfact>
</mgrwt>
</event>
<event>
 6    1  0.1568961E-005  0.3522940E+04  0.7818608E-02  0.8108375E-01
          2   -1    0    0  501    0  0.00000000000E+00  0.00000000000E+00  0.21125820433E+04  0.21125820433E+04  0.00000000000E+00 0. -1.
         -2   -1    0    0    0  501 -0.00000000000E+00 -0.00000000000E+00 -0.14687129036E+04  0.14687129036E+04  0.00000000000E+00 0.  1.
         23    2    1    2    0    0  0.54822821762E+03  0.24371479184E+03 -0.13601161040E+04  0.14894278537E+04  0.92349536239E+02 0.  0.
         13    1    3    3    0    0  0.42745253643E+03  0.16102131009E+03 -0.10978034831E+04  0.11890399576E+04  0.00000000000E+00 0. -1.
        -13    1    3    3    0    0  0.12077568119E+03  0.82693481753E+02 -0.26231262087E+03  0.30038789616E+03  0.00000000000E+00 0.  1.
         22    1    1    2    0    0 -0.54822821762E+03 -0.24371479184E+03  0.20039852437E+04  0.20918670931E+04  0.00000000000E+00 0. -1.
<mgrwt>
<rscale>  0 0.35229400E+04</rscale>
<asrwt>0</asrwt>
<pdfrwt beam="1">  1        2 0.32501262E+00 0.35229400E+04</pdfrwt>
<pdfrwt beam="2">  1       -2 0.22595583E+00 0.35229400E+04</pdfrwt>
<totfact> 0.42982126E-01</totfact>
</mgrwt>
</event>
<event>
 6    1  0.1568961E-005  0.2765120E+04  0.7818608E-02  0.8314180E-01
          1   -1    0    0  501    0  0.00000000000E+00  0.00000000000E+00  0.15271805546E+04  0.15271805546E+04  0.00000000000E+00 0. -1.
         -1   -1    0    0    0  501 -0.00000000000E+00 -0.00000000000E+00 -0.12516346750E+04  0.12516346750E+04  0.00000000000E+00 0.  1.
         23    2    1    2    0    0 -0.33867018945E+03  0.18961867034E+03 -0.11949836318E+04  0.12579241155E+04  0.61110251103E+02 0.  0.
         13    1    3    3    0    0 -0.18939835190E+03  0.13421644526E+03 -0.76305882390E+03  0.79758670915E+03  0.00000000000E+00 0. -1.
        -13    1    3    3    0    0 -0.14927183756E+03  0.55402225081E+02 -0.43192480785E+03  0.46033740633E+03  0.00000000000E+00 0.  1.
         22    1    1    2    0    0  0.33867018945E+03 -0.18961867034E+03  0.14705295113E+04  0.15208911141E+04  0.00000000000E+00 0. -1.
<mgrwt>
<rscale>  0 0.27651200E+04</rscale>
<asrwt>0</asrwt>
<pdfrwt beam="1">  1        1 0.23495085E+00 0.27651200E+04</pdfrwt>
<pdfrwt beam="2">  1       -1 0.19255918E+00 0.27651200E+04</pdfrwt>
<totfact> 0.92223717E-01</totfact>
</mgrwt>
</event>
<event>
 6    1  0.1568961E-005  0.2087048E+04  0.7818608E-02  0.8566971E-01
         -2   -1    0    0    0  501 -0.00000000000E+00  0.00000000000E+00  0.70631410460E+03  0.70631410460E+03  0.00000000000E+00 0.  1.
          2   -1    0    0  501    0  0.00000000000E+00 -0.00000000000E+00 -0.15417247579E+04  0.15417247579E+04  0.00000000000E+00 0. -1.
         23    2    1    2    0    0  0.47523944445E+02 -0.61897651481E+03  0.48236447237E+03  0.79135710830E+03  0.90444112396E+02 0.  0.
         11    1    3    3    0    0  0.35895564544E+02 -0.20475060052E+03  0.20992848846E+03  0.29543403703E+03  0.00000000000E+00 0. -1.
        -11    1    3    3    0    0  0.11628379900E+02 -0.41422591429E+03  0.27243598390E+03  0.49592307127E+03  0.00000000000E+00 0.  1.
         22    1    1    2    0    0 -0.47523944445E+02  0.61897651481E+03 -0.13177751256E+04  0.14566817542E+04  0.00000000000E+00 0. -1.
<mgrwt>
<rscale>  0 0.20870476E+04</rscale>
<asrwt>0</asrwt>
<pdfrwt beam="1">  1        2 0.23718842E+00 0.20870476E+04</pdfrwt>
<pdfrwt beam="2">  1       -2 0.10866371E+00 0.20870476E+04</pdfrwt>
<totfact> 0.75079601E+00</totfact>
</mgrwt>
</event>
<event>
 6    1  0.1568961E-005  0.2089287E+04  0.7818608E-02  0.8565977E-01
         -1   -1    0    0    0  501 -0.00000000000E+00  0.00000000000E+00  0.87866258180E+03  0.87866258180E+03  0.00000000000E+00 0.  1.
          1   -1    0    0  501    0  0.00000000000E+00 -0.00000000000E+00 -0.12419782394E+04  0.12419782394E+04  0.00000000000E+00 0. -1.
         23    2    1    2    0    0  0.78844382799E+03 -0.47377465355E+03  0.31623754233E+03  0.97700685714E+03  0.91815703827E+02 0.  0.
         11    1    3    3    0    0  0.32561519313E+03 -0.14994765941E+03  0.14568031693E+03  0.38695259310E+03  0.00000000000E+00 0.  1.
        -11    1    3    3    0    0  0.46282863486E+03 -0.32382699414E+03  0.17055722540E+03  0.59005426404E+03  0.00000000000E+00 0. -1.
         22    1    1    2    0    0 -0.78844382799E+03  0.47377465355E+03 -0.67955319993E+03  0.11436339641E+04  0.00000000000E+00 0. -1.
<mgrwt>
<rscale>  0 0.20892868E+04</rscale>
<asrwt>0</asrwt>
<pdfrwt beam="1">  1        1 0.19107358E+00 0.20892868E+04</pdfrwt>
<pdfrwt beam="2">  1       -1 0.13517886E+00 0.20892868E+04</pdfrwt>
<totfact> 0.42090375E+00</totfact>
</mgrwt>
</event>
<event>
 6    1  0.1568961E-005  0.9801400E+03  0.7818608E-02  0.9330599E-01
          2   -1    0    0  501    0  0.00000000000E+00  0.00000000000E+00  0.13175896531E+04  0.13175896531E+04  0.00000000000E+00 0.  1.
         -2   -1    0    0    0  501 -0.00000000000E+00 -0.00000000000E+00 -0.18227875427E+03  0.18227875427E+03  0.00000000000E+00 0. -1.
         23    2    1    2    0    0  0.27933316324E+03 -0.36477635047E+03  0.81459802237E+03  0.93955996455E+03  0.90078782064E+02 0.  0.
         11    1    3    3    0    0  0.87982946518E+02 -0.17290156447E+03  0.39495873257E+03  0.44003221508E+03  0.00000000000E+00 0.  1.
        -11    1    3    3    0    0  0.19135021672E+03 -0.19187478600E+03  0.41963928980E+03  0.49952774947E+03  0.00000000000E+00 0. -1.
         22    1    1    2    0    0 -0.27933316324E+03  0.36477635047E+03  0.32071287641E+03  0.56030844277E+03  0.00000000000E+00 0. -1.
<mgrwt>
<rscale>  0 0.98013999E+03</rscale>
<asrwt>0</asrwt>
<pdfrwt beam="1">  1        2 0.20270609E+00 0.98013999E+03</pdfrwt>
<pdfrwt beam="2">  1       -2 0.28042886E-01 0.98013999E+03</pdfrwt>
<totfact> 0.18729435E+02</totfact>
</mgrwt>
</event>
<event>
 6    1  0.1568961E-005  0.4340366E+03  0.7818608E-02  0.1032592E+00
         -2   -1    0    0    0  501 -0.00000000000E+00  0.00000000000E+00  0.13778441667E+03  0.13778441667E+03  0.00000000000E+00 0.  1.
          2   -1    0    0  501    0  0.00000000000E+00 -0.00000000000E+00 -0.34181610558E+03  0.34181610558E+03  0.00000000000E+00 0. -1.
         23    2    1    2    0    0  0.10439479766E+03 -0.20303536516E+02  0.89753293188E+02  0.16715833066E+03  0.92605326503E+02 0.  0.
         13    1    3    3    0    0  0.76375038426E+00 -0.32801870449E+02  0.39379141130E+02  0.51256831503E+02  0.00000000000E+00 0. -1.
        -13    1    3    3    0    0  0.10363104728E+03  0.12498333933E+02  0.50374152059E+02  0.11590149916E+03  0.00000000000E+00 0.  1.
         22    1    1    2    0    0 -0.10439479766E+03  0.20303536516E+02 -0.29378498210E+03  0.31244219158E+03  0.00000000000E+00 0. -1.
<mgrwt>
<rscale>  0 0.43403655E+03</rscale>
<asrwt>0</asrwt>
<pdfrwt beam="1">  1        2 0.52587092E-01 0.43403655E+03</pdfrwt>
<pdfrwt beam="2">  1       -2 0.21197603E-01 0.43403655E+03</pdfrwt>
<totfact> 0.18147131E+03</totfact>
</mgrwt>
</event>
<event>
 6    1  0.1568961E-005  0.2498059E+04  0.7818608E-02  0.8403677E-01
          2   -1    0    0  501    0  0.00000000000E+00  0.00000000000E+00  0.13179253213E+04  0.13179253213E+04  0.00000000000E+00 0. -1.
         -2   -1    0    0    0  501 -0.00000000000E+00 -0.00000000000E+00 -0.11837352890E+04  0.11837352890E+04  0.00000000000E+00 0.  1.
         23    2    1    2    0    0 -0.69669317187E+03 -0.80232655187E+03  0.72118010509E+03  0.12877138994E+04  0.94852891729E+02 0.  0.
         11    1    3    3    0    0 -0.26310662315E+03 -0.31263704891E+03  0.33313755300E+03  0.52720740579E+03  0.00000000000E+00 0. -1.
        -11    1    3    3    0    0 -0.43358654872E+03 -0.48968950296E+03  0.38804255209E+03  0.76050649358E+03  0.00000000000E+00 0.  1.
         22    1    1    2    0    0  0.69669317187E+03  0.80232655187E+03 -0.58699007273E+03  0.12139467110E+04  0.00000000000E+00 0.  1.
<mgrwt>
<rscale>  0 0.24980590E+04</rscale>
<asrwt>0</asrwt>
<pdfrwt beam="1">  1        2 0.20275774E+00 0.24980590E+04</pdfrwt>
<pdfrwt beam="2">  1       -2 0.18211312E+00 0.24980590E+04</pdfrwt>
<totfact> 0.25244569E+00</totfact>
</mgrwt>
</event>
<event>
 6    1  0.1570369E-005  0.5805869E+04  0.7818608E-02  0.7714949E-01
         -2   -1    0    0    0  501 -0.00000000000E+00  0.00000000000E+00  0.28032635135E+04  0.28032635135E+04  0.00000000000E+00 0.  1.
          2   -1    0    0  501    0  0.00000000000E+00 -0.00000000000E+00 -0.30061497052E+04  0.30061497052E+04  0.00000000000E+00 0. -1.
         23    2    1    2    0    0 -0.24909940473E+04 -0.96923331291E+03 -0.12328333972E+04  0.29449314497E+04  0.90986259530E+02 0.  0.
         11    1    3    3    0    0 -0.79265280916E+03 -0.35055893841E+03 -0.41771825144E+03  0.96212191678E+03  0.00000000000E+00 0.  1.
        -11    1    3    3    0    0 -0.16983412382E+04 -0.61867437451E+03 -0.81511514576E+03  0.19828095329E+04  0.00000000000E+00 0. -1.
         22    1    1    2    0    0  0.24909940473E+04  0.96923331291E+03  0.10299472054E+04  0.28644817690E+04  0.00000000000E+00 0.  1.
<mgrwt>
<rscale>  0 0.58058694E+04</rscale>
<asrwt>0</asrwt>
<pdfrwt beam="1">  1        2 0.46248457E+00 0.58058694E+04</pdfrwt>
<pdfrwt beam="2">  1       -2 0.43127131E+00 0.58058694E+04</pdfrwt>
<totfact> 0.54586550E-03</totfact>
</mgrwt>
</event>
<event>
 6    1  0.1568961E-005  0.2000243E+04  0.7818608E-02  0.8606507E-01
         -1   -1    0    0    0  501 -0.00000000000E+00  0.00000000000E+00  0.11802646108E+04  0.11802646108E+04  0.00000000000E+00 0.  1.
          1   -1    0    0  501    0  0.00000000000E+00 -0.00000000000E+00 -0.84747360693E+03  0.84747360693E+03  0.00000000000E+00 0. -1.
         23    2    1    2    0    0  0.21404725910E+03  0.36164149303E+03  0.10843975210E+04  0.11666266366E+04  0.92189625936E+02 0.  0.
         13    1    3    3    0    0  0.25195291518E+02  0.12377902965E+03  0.33487914514E+03  0.35791073293E+03  0.00000000000E+00 0.  1.
        -13    1    3    3    0    0  0.18885196758E+03  0.23786246338E+03  0.74951837582E+03  0.80871590366E+03  0.00000000000E+00 0. -1.
         22    1    1    2    0    0 -0.21404725910E+03 -0.36164149303E+03 -0.75160651710E+03  0.86111158113E+03  0.00000000000E+00 0. -1.
<mgrwt>
<rscale>  0 0.20002431E+04</rscale>
<asrwt>0</asrwt>
<pdfrwt beam="1">  1        1 0.13038055E+00 0.20002431E+04</pdfrwt>
<pdfrwt beam="2">  1       -1 0.18157917E+00 0.20002431E+04</pdfrwt>
<totfact> 0.37851705E+00</totfact>
</mgrwt>
</event>
<event>
 6    1  0.1568961E-005  0.2065919E+04  0.7818608E-02  0.8576407E-01
          2   -1    0    0  501    0  0.00000000000E+00  0.00000000000E+00  0.25021356876E+04  0.25021356876E+04  0.00000000000E+00 0. -1.
         -2   -1    0    0    0  501 -0.00000000000E+00 -0.00000000000E+00 -0.42643787049E+03  0.42643787049E+03  0.00000000000E+00 0.  1.
         23    2    1    2    0    0 -0.98600531691E+03  0.43223829197E+02  0.14621467045E+04  0.17664549101E+04  0.91734286462E+02 0.  0.
         13    1    3    3    0    0 -0.57220096501E+03  0.46081140645E+02  0.92033910121E+03  0.10846941860E+04  0.00000000000E+00 0. -1.
        -13    1    3    3    0    0 -0.41380435190E+03 -0.28573114478E+01  0.54180760332E+03  0.68176072408E+03  0.00000000000E+00 0.  1.
         22    1    1    2    0    0  0.98600531691E+03 -0.43223829197E+02  0.61355111261E+03  0.11621186481E+04  0.00000000000E+00 0.  1.
<mgrwt>
<rscale>  0 0.20659191E+04</rscale>
<asrwt>0</asrwt>
<pdfrwt beam="1">  1        2 0.38494394E+00 0.20659191E+04</pdfrwt>
<pdfrwt beam="2">  1       -2 0.65605828E-01 0.20659191E+04</pdfrwt>
<totfact> 0.68671242E+00</totfact>
</mgrwt>
</event>
<event>
 6    1  0.1568961E-005  0.3527039E+04  0.7818608E-02  0.8107412E-01
         -2   -1    0    0    0  501 -0.00000000000E+00  0.00000000000E+00  0.14531773690E+04  0.14531773690E+04  0.00000000000E+00 0.  1.
          2   -1    0    0  501    0  0.00000000000E+00 -0.00000000000E+00 -0.21401388010E+04  0.21401388010E+04  0.00000000000E+00 0. -1.
         23    2    1    2    0    0  0.52242493935E+03  0.49606306050E+02 -0.20577362692E+04  0.21255245440E+04  0.90484422783E+02 0.  0.
         11    1    3    3    0    0  0.50356083627E+03  0.47772784151E+02 -0.20290107455E+04  0.20911098393E+04  0.00000000000E+00 0. -1.
        -11    1    3    3    0    0  0.18864103080E+02  0.18335218987E+01 -0.28725523704E+02  0.34414704701E+02  0.00000000000E+00 0.  1.
         22    1    1    2    0    0 -0.52242493935E+03 -0.49606306050E+02  0.13707748372E+04  0.14677916260E+04  0.00000000000E+00 0.  1.
<mgrwt>
<rscale>  0 0.35270391E+04</rscale>
<asrwt>0</asrwt>
<pdfrwt beam="1">  1        2 0.32925212E+00 0.35270391E+04</pdfrwt>
<pdfrwt beam="2">  1       -2 0.22356575E+00 0.35270391E+04</pdfrwt>
<totfact> 0.42928914E-01</totfact>
</mgrwt>
</event>
<event>
 6    1  0.1568961E-005  0.1163008E+04  0.7818608E-02  0.9145866E-01
          2   -1    0    0  501    0  0.00000000000E+00  0.00000000000E+00  0.20452001744E+04  0.20452001744E+04  0.00000000000E+00 0. -1.
         -2   -1    0    0    0  501 -0.00000000000E+00 -0.00000000000E+00 -0.16533678735E+03  0.16533678735E+03  0.00000000000E+00 0.  1.
         23    2    1    2    0    0  0.43957138035E+02 -0.51264831679E+02  0.20365521281E+04  0.20399155254E+04  0.95658077011E+02 0.  0.
         11    1    3    3    0    0  0.27216695256E+01 -0.70743046409E+02  0.11278204668E+04  0.11300402610E+04  0.00000000000E+00 0.  1.
        -11    1    3    3    0    0  0.41235468510E+02  0.19478214730E+02  0.90873166122E+03  0.90987526442E+03  0.00000000000E+00 0. -1.
         22    1    1    2    0    0 -0.43957138035E+02  0.51264831679E+02 -0.15668874103E+03  0.17062143628E+03  0.00000000000E+00 0.  1.
<mgrwt>
<rscale>  0 0.11630079E+04</rscale>
<asrwt>0</asrwt>
<pdfrwt beam="1">  1        2 0.31464616E+00 0.11630079E+04</pdfrwt>
<pdfrwt beam="2">  1       -2 0.25436430E-01 0.11630079E+04</pdfrwt>
<totfact> 0.86861771E+01</totfact>
</mgrwt>
</event>
<event>
 6    1  0.1568961E-005  0.2822473E+04  0.7818608E-02  0.8296325E-01
         -1   -1    0    0    0  501 -0.00000000000E+00  0.00000000000E+00  0.96830472039E+03  0.96830472039E+03  0.00000000000E+00 0.  1.
          1   -1    0    0  501    0  0.00000000000E+00 -0.00000000000E+00 -0.20567782253E+04  0.20567782253E+04  0.00000000000E+00 0. -1.
         23    2    1    2    0    0 -0.27537737289E+03  0.11784575642E+04 -0.13198512540E+04  0.17929585239E+04  0.89988929369E+02 0.  0.
         13    1    3    3    0    0 -0.20249485192E+03  0.79366388282E+03 -0.83465178552E+03  0.11694229889E+04  0.00000000000E+00 0. -1.
        -13    1    3    3    0    0 -0.72882520967E+02  0.38479368139E+03 -0.48519946850E+03  0.62353553494E+03  0.00000000000E+00 0.  1.
         22    1    1    2    0    0  0.27537737289E+03 -0.11784575642E+04  0.23137774908E+03  0.12321244219E+04  0.00000000000E+00 0.  1.
<mgrwt>
<rscale>  0 0.28224727E+04</rscale>
<asrwt>0</asrwt>
<pdfrwt beam="1">  1        1 0.31642742E+00 0.28224727E+04</pdfrwt>
<pdfrwt beam="2">  1       -1 0.14896996E+00 0.28224727E+04</pdfrwt>
<totfact> 0.83737140E-01</totfact>
</mgrwt>
</event>
<event>
 6    1  0.1568961E-005  0.2918256E+04  0.7818608E-02  0.8267467E-01
         -2   -1    0    0    0  501 -0.00000000000E+00  0.00000000000E+00  0.23451557512E+04  0.23451557512E+04  0.00000000000E+00 0.  1.
          2   -1    0    0  501    0  0.00000000000E+00 -0.00000000000E+00 -0.90785186667E+03  0.90785186667E+03  0.00000000000E+00 0. -1.
         23    2    1    2    0    0  0.79586985006E+03  0.64337373924E+03  0.18765090630E+04  0.21393470881E+04  0.90449507447E+02 0.  0.
         13    1    3    3    0    0  0.55589837762E+03  0.39543348293E+03  0.12295641679E+04  0.14061360847E+04  0.00000000000E+00 0. -1.
        -13    1    3    3    0    0  0.23997147245E+03  0.24794025631E+03  0.64694489506E+03  0.73321100341E+03  0.00000000000E+00 0.  1.
         22    1    1    2    0    0 -0.79586985006E+03 -0.64337373924E+03 -0.43920517851E+03  0.11136605297E+04  0.00000000000E+00 0. -1.
<mgrwt>
<rscale>  0 0.29182557E+04</rscale>
<asrwt>0</asrwt>
<pdfrwt beam="1">  1        2 0.13966952E+00 0.29182557E+04</pdfrwt>
<pdfrwt beam="2">  1       -2 0.36079319E+00 0.29182557E+04</pdfrwt>
<totfact> 0.33171423E-01</totfact>
</mgrwt>
</event>
<event>
 6    1  0.1568961E-005  0.1624871E+04  0.7818608E-02  0.8805413E-01
          2   -1    0    0  501    0  0.00000000000E+00  0.00000000000E+00  0.29071994047E+04  0.29071994047E+04  0.00000000000E+00 0.  1.
         -2   -1    0    0    0  501 -0.00000000000E+00 -0.00000000000E+00 -0.22704038396E+03  0.22704038396E+03  0.00000000000E+00 0. -1.
         23    2    1    2    0    0  0.69947419421E+03 -0.29784612106E+03  0.80503722668E+03  0.11108618697E+04  0.89177895926E+02 0.  0.
         13    1    3    3    0    0  0.60611862677E+03 -0.24435055344E+03  0.72938586380E+03  0.97933177269E+03  0.00000000000E+00 0.  1.
        -13    1    3    3    0    0  0.93355567435E+02 -0.53495567619E+02  0.75651362879E+02  0.13153009706E+03  0.00000000000E+00 0. -1.
         22    1    1    2    0    0 -0.69947419421E+03  0.29784612106E+03  0.18751217940E+04  0.20233779189E+04  0.00000000000E+00 0.  1.
<mgrwt>
<rscale>  0 0.16248713E+04</rscale>
<asrwt>0</asrwt>
<pdfrwt beam="1">  1        2 0.44726142E+00 0.16248713E+04</pdfrwt>
<pdfrwt beam="2">  1       -2 0.34929292E-01 0.16248713E+04</pdfrwt>
<totfact> 0.14708938E+01</totfact>
</mgrwt>
</event>
<event>
 6    1  0.1568961E-005  0.2410489E+04  0.7818608E-02  0.8435587E-01
         -2   -1    0    0    0  501 -0.00000000000E+00  0.00000000000E+00  0.34720633604E+03  0.34720633604E+03  0.00000000000E+00 0.  1.
          2   -1    0    0  501    0  0.00000000000E+00 -0.00000000000E+00 -0.41837204937E+04  0.41837204937E+04  0.00000000000E+00 0. -1.
         23    2    1    2    0    0  0.10141378788E+04  0.33851242940E+03 -0.29606922792E+04  0.31488522062E+04  0.80654463114E+02 0.  0.
         13    1    3    3    0    0  0.17968338773E+03  0.28136712394E+02 -0.50296474445E+03  0.53483766562E+03  0.00000000000E+00 0.  1.
        -13    1    3    3    0    0  0.83445449112E+03  0.31037571701E+03 -0.24577275347E+04  0.26140145406E+04  0.00000000000E+00 0. -1.
         22    1    1    2    0    0 -0.10141378788E+04 -0.33851242940E+03 -0.87582187851E+03  0.13820746235E+04  0.00000000000E+00 0.  1.
<mgrwt>
<rscale>  0 0.24104890E+04</rscale>
<asrwt>0</asrwt>
<pdfrwt beam="1">  1        2 0.64364935E+00 0.24104890E+04</pdfrwt>
<pdfrwt beam="2">  1       -2 0.53416356E-01 0.24104890E+04</pdfrwt>
<totfact> 0.71686160E-01</totfact>
</mgrwt>
</event>
<event>
 6    1  0.1568961E-005  0.3197637E+04  0.7818608E-02  0.8189442E-01
         -2   -1    0    0    0  501 -0.00000000000E+00  0.00000000000E+00  0.90787092310E+03  0.90787092310E+03  0.00000000000E+00 0.  1.
          2   -1    0    0  501    0  0.00000000000E+00 -0.00000000000E+00 -0.28156210114E+04  0.28156210114E+04  0.00000000000E+00 0. -1.
         23    2    1    2    0    0 -0.37640851900E+03 -0.15171769973E+04 -0.13386483117E+04  0.20599456483E+04  0.88810795911E+02 0.  0.
         11    1    3    3    0    0 -0.10708312035E+03 -0.58258031836E+03 -0.53722550724E+03  0.79967360068E+03  0.00000000000E+00 0. -1.
        -11    1    3    3    0    0 -0.26932539865E+03 -0.93459667889E+03 -0.80142280449E+03  0.12602720477E+04  0.00000000000E+00 0.  1.
         22    1    1    2    0    0  0.37640851900E+03  0.15171769973E+04 -0.56910177659E+03  0.16635462862E+04  0.00000000000E+00 0.  1.
<mgrwt>
<rscale>  0 0.31976369E+04</rscale>
<asrwt>0</asrwt>
<pdfrwt beam="1">  1        2 0.43317246E+00 0.31976369E+04</pdfrwt>
<pdfrwt beam="2">  1       -2 0.13967245E+00 0.31976369E+04</pdfrwt>
<totfact> 0.68823708E-01</totfact>
</mgrwt>
</event>
<event>
 6    1  0.1568961E-005  0.2213090E+04  0.7818608E-02  0.8512999E-01
          1   -1    0    0  501    0  0.00000000000E+00  0.00000000000E+00  0.84304779426E+03  0.84304779426E+03  0.00000000000E+00 0. -1.
         -1   -1    0    0    0  501 -0.00000000000E+00 -0.00000000000E+00 -0.14523990241E+04  0.14523990241E+04  0.00000000000E+00 0.  1.
         23    2    1    2    0    0  0.65618943469E+02  0.10695618209E+04 -0.58358108240E+03  0.12235641592E+04  0.90961736764E+02 0.  0.
         11    1    3    3    0    0  0.31352757134E+02  0.34065513728E+03 -0.14019067189E+03  0.36970575113E+03  0.00000000000E+00 0.  1.
        -11    1    3    3    0    0  0.34266186334E+02  0.72890668359E+03 -0.44339041051E+03  0.85385840808E+03  0.00000000000E+00 0. -1.
         22    1    1    2    0    0 -0.65618943469E+02 -0.10695618209E+04 -0.25770147405E+02  0.10718826591E+04  0.00000000000E+00 0. -1.
<mgrwt>
<rscale>  0 0.22130900E+04</rscale>
<asrwt>0</asrwt>
<pdfrwt beam="1">  1        1 0.12969966E+00 0.22130900E+04</pdfrwt>
<pdfrwt beam="2">  1       -1 0.22344600E+00 0.22130900E+04</pdfrwt>
<totfact> 0.19292465E+00</totfact>
</mgrwt>
</event>
<event>
 6    1  0.1568961E-005  0.3318444E+04  0.7818608E-02  0.8158218E-01
         -2   -1    0    0    0  501 -0.00000000000E+00  0.00000000000E+00  0.79918358278E+03  0.79918358278E+03  0.00000000000E+00 0.  1.
          2   -1    0    0  501    0  0.00000000000E+00 -0.00000000000E+00 -0.34447872700E+04  0.34447872700E+04  0.00000000000E+00 0. -1.
         23    2    1    2    0    0 -0.61375826578E+03 -0.41567906572E+03 -0.32208564968E+04  0.33056723452E+04  0.63755674731E+02 0.  0.
         13    1    3    3    0    0 -0.47300240169E+03 -0.28676152412E+03 -0.23932425265E+04  0.24563332905E+04  0.00000000000E+00 0. -1.
        -13    1    3    3    0    0 -0.14075586409E+03 -0.12891754160E+03 -0.82761397037E+03  0.84933905465E+03  0.00000000000E+00 0.  1.
         22    1    1    2    0    0  0.61375826578E+03  0.41567906572E+03  0.57525280957E+03  0.93829850763E+03  0.00000000000E+00 0.  1.
<mgrwt>
<rscale>  0 0.33184439E+04</rscale>
<asrwt>0</asrwt>
<pdfrwt beam="1">  1        2 0.52996728E+00 0.33184439E+04</pdfrwt>
<pdfrwt beam="2">  1       -2 0.12295132E+00 0.33184439E+04</pdfrwt>
<totfact> 0.36966958E-01</totfact>
</mgrwt>
</event>
<event>
 6    1  0.1568961E-005  0.6370548E+04  0.7818608E-02  0.7646082E-01
          2   -1    0    0  501    0  0.00000000000E+00  0.00000000000E+00  0.35504782128E+04  0.35504782128E+04  0.00000000000E+00 0. -1.
         -2   -1    0    0    0  501 -0.00000000000E+00 -0.00000000000E+00 -0.28576345789E+04  0.28576345789E+04  0.00000000000E+00 0.  1.
         23    2    1    2    0    0  0.17129960002E+04  0.22970103464E+04  0.17444076959E+04  0.33558351495E+04  0.89774792159E+02 0.  0.
         11    1    3    3    0    0  0.65323761544E+03  0.83700038818E+03  0.60361878227E+03  0.12213290574E+04  0.00000000000E+00 0. -1.
        -11    1    3    3    0    0  0.10597583848E+04  0.14600099582E+04  0.11407889136E+04  0.21345060922E+04  0.00000000000E+00 0.  1.
         22    1    1    2    0    0 -0.17129960002E+04 -0.22970103464E+04 -0.10515640619E+04  0.30522776421E+04  0.00000000000E+00 0.  1.
<mgrwt>
<rscale>  0 0.63705476E+04</rscale>
<asrwt>0</asrwt>
<pdfrwt beam="1">  1        2 0.54622742E+00 0.63705476E+04</pdfrwt>
<pdfrwt beam="2">  1       -2 0.43963609E+00 0.63705476E+04</pdfrwt>
<totfact> 0.19954078E-03</totfact>
</mgrwt>
</event>
<event>
 6    1  0.1568961E-005  0.2945639E+04  0.7818608E-02  0.8259427E-01
         -2   -1    0    0    0  501 -0.00000000000E+00  0.00000000000E+00  0.10507498037E+04  0.10507498037E+04  0.00000000000E+00 0.  1.
          2   -1    0    0  501    0  0.00000000000E+00 -0.00000000000E+00 -0.20644277203E+04  0.20644277203E+04  0.00000000000E+00 0. -1.
         23    2    1    2    0    0 -0.61787371540E+03 -0.70390001159E+03  0.69288921418E+03  0.11684842953E+04  0.89537315251E+02 0.  0.
         13    1    3    3    0    0 -0.51928880607E+03 -0.62999836109E+03  0.58106018945E+03  0.10020926818E+04  0.00000000000E+00 0. -1.
        -13    1    3    3    0    0 -0.98584909333E+02 -0.73901650499E+02  0.11182902473E+03  0.16639161357E+03  0.00000000000E+00 0.  1.
         22    1    1    2    0    0  0.61787371540E+03  0.70390001159E+03 -0.17065671308E+04  0.19466932287E+04  0.00000000000E+00 0. -1.
<mgrwt>
<rscale>  0 0.29456388E+04</rscale>
<asrwt>0</asrwt>
<pdfrwt beam="1">  1        2 0.31760427E+00 0.29456388E+04</pdfrwt>
<pdfrwt beam="2">  1       -2 0.16165382E+00 0.29456388E+04</pdfrwt>
<totfact> 0.12954046E+00</totfact>
</mgrwt>
</event>
<event>
 6    1  0.1568961E-005  0.2176527E+04  0.7818608E-02  0.8528262E-01
          1   -1    0    0  501    0  0.00000000000E+00  0.00000000000E+00  0.77723362208E+03  0.77723362208E+03  0.00000000000E+00 0. -1.
         -1   -1    0    0    0  501 -0.00000000000E+00 -0.00000000000E+00 -0.15237593431E+04  0.15237593431E+04  0.00000000000E+00 0.  1.
         23    2    1    2    0    0  0.89126627386E+02  0.70976824807E+03  0.49012483720E+03  0.87235055897E+03  0.95176782960E+02 0.  0.
         11    1    3    3    0    0 -0.18582787360E+02  0.12896014278E+03  0.10302531509E+03  0.16610314254E+03  0.00000000000E+00 0. -1.
        -11    1    3    3    0    0  0.10770941475E+03  0.58080810529E+03  0.38709952211E+03  0.70624741644E+03  0.00000000000E+00 0.  1.
         22    1    1    2    0    0 -0.89126627386E+02 -0.70976824807E+03 -0.12366505583E+04  0.14286424063E+04  0.00000000000E+00 0.  1.
<mgrwt>
<rscale>  0 0.21765266E+04</rscale>
<asrwt>0</asrwt>
<pdfrwt beam="1">  1        1 0.11957440E+00 0.21765266E+04</pdfrwt>
<pdfrwt beam="2">  1       -1 0.23442451E+00 0.21765266E+04</pdfrwt>
<totfact> 0.18662509E+00</totfact>
</mgrwt>
</event>
<event>
 6    1  0.1568961E-005  0.2511551E+04  0.7818608E-02  0.8398882E-01
         -2   -1    0    0    0  501 -0.00000000000E+00  0.00000000000E+00  0.44838050013E+03  0.44838050013E+03  0.00000000000E+00 0.  1.
          2   -1    0    0  501    0  0.00000000000E+00 -0.00000000000E+00 -0.35170392744E+04  0.35170392744E+04  0.00000000000E+00 0. -1.
         23    2    1    2    0    0 -0.86904087718E+03  0.72651263527E+03 -0.68790665059E+03  0.13289385344E+04  0.99042479639E+02 0.  0.
         13    1    3    3    0    0 -0.44776966925E+03  0.32741546772E+03 -0.37595324882E+03  0.67010402961E+03  0.00000000000E+00 0. -1.
        -13    1    3    3    0    0 -0.42127120793E+03  0.39909716754E+03 -0.31195340177E+03  0.65883450475E+03  0.00000000000E+00 0.  1.
         22    1    1    2    0    0  0.86904087718E+03 -0.72651263527E+03 -0.23807521237E+04  0.26364812402E+04  0.00000000000E+00 0. -1.
<mgrwt>
<rscale>  0 0.25115508E+04</rscale>
<asrwt>0</asrwt>
<pdfrwt beam="1">  1        2 0.54108299E+00 0.25115508E+04</pdfrwt>
<pdfrwt beam="2">  1       -2 0.68981612E-01 0.25115508E+04</pdfrwt>
<totfact> 0.13543224E+00</totfact>
</mgrwt>
</event>
<event>
 6    1  0.1568961E-005  0.1944873E+04  0.7818608E-02  0.8632837E-01
         -2   -1    0    0    0  501 -0.00000000000E+00  0.00000000000E+00  0.76114275322E+03  0.76114275322E+03  0.00000000000E+00 0.  1.
          2   -1    0    0  501    0  0.00000000000E+00 -0.00000000000E+00 -0.12423857470E+04  0.12423857470E+04  0.00000000000E+00 0. -1.
         23    2    1    2    0    0  0.71448440561E+03 -0.40028502634E+03 -0.77712662249E+03  0.11327454102E+04  0.92034280119E+02 0.  0.
         13    1    3    3    0    0  0.11406424657E+03 -0.88259536396E+02 -0.17685902685E+03  0.22820936329E+03  0.00000000000E+00 0. -1.
        -13    1    3    3    0    0  0.60042015903E+03 -0.31202548995E+03 -0.60026759563E+03  0.90453604689E+03  0.00000000000E+00 0.  1.
         22    1    1    2    0    0 -0.71448440561E+03  0.40028502634E+03  0.29588362870E+03  0.87078309004E+03  0.00000000000E+00 0.  1.
<mgrwt>
<rscale>  0 0.19448732E+04</rscale>
<asrwt>0</asrwt>
<pdfrwt beam="1">  1        2 0.19113627E+00 0.19448732E+04</pdfrwt>
<pdfrwt beam="2">  1       -2 0.11709889E+00 0.19448732E+04</pdfrwt>
<totfact> 0.94099080E+00</totfact>
</mgrwt>
</event>
<event>
 6    1  0.1568961E-005  0.1753872E+04  0.7818608E-02  0.8731222E-01
         -2   -1    0    0    0  501 -0.00000000000E+00  0.00000000000E+00  0.95757308899E+03  0.95757308899E+03  0.00000000000E+00 0.  1.
          2   -1    0    0  501    0  0.00000000000E+00 -0.00000000000E+00 -0.80308895581E+03  0.80308895581E+03  0.00000000000E+00 0. -1.
         23    2    1    2    0    0  0.27156033258E+03  0.79631959627E+03  0.31725318286E+03  0.90371182619E+03  0.90418853845E+02 0.  0.
         11    1    3    3    0    0  0.72753280242E+02  0.11976857134E+03  0.68367686737E+02  0.15592206725E+03  0.00000000000E+00 0.  1.
        -11    1    3    3    0    0  0.19880705233E+03  0.67655102493E+03  0.24888549613E+03  0.74778975894E+03  0.00000000000E+00 0. -1.
         22    1    1    2    0    0 -0.27156033258E+03 -0.79631959627E+03 -0.16276904969E+03  0.85695021861E+03  0.00000000000E+00 0. -1.
<mgrwt>
<rscale>  0 0.17538716E+04</rscale>
<asrwt>0</asrwt>
<pdfrwt beam="1">  1        2 0.12355215E+00 0.17538716E+04</pdfrwt>
<pdfrwt beam="2">  1       -2 0.14731894E+00 0.17538716E+04</pdfrwt>
<totfact> 0.10200987E+01</totfact>
</mgrwt>
</event>
<event>
 6    1  0.1568961E-005  0.1259834E+04  0.7818608E-02  0.9062038E-01
          2   -1    0    0  501    0  0.00000000000E+00  0.00000000000E+00  0.28332609056E+04  0.28332609056E+04  0.00000000000E+00 0.  1.
         -2   -1    0    0    0  501 -0.00000000000E+00 -0.00000000000E+00 -0.14004906079E+03  0.14004906079E+03  0.00000000000E+00 0. -1.
         23    2    1    2    0    0 -0.49997890125E+03  0.24862814536E+02  0.22431125196E+04  0.23001187128E+04  0.91625632706E+02 0.  0.
         11    1    3    3    0    0 -0.36331755370E+03  0.36644818200E+02  0.14526610606E+04  0.14978540131E+04  0.00000000000E+00 0.  1.
        -11    1    3    3    0    0 -0.13666134754E+03 -0.11782003664E+02  0.79045145892E+03  0.80226469973E+03  0.00000000000E+00 0. -1.
         22    1    1    2    0    0  0.49997890125E+03 -0.24862814536E+02  0.45009932524E+03  0.67319125352E+03  0.00000000000E+00 0. -1.
<mgrwt>
<rscale>  0 0.12598342E+04</rscale>
<asrwt>0</asrwt>
<pdfrwt beam="1">  1        2 0.43588625E+00 0.12598342E+04</pdfrwt>
<pdfrwt beam="2">  1       -2 0.21546011E-01 0.12598342E+04</pdfrwt>
<totfact> 0.41052808E+01</totfact>
</mgrwt>
</event>
<event>
 6    1  0.1568961E-005  0.3363716E+04  0.7818608E-02  0.8146869E-01
          1   -1    0    0  501    0  0.00000000000E+00  0.00000000000E+00  0.10372316869E+04  0.10372316869E+04  0.00000000000E+00 0. -1.
         -1   -1    0    0    0  501 -0.00000000000E+00 -0.00000000000E+00 -0.27271119522E+04  0.27271119522E+04  0.00000000000E+00 0.  1.
         23    2    1    2    0    0  0.56277839586E+02  0.72638362636E+03  0.84926085133E+03  0.11227460205E+04  0.92272775661E+02 0.  0.
         13    1    3    3    0    0  0.77288257737E+02  0.53655483688E+03  0.65660668358E+03  0.85146750067E+03  0.00000000000E+00 0.  1.
        -13    1    3    3    0    0 -0.21010418152E+02  0.18982878948E+03  0.19265416774E+03  0.27127851986E+03  0.00000000000E+00 0. -1.
         22    1    1    2    0    0 -0.56277839586E+02 -0.72638362636E+03 -0.25391411167E+04  0.26415976185E+04  0.00000000000E+00 0.  1.
<mgrwt>
<rscale>  0 0.33637164E+04</rscale>
<asrwt>0</asrwt>
<pdfrwt beam="1">  1        1 0.15957411E+00 0.33637164E+04</pdfrwt>
<pdfrwt beam="2">  1       -1 0.41955568E+00 0.33637164E+04</pdfrwt>
<totfact> 0.61276692E-02</totfact>
</mgrwt>
</event>
<event>
 6    1  0.1568961E-005  0.1596045E+04  0.7818608E-02  0.8822981E-01
          1   -1    0    0  501    0  0.00000000000E+00  0.00000000000E+00  0.10746801951E+04  0.10746801951E+04  0.00000000000E+00 0. -1.
         -1   -1    0    0    0  501 -0.00000000000E+00 -0.00000000000E+00 -0.59258585027E+03  0.59258585027E+03  0.00000000000E+00 0.  1.
         23    2    1    2    0    0  0.49864976067E+03  0.34450308490E+03 -0.29619076781E+03  0.68082715933E+03  0.91992883569E+02 0.  0.
         11    1    3    3    0    0  0.10486252942E+03  0.10925626017E+03 -0.10274203143E+03  0.18300001499E+03  0.00000000000E+00 0.  1.
        -11    1    3    3    0    0  0.39378723125E+03  0.23524682473E+03 -0.19344873638E+03  0.49782714435E+03  0.00000000000E+00 0. -1.
         22    1    1    2    0    0 -0.49864976067E+03 -0.34450308490E+03  0.77828511260E+03  0.98643888600E+03  0.00000000000E+00 0. -1.
<mgrwt>
<rscale>  0 0.15960455E+04</rscale>
<asrwt>0</asrwt>
<pdfrwt beam="1">  1        1 0.16533541E+00 0.15960455E+04</pdfrwt>
<pdfrwt beam="2">  1       -1 0.91167054E-01 0.15960455E+04</pdfrwt>
<totfact> 0.14934400E+01</totfact>
</mgrwt>
</event>
<event>
 6    1  0.1568961E-005  0.1017780E+04  0.7818608E-02  0.9289256E-01
          2   -1    0    0  501    0  0.00000000000E+00  0.00000000000E+00  0.23793389727E+04  0.23793389727E+04  0.00000000000E+00 0. -1.
         -2   -1    0    0    0  501 -0.00000000000E+00 -0.00000000000E+00 -0.10884072692E+03  0.10884072692E+03  0.00000000000E+00 0.  1.
         23    2    1    2    0    0 -0.27442618108E+03  0.33153070651E+03  0.49993372785E+03  0.66605976658E+03  0.92084429633E+02 0.  0.
         13    1    3    3    0    0 -0.14066968391E+03  0.14272872090E+03  0.16835000666E+03  0.26172728647E+03  0.00000000000E+00 0.  1.
        -13    1    3    3    0    0 -0.13375649717E+03  0.18880198562E+03  0.33158372119E+03  0.40433248010E+03  0.00000000000E+00 0. -1.
         22    1    1    2    0    0  0.27442618108E+03 -0.33153070651E+03  0.17705645180E+04  0.18221199331E+04  0.00000000000E+00 0. -1.
<mgrwt>
<rscale>  0 0.10177799E+04</rscale>
<asrwt>0</asrwt>
<pdfrwt beam="1">  1        2 0.36605211E+00 0.10177799E+04</pdfrwt>
<pdfrwt beam="2">  1       -2 0.16744729E-01 0.10177799E+04</pdfrwt>
<totfact> 0.11970866E+02</totfact>
</mgrwt>
</event>
<event>
 6    1  0.1984471E-005  0.3106314E+04  0.7818608E-02  0.8214007E-01
         -1   -1    0    0    0  501 -0.00000000000E+00  0.00000000000E+00  0.13639905212E+04  0.13639905212E+04  0.00000000000E+00 0.  1.
          1   -1    0    0  501    0  0.00000000000E+00 -0.00000000000E+00 -0.17685584327E+04  0.17685584327E+04  0.00000000000E+00 0. -1.
         23    2    1    2    0    0 -0.70971936310E+03  0.58773118323E+03 -0.14616033877E+04  0.17302460208E+04  0.91308880144E+02 0.  0.
         13    1    3    3    0    0 -0.35384333647E+03  0.24082361183E+03 -0.71634697398E+03  0.83447834359E+03  0.00000000000E+00 0. -1.
        -13    1    3    3    0    0 -0.35587602664E+03  0.34690757140E+03 -0.74525641367E+03  0.89576767721E+03  0.00000000000E+00 0.  1.
         22    1    1    2    0    0  0.70971936310E+03 -0.58773118323E+03  0.10570354762E+04  0.14023029331E+04  0.00000000000E+00 0.  1.
<mgrwt>
<rscale>  0 0.31063142E+04</rscale>
<asrwt>0</asrwt>
<pdfrwt beam="1">  1        1 0.27208591E+00 0.31063142E+04</pdfrwt>
<pdfrwt beam="2">  1       -1 0.20984469E+00 0.31063142E+04</pdfrwt>
<totfact> 0.46518015E-01</totfact>
</mgrwt>
</event>
<event>
 6    1  0.1568961E-005  0.1007604E+04  0.7818608E-02  0.9300244E-01
         -2   -1    0    0    0  501 -0.00000000000E+00  0.00000000000E+00  0.11784798694E+03  0.11784798694E+03  0.00000000000E+00 0.  1.
          2   -1    0    0  501    0  0.00000000000E+00 -0.00000000000E+00 -0.21537618120E+04  0.21537618120E+04  0.00000000000E+00 0. -1.
         23    2    1    2    0    0  0.29754540339E+03  0.13660031556E+03 -0.18773450488E+04  0.19078283122E+04  0.90507034732E+02 0.  0.
         13    1    3    3    0    0  0.41039331743E+02  0.58045170796E+02 -0.42854443976E+03  0.43440051273E+03  0.00000000000E+00 0. -1.
        -13    1    3    3    0    0  0.25650607165E+03  0.78555144766E+02 -0.14488006090E+04  0.14734277995E+04  0.00000000000E+00 0.  1.
         22    1    1    2    0    0 -0.29754540339E+03 -0.13660031556E+03 -0.15856877628E+03  0.36378148675E+03  0.00000000000E+00 0.  1.
<mgrwt>
<rscale>  0 0.10076041E+04</rscale>
<asrwt>0</asrwt>
<pdfrwt beam="1">  1        2 0.33134798E+00 0.10076041E+04</pdfrwt>
<pdfrwt beam="2">  1       -2 0.18130459E-01 0.10076041E+04</pdfrwt>
<totfact> 0.13962091E+02</totfact>
</mgrwt>
</event>
<event>
 6    1  0.1568961E-005  0.3893702E+04  0.7818608E-02  0.8026340E-01
          2   -1    0    0  501    0  0.00000000000E+00  0.00000000000E+00  0.34183451374E+04  0.34183451374E+04  0.00000000000E+00 0. -1.
         -2   -1    0    0    0  501 -0.00000000000E+00 -0.00000000000E+00 -0.11087904280E+04  0.11087904280E+04  0.00000000000E+00 0.  1.
         23    2    1    2    0    0  0.83916190443E+03  0.54586050564E+03  0.30953260461E+04  0.32545032592E+04  0.92691632172E+02 0.  0.
         11    1    3    3    0    0  0.38737720932E+03  0.24592558511E+03  0.15683664451E+04  0.16341094828E+04  0.00000000000E+00 0. -1.
        -11    1    3    3    0    0  0.45178469511E+03  0.29993492053E+03  0.15269596010E+04  0.16203937763E+04  0.00000000000E+00 0.  1.
         22    1    1    2    0    0 -0.83916190443E+03 -0.54586050564E+03 -0.78577133665E+03  0.12726323063E+04  0.00000000000E+00 0.  1.
<mgrwt>
<rscale>  0 0.38937018E+04</rscale>
<asrwt>0</asrwt>
<pdfrwt beam="1">  1        2 0.52589925E+00 0.38937018E+04</pdfrwt>
<pdfrwt beam="2">  1       -2 0.17058314E+00 0.38937018E+04</pdfrwt>
<totfact> 0.15533441E-01</totfact>
</mgrwt>
</event>
<event>
 6    1  0.1568961E-005  0.1716085E+04  0.7818608E-02  0.8752243E-01
          1   -1    0    0  501    0  0.00000000000E+00  0.00000000000E+00  0.24340703724E+04  0.24340703724E+04  0.00000000000E+00 0.  1.
         -1   -1    0    0    0  501 -0.00000000000E+00 -0.00000000000E+00 -0.30247141284E+03  0.30247141284E+03  0.00000000000E+00 0. -1.
         23    2    1    2    0    0 -0.25754270921E+03  0.25206727556E+03  0.23064451027E+04  0.23359954930E+04  0.85555671676E+02 0.  0.
         11    1    3    3    0    0 -0.79590935332E+02  0.59077208028E+02  0.88307801445E+03  0.88862343718E+03  0.00000000000E+00 0. -1.
        -11    1    3    3    0    0 -0.17795177387E+03  0.19299006753E+03  0.14233670882E+04  0.14473720558E+04  0.00000000000E+00 0.  1.
         22    1    1    2    0    0  0.25754270921E+03 -0.25206727556E+03 -0.17484614314E+03  0.40054629226E+03  0.00000000000E+00 0. -1.
<mgrwt>
<rscale>  0 0.17160847E+04</rscale>
<asrwt>0</asrwt>
<pdfrwt beam="1">  1        1 0.37447235E+00 0.17160847E+04</pdfrwt>
<pdfrwt beam="2">  1       -1 0.46534065E-01 0.17160847E+04</pdfrwt>
<totfact> 0.65855618E+00</totfact>
</mgrwt>
</event>
<event>
 6    1  0.1568961E-005  0.4359539E+04  0.7818608E-02  0.7935700E-01
          1   -1    0    0  501    0  0.00000000000E+00  0.00000000000E+00  0.19239411960E+04  0.19239411960E+04  0.00000000000E+00 0. -1.
         -1   -1    0    0    0  501 -0.00000000000E+00 -0.00000000000E+00 -0.24696156844E+04  0.24696156844E+04  0.00000000000E+00 0.  1.
         23    2    1    2    0    0 -0.16926780743E+04 -0.12104113567E+04 -0.92372943512E+03  0.22785674576E+04  0.91317436447E+02 0.  0.
         13    1    3    3    0    0 -0.16281172495E+04 -0.11760949238E+04 -0.90584439830E+03  0.22032973294E+04  0.00000000000E+00 0.  1.
        -13    1    3    3    0    0 -0.64560824733E+02 -0.34316432938E+02 -0.17885036816E+02  0.75270128217E+02  0.00000000000E+00 0. -1.
         22    1    1    2    0    0  0.16926780743E+04  0.12104113567E+04  0.37805494669E+03  0.21149894227E+04  0.00000000000E+00 0.  1.
<mgrwt>
<rscale>  0 0.43595391E+04</rscale>
<asrwt>0</asrwt>
<pdfrwt beam="1">  1        1 0.29599095E+00 0.43595391E+04</pdfrwt>
<pdfrwt beam="2">  1       -1 0.37994088E+00 0.43595391E+04</pdfrwt>
<totfact> 0.24972858E-02</totfact>
</mgrwt>
</event>
<event>
 6    1  0.1568961E-005  0.2857899E+04  0.7818608E-02  0.8285515E-01
         -2   -1    0    0    0  501 -0.00000000000E+00  0.00000000000E+00  0.12584274927E+04  0.12584274927E+04  0.00000000000E+00 0.  1.
          2   -1    0    0  501    0  0.00000000000E+00 -0.00000000000E+00 -0.16225777391E+04  0.16225777391E+04  0.00000000000E+00 0. -1.
         23    2    1    2    0    0  0.87258832156E+03  0.27427132495E+03 -0.12867579249E+04  0.15818362409E+04  0.99120114605E+02 0.  0.
         13    1    3    3    0    0  0.19026292213E+03  0.99795687162E+02 -0.33117285431E+03  0.39475893675E+03  0.00000000000E+00 0. -1.
        -13    1    3    3    0    0  0.68232539943E+03  0.17447563779E+03 -0.95558507060E+03  0.11870773042E+04  0.00000000000E+00 0.  1.
         22    1    1    2    0    0 -0.87258832156E+03 -0.27427132495E+03  0.92260767847E+03  0.12991689909E+04  0.00000000000E+00 0.  1.
<mgrwt>
<rscale>  0 0.28578988E+04</rscale>
<asrwt>0</asrwt>
<pdfrwt beam="1">  1        2 0.24962734E+00 0.28578988E+04</pdfrwt>
<pdfrwt beam="2">  1       -2 0.19360423E+00 0.28578988E+04</pdfrwt>
<totfact> 0.13756834E+00</totfact>
</mgrwt>
</event>
<event>
 6    1  0.1568961E-005  0.2516313E+04  0.7818608E-02  0.8397197E-01
         -1   -1    0    0    0  501 -0.00000000000E+00  0.00000000000E+00  0.11668751278E+04  0.11668751278E+04  0.00000000000E+00 0.  1.
          1   -1    0    0  501    0  0.00000000000E+00 -0.00000000000E+00 -0.13565782600E+04  0.13565782600E+04  0.00000000000E+00 0. -1.
         23    2    1    2    0    0  0.11617831848E+03 -0.16211568282E+03 -0.13390270356E+04  0.13569524957E+04  0.92454189896E+02 0.  0.
         11    1    3    3    0    0  0.10314906340E+03 -0.94482402778E+02 -0.67362161473E+03  0.68799181212E+03  0.00000000000E+00 0. -1.
        -11    1    3    3    0    0  0.13029255088E+02 -0.67633280038E+02 -0.66540542085E+03  0.66896068357E+03  0.00000000000E+00 0.  1.
         22    1    1    2    0    0 -0.11617831848E+03  0.16211568282E+03  0.11493239034E+04  0.11665008921E+04  0.00000000000E+00 0.  1.
<mgrwt>
<rscale>  0 0.25163127E+04</rscale>
<asrwt>0</asrwt>
<pdfrwt beam="1">  1        1 0.20870435E+00 0.25163127E+04</pdfrwt>
<pdfrwt beam="2">  1       -1 0.17951925E+00 0.25163127E+04</pdfrwt>
<totfact> 0.15344014E+00</totfact>
</mgrwt>
</event>
<event>
 6    1  0.1568961E-005  0.3158593E+04  0.7818608E-02  0.8199839E-01
         -2   -1    0    0    0  501 -0.00000000000E+00  0.00000000000E+00  0.11803967466E+04  0.11803967466E+04  0.00000000000E+00 0.  1.
          2   -1    0    0  501    0  0.00000000000E+00 -0.00000000000E+00 -0.21129985944E+04  0.21129985944E+04  0.00000000000E+00 0. -1.
         23    2    1    2    0    0  0.12001739562E+04 -0.45735114400E+03 -0.14225593268E+04  0.19187514142E+04  0.91347453153E+02 0.  0.
         13    1    3    3    0    0  0.75755850022E+03 -0.30424027131E+03 -0.96493776491E+03  0.12639469586E+04  0.00000000000E+00 0.  1.
        -13    1    3    3    0    0  0.44261545601E+03 -0.15311087269E+03 -0.45762156191E+03  0.65480445567E+03  0.00000000000E+00 0. -1.
         22    1    1    2    0    0 -0.12001739562E+04  0.45735114400E+03  0.48995747900E+03  0.13746439267E+04  0.00000000000E+00 0.  1.
<mgrwt>
<rscale>  0 0.31585925E+04</rscale>
<asrwt>0</asrwt>
<pdfrwt beam="1">  1        2 0.32507671E+00 0.31585925E+04</pdfrwt>
<pdfrwt beam="2">  1       -2 0.18159950E+00 0.31585925E+04</pdfrwt>
<totfact> 0.86312081E-01</totfact>
</mgrwt>
</event>
<event>
 6    1  0.1568961E-005  0.2549634E+04  0.7818608E-02  0.8385514E-01
          2   -1    0    0  501    0  0.00000000000E+00  0.00000000000E+00  0.19552037309E+04  0.19552037309E+04  0.00000000000E+00 0.  1.
         -2   -1    0    0    0  501 -0.00000000000E+00 -0.00000000000E+00 -0.83119612796E+03  0.83119612796E+03  0.00000000000E+00 0. -1.
         23    2    1    2    0    0  0.10804194594E+04  0.52023642298E+03  0.95149965260E+02  0.12063681558E+04  0.91205633350E+02 0.  0.
         11    1    3    3    0    0  0.46295698296E+03  0.21397920931E+03  0.85011391366E+02  0.51705242166E+03  0.00000000000E+00 0.  1.
        -11    1    3    3    0    0  0.61746247640E+03  0.30625721367E+03  0.10138573894E+02  0.68931573417E+03  0.00000000000E+00 0. -1.
         22    1    1    2    0    0 -0.10804194594E+04 -0.52023642298E+03  0.10288576377E+04  0.15800317030E+04  0.00000000000E+00 0. -1.
<mgrwt>
<rscale>  0 0.25496335E+04</rscale>
<asrwt>0</asrwt>
<pdfrwt beam="1">  1        2 0.30080057E+00 0.25496335E+04</pdfrwt>
<pdfrwt beam="2">  1       -2 0.12787633E+00 0.25496335E+04</pdfrwt>
<totfact> 0.28458346E+00</totfact>
</mgrwt>
</event>
<event>
 6    1  0.1568961E-005  0.3878108E+04  0.7818608E-02  0.8029598E-01
         -2   -1    0    0    0  501 -0.00000000000E+00  0.00000000000E+00  0.16640003009E+04  0.16640003009E+04  0.00000000000E+00 0.  1.
          2   -1    0    0  501    0  0.00000000000E+00 -0.00000000000E+00 -0.22595735470E+04  0.22595735470E+04  0.00000000000E+00 0. -1.
         23    2    1    2    0    0 -0.14523512420E+04 -0.17730287012E+03 -0.15837145960E+04  0.21580190441E+04  0.90187777818E+02 0.  0.
         11    1    3    3    0    0 -0.13436115913E+04 -0.18297048121E+03 -0.14861225681E+04  0.20117978508E+04  0.00000000000E+00 0.  1.
        -11    1    3    3    0    0 -0.10873965065E+03  0.56676110874E+01 -0.97592027891E+02  0.14622119322E+03  0.00000000000E+00 0. -1.
         22    1    1    2    0    0  0.14523512420E+04  0.17730287012E+03  0.98814134991E+03  0.17655548038E+04  0.00000000000E+00 0.  1.
<mgrwt>
<rscale>  0 0.38781083E+04</rscale>
<asrwt>0</asrwt>
<pdfrwt beam="1">  1        2 0.34762670E+00 0.38781083E+04</pdfrwt>
<pdfrwt beam="2">  1       -2 0.25600005E+00 0.38781083E+04</pdfrwt>
<totfact> 0.22478448E-01</totfact>
</mgrwt>
</event>
<event>
 6    1  0.1568961E-005  0.3202498E+04  0.7818608E-02  0.8188158E-01
         -1   -1    0    0    0  501 -0.00000000000E+00  0.00000000000E+00  0.29146336542E+04  0.29146336542E+04  0.00000000000E+00 0.  1.
          1   -1    0    0  501    0  0.00000000000E+00 -0.00000000000E+00 -0.87969846286E+03  0.87969846286E+03  0.00000000000E+00 0. -1.
         23    2    1    2    0    0  0.11214966832E+04 -0.89284530997E+03  0.17631350767E+03  0.14471205542E+04  0.90243488765E+02 0.  0.
         13    1    3    3    0    0  0.67734283574E+03 -0.48648150827E+03  0.85569946704E+02  0.83831962330E+03  0.00000000000E+00 0. -1.
        -13    1    3    3    0    0  0.44415384747E+03 -0.40636380170E+03  0.90743560968E+02  0.60880093086E+03  0.00000000000E+00 0.  1.
         22    1    1    2    0    0 -0.11214966832E+04  0.89284530997E+03  0.18586216836E+04  0.23472115629E+04  0.00000000000E+00 0.  1.
<mgrwt>
<rscale>  0 0.32024982E+04</rscale>
<asrwt>0</asrwt>
<pdfrwt beam="1">  1        1 0.13533823E+00 0.32024982E+04</pdfrwt>
<pdfrwt beam="2">  1       -1 0.44840517E+00 0.32024982E+04</pdfrwt>
<totfact> 0.52446992E-02</totfact>
</mgrwt>
</event>
<event>
 6    1  0.1568961E-005  0.4732279E+04  0.7818608E-02  0.7871187E-01
          2   -1    0    0  501    0  0.00000000000E+00  0.00000000000E+00  0.31684423000E+04  0.31684423000E+04  0.00000000000E+00 0. -1.
         -2   -1    0    0    0  501 -0.00000000000E+00 -0.00000000000E+00 -0.17669930654E+04  0.17669930654E+04  0.00000000000E+00 0.  1.
         23    2    1    2    0    0  0.21656857247E+04  0.88543295913E+03  0.33890012760E+03  0.23657667510E+04  0.88390272914E+02 0.  0.
         11    1    3    3    0    0  0.77157339032E+03  0.27043341299E+03  0.12462682626E+03  0.82703783066E+03  0.00000000000E+00 0.  1.
        -11    1    3    3    0    0  0.13941123343E+04  0.61499954614E+03  0.21427330133E+03  0.15387289203E+04  0.00000000000E+00 0. -1.
         22    1    1    2    0    0 -0.21656857247E+04 -0.88543295913E+03  0.10625491070E+04  0.25696686144E+04  0.00000000000E+00 0.  1.
<mgrwt>
<rscale>  0 0.47322788E+04</rscale>
<asrwt>0</asrwt>
<pdfrwt beam="1">  1        2 0.48745266E+00 0.47322788E+04</pdfrwt>
<pdfrwt beam="2">  1       -2 0.27184509E+00 0.47322788E+04</pdfrwt>
<totfact> 0.47704865E-02</totfact>
</mgrwt>
</event>
<event>
 6    1  0.1568961E-005  0.9739027E+03  0.7818608E-02  0.9337640E-01
          2   -1    0    0  501    0  0.00000000000E+00  0.00000000000E+00  0.16535975274E+04  0.16535975274E+04  0.00000000000E+00 0. -1.
         -2   -1    0    0    0  501 -0.00000000000E+00 -0.00000000000E+00 -0.14339742586E+03  0.14339742586E+03  0.00000000000E+00 0.  1.
         23    2    1    2    0    0  0.70451447210E+01 -0.47610968417E+03  0.90893819630E+03  0.10300230215E+04  0.89714629010E+02 0.  0.
         13    1    3    3    0    0 -0.17261450935E+02 -0.30619360993E+03  0.50053862514E+03  0.58701907951E+03  0.00000000000E+00 0. -1.
        -13    1    3    3    0    0  0.24306595656E+02 -0.16991607424E+03  0.40839957115E+03  0.44300394196E+03  0.00000000000E+00 0.  1.
         22    1    1    2    0    0 -0.70451447210E+01  0.47610968417E+03  0.60126190523E+03  0.76697193176E+03  0.00000000000E+00 0. -1.
<mgrwt>
<rscale>  0 0.97390272E+03</rscale>
<asrwt>0</asrwt>
<pdfrwt beam="1">  1        2 0.25439961E+00 0.97390272E+03</pdfrwt>
<pdfrwt beam="2">  1       -2 0.22061144E-01 0.97390272E+03</pdfrwt>
<totfact> 0.18699906E+02</totfact>
</mgrwt>
</event>
<event>
 6    1  0.1568961E-005  0.1783198E+04  0.7818608E-02  0.8715286E-01
         -1   -1    0    0    0  501 -0.00000000000E+00  0.00000000000E+00  0.60086725570E+03  0.60086725570E+03  0.00000000000E+00 0.  1.
          1   -1    0    0  501    0  0.00000000000E+00 -0.00000000000E+00 -0.13230027940E+04  0.13230027940E+04  0.00000000000E+00 0. -1.
         23    2    1    2    0    0 -0.30637650749E+03 -0.61946084751E+03  0.24163677353E+03  0.73792933660E+03  0.92482806840E+02 0.  0.
         13    1    3    3    0    0 -0.12774625515E+03 -0.23978472047E+03  0.14243835103E+03  0.30676457051E+03  0.00000000000E+00 0.  1.
        -13    1    3    3    0    0 -0.17863025234E+03 -0.37967612704E+03  0.99198422494E+02  0.43116476609E+03  0.00000000000E+00 0. -1.
         22    1    1    2    0    0  0.30637650749E+03  0.61946084751E+03 -0.96377231179E+03  0.11859407131E+04  0.00000000000E+00 0. -1.
<mgrwt>
<rscale>  0 0.17831983E+04</rscale>
<asrwt>0</asrwt>
<pdfrwt beam="1">  1        1 0.20353889E+00 0.17831983E+04</pdfrwt>
<pdfrwt beam="2">  1       -1 0.92441118E-01 0.17831983E+04</pdfrwt>
<totfact> 0.93688905E+00</totfact>
</mgrwt>
</event>
<event>
 6    1  0.1568961E-005  0.3313351E+04  0.7818608E-02  0.8159506E-01
          2   -1    0    0  501    0  0.00000000000E+00  0.00000000000E+00  0.38647053329E+04  0.38647053329E+04  0.00000000000E+00 0. -1.
         -2   -1    0    0    0  501 -0.00000000000E+00 -0.00000000000E+00 -0.71016395860E+03  0.71016395860E+03  0.00000000000E+00 0.  1.
         23    2    1    2    0    0  0.14546635107E+04 -0.24133887226E+03  0.53974319460E+03  0.15729599156E+04  0.92681171058E+02 0.  0.
         11    1    3    3    0    0  0.47501829421E+03 -0.11073058808E+03  0.21061971888E+03  0.53128552489E+03  0.00000000000E+00 0. -1.
        -11    1    3    3    0    0  0.97964521646E+03 -0.13060828418E+03  0.32912347572E+03  0.10416743907E+04  0.00000000000E+00 0.  1.
         22    1    1    2    0    0 -0.14546635107E+04  0.24133887226E+03  0.26147981797E+04  0.30019093759E+04  0.00000000000E+00 0. -1.
<mgrwt>
<rscale>  0 0.33133514E+04</rscale>
<asrwt>0</asrwt>
<pdfrwt beam="1">  1        2 0.59457004E+00 0.33133514E+04</pdfrwt>
<pdfrwt beam="2">  1       -2 0.10925600E+00 0.33133514E+04</pdfrwt>
<totfact> 0.24358982E-01</totfact>
</mgrwt>
</event>
<event>
 6    1  0.1568961E-005  0.2110201E+04  0.7818608E-02  0.8556763E-01
         -2   -1    0    0    0  501 -0.00000000000E+00  0.00000000000E+00  0.10675608238E+04  0.10675608238E+04  0.00000000000E+00 0. -1.
          2   -1    0    0  501    0  0.00000000000E+00 -0.00000000000E+00 -0.10427855881E+04  0.10427855881E+04  0.00000000000E+00 0.  1.
         23    2    1    2    0    0 -0.10393075443E+04 -0.12982738091E+03 -0.97188553280E+02  0.10558842333E+04  0.91818183631E+02 0.  0.
         11    1    3    3    0    0 -0.77040864206E+03 -0.62855800454E+02 -0.94803852151E+02  0.77876061649E+03  0.00000000000E+00 0. -1.
        -11    1    3    3    0    0 -0.26889890219E+03 -0.66971580452E+02 -0.23847011286E+01  0.27712361680E+03  0.00000000000E+00 0.  1.
         22    1    1    2    0    0  0.10393075443E+04  0.12982738091E+03  0.12196378901E+03  0.10544621787E+04  0.00000000000E+00 0.  1.
<mgrwt>
<rscale>  0 0.21102010E+04</rscale>
<asrwt>0</asrwt>
<pdfrwt beam="1">  1        2 0.16042855E+00 0.21102010E+04</pdfrwt>
<pdfrwt beam="2">  1       -2 0.16424013E+00 0.21102010E+04</pdfrwt>
<totfact> 0.51066508E+00</totfact>
</mgrwt>
</event>
<event>
 6    1  0.1568961E-005  0.1984485E+04  0.7818608E-02  0.8613909E-01
          1   -1    0    0  501    0  0.00000000000E+00  0.00000000000E+00  0.21223245192E+04  0.21223245192E+04  0.00000000000E+00 0. -1.
         -1   -1    0    0    0  501 -0.00000000000E+00 -0.00000000000E+00 -0.46389960912E+03  0.46389960912E+03  0.00000000000E+00 0.  1.
         23    2    1    2    0    0  0.36599724600E+03 -0.15731465880E+03 -0.35035874105E+03  0.53831943254E+03  0.91294458035E+02 0.  0.
         13    1    3    3    0    0  0.14549279652E+03 -0.15015396914E+02 -0.12456047826E+03  0.19211696627E+03  0.00000000000E+00 0.  1.
        -13    1    3    3    0    0  0.22050444948E+03 -0.14229926189E+03 -0.22579826279E+03  0.34620246627E+03  0.00000000000E+00 0. -1.
         22    1    1    2    0    0 -0.36599724600E+03  0.15731465880E+03  0.20087836511E+04  0.20479046958E+04  0.00000000000E+00 0. -1.
<mgrwt>
<rscale>  0 0.19844853E+04</rscale>
<asrwt>0</asrwt>
<pdfrwt beam="1">  1        1 0.32651146E+00 0.19844853E+04</pdfrwt>
<pdfrwt beam="2">  1       -1 0.71369172E-01 0.19844853E+04</pdfrwt>
<totfact> 0.45316476E+00</totfact>
</mgrwt>
</event>
<event>
 6    1  0.1568961E-005  0.2782114E+04  0.7818608E-02  0.8308843E-01
         -1   -1    0    0    0  501 -0.00000000000E+00  0.00000000000E+00  0.74433559863E+03  0.74433559863E+03  0.00000000000E+00 0.  1.
          1   -1    0    0  501    0  0.00000000000E+00 -0.00000000000E+00 -0.25996861185E+04  0.25996861185E+04  0.00000000000E+00 0. -1.
         23    2    1    2    0    0 -0.66889000275E+03  0.10789752798E+04 -0.24949931871E+03  0.12969849391E+04  0.91205987408E+02 0.  0.
         11    1    3    3    0    0 -0.10656429087E+03  0.23728929866E+03 -0.38044225068E+02  0.26288690042E+03  0.00000000000E+00 0. -1.
        -11    1    3    3    0    0 -0.56232571188E+03  0.84168598113E+03 -0.21145509364E+03  0.10340980387E+04  0.00000000000E+00 0.  1.
         22    1    1    2    0    0  0.66889000275E+03 -0.10789752798E+04 -0.16058512012E+04  0.20470367780E+04  0.00000000000E+00 0. -1.
<mgrwt>
<rscale>  0 0.27821135E+04</rscale>
<asrwt>0</asrwt>
<pdfrwt beam="1">  1        1 0.39995171E+00 0.27821135E+04</pdfrwt>
<pdfrwt beam="2">  1       -1 0.11451317E+00 0.27821135E+04</pdfrwt>
<totfact> 0.69374873E-01</totfact>
</mgrwt>
</event>
<event>
 6    1  0.1568961E-005  0.3549790E+04  0.7818608E-02  0.8102091E-01
         -1   -1    0    0    0  501 -0.00000000000E+00  0.00000000000E+00  0.95706381241E+03  0.95706381241E+03  0.00000000000E+00 0.  1.
          1   -1    0    0  501    0  0.00000000000E+00 -0.00000000000E+00 -0.32915804273E+04  0.32915804273E+04  0.00000000000E+00 0. -1.
         23    2    1    2    0    0  0.17883455131E+03 -0.58534732302E+03  0.82444943500E+03  0.10309307985E+04  0.92131184435E+02 0.  0.
         11    1    3    3    0    0 -0.65766379001E+01 -0.56753702700E+02  0.56178368163E+02  0.80126425015E+02  0.00000000000E+00 0. -1.
        -11    1    3    3    0    0  0.18541118921E+03 -0.52859362033E+03  0.76827106684E+03  0.95080437350E+03  0.00000000000E+00 0.  1.
         22    1    1    2    0    0 -0.17883455131E+03  0.58534732302E+03 -0.31589660498E+04  0.32177134412E+04  0.00000000000E+00 0. -1.
<mgrwt>
<rscale>  0 0.35497901E+04</rscale>
<asrwt>0</asrwt>
<pdfrwt beam="1">  1        1 0.50639698E+00 0.35497901E+04</pdfrwt>
<pdfrwt beam="2">  1       -1 0.14724059E+00 0.35497901E+04</pdfrwt>
<totfact> 0.10786992E-01</totfact>
</mgrwt>
</event>
<event>
 6    1  0.1568961E-005  0.1205443E+04  0.7818608E-02  0.9108105E-01
          1   -1    0    0  501    0  0.00000000000E+00  0.00000000000E+00  0.11598168398E+04  0.11598168398E+04  0.00000000000E+00 0. -1.
         -1   -1    0    0    0  501 -0.00000000000E+00 -0.00000000000E+00 -0.31321618887E+03  0.31321618887E+03  0.00000000000E+00 0.  1.
         23    2    1    2    0    0  0.53616539139E+03  0.13625880310E+02  0.10004643110E+03  0.55379301938E+03  0.94965406277E+02 0.  0.
         13    1    3    3    0    0  0.24127232800E+03  0.42461706963E+02  0.14581202370E+02  0.24541382251E+03  0.00000000000E+00 0. -1.
        -13    1    3    3    0    0  0.29489306339E+03 -0.28835826652E+02  0.85465228730E+02  0.30837919686E+03  0.00000000000E+00 0.  1.
         22    1    1    2    0    0 -0.53616539139E+03 -0.13625880310E+02  0.74655421986E+03  0.91924000932E+03  0.00000000000E+00 0. -1.
<mgrwt>
<rscale>  0 0.12054433E+04</rscale>
<asrwt>0</asrwt>
<pdfrwt beam="1">  1        1 0.17843336E+00 0.12054433E+04</pdfrwt>
<pdfrwt beam="2">  1       -1 0.48187107E-01 0.12054433E+04</pdfrwt>
<totfact> 0.48711267E+01</totfact>
</mgrwt>
</event>
<event>
 6    1  0.1568961E-005  0.2099383E+04  0.7818608E-02  0.8561515E-01
         -1   -1    0    0    0  501 -0.00000000000E+00  0.00000000000E+00  0.71769573214E+03  0.71769573214E+03  0.00000000000E+00 0.  1.
          1   -1    0    0  501    0  0.00000000000E+00 -0.00000000000E+00 -0.15352634067E+04  0.15352634067E+04  0.00000000000E+00 0. -1.
         23    2    1    2    0    0  0.10045920743E+04 -0.29252998652E+03 -0.35128398160E+03  0.11074463668E+04  0.90873487896E+02 0.  0.
         13    1    3    3    0    0  0.66528931633E+03 -0.15228981111E+03 -0.24643998505E+03  0.72562712685E+03  0.00000000000E+00 0.  1.
        -13    1    3    3    0    0  0.33930275795E+03 -0.14024017541E+03 -0.10484399655E+03  0.38181923991E+03  0.00000000000E+00 0. -1.
         22    1    1    2    0    0 -0.10045920743E+04  0.29252998652E+03 -0.46628369297E+03  0.11455127721E+04  0.00000000000E+00 0.  1.
<mgrwt>
<rscale>  0 0.20993828E+04</rscale>
<asrwt>0</asrwt>
<pdfrwt beam="1">  1        1 0.23619437E+00 0.20993828E+04</pdfrwt>
<pdfrwt beam="2">  1       -1 0.11041473E+00 0.20993828E+04</pdfrwt>
<totfact> 0.43019185E+00</totfact>
</mgrwt>
</event>
<event>
 6    1  0.1568961E-005  0.1235754E+04  0.7818608E-02  0.9082124E-01
          1   -1    0    0  501    0  0.00000000000E+00  0.00000000000E+00  0.19536397490E+04  0.19536397490E+04  0.00000000000E+00 0. -1.
         -1   -1    0    0    0  501 -0.00000000000E+00 -0.00000000000E+00 -0.19541588356E+03  0.19541588356E+03  0.00000000000E+00 0.  1.
         23    2    1    2    0    0  0.11353403148E+03  0.17701722973E+03  0.18879280598E+04  0.19019761838E+04  0.94952456293E+02 0.  0.
         13    1    3    3    0    0  0.89397362892E+02  0.10850925508E+03  0.85358001263E+03  0.86508091234E+03  0.00000000000E+00 0. -1.
        -13    1    3    3    0    0  0.24136668589E+02  0.68507974649E+02  0.10343480472E+04  0.10368952715E+04  0.00000000000E+00 0.  1.
         22    1    1    2    0    0 -0.11353403148E+03 -0.17701722973E+03 -0.12970419440E+03  0.24707944870E+03  0.00000000000E+00 0.  1.
<mgrwt>
<rscale>  0 0.12357544E+04</rscale>
<asrwt>0</asrwt>
<pdfrwt beam="1">  1        1 0.30055995E+00 0.12357544E+04</pdfrwt>
<pdfrwt beam="2">  1       -1 0.30063983E-01 0.12357544E+04</pdfrwt>
<totfact> 0.32197070E+01</totfact>
</mgrwt>
</event>
<event>
 6    1  0.1568961E-005  0.3595500E+04  0.7818608E-02  0.8091523E-01
         -2   -1    0    0    0  501 -0.00000000000E+00  0.00000000000E+00  0.22803407299E+04  0.22803407299E+04  0.00000000000E+00 0.  1.
          2   -1    0    0  501    0  0.00000000000E+00 -0.00000000000E+00 -0.14172903262E+04  0.14172903262E+04  0.00000000000E+00 0. -1.
         23    2    1    2    0    0 -0.37879838883E+03 -0.65936634142E+02 -0.13730561177E+04  0.14287087935E+04  0.89943623378E+02 0.  0.
         11    1    3    3    0    0 -0.18120280878E+03 -0.69159765116E+02 -0.58804406040E+03  0.61920380166E+03  0.00000000000E+00 0.  1.
        -11    1    3    3    0    0 -0.19759558005E+03  0.32231309747E+01 -0.78501205725E+03  0.80950499187E+03  0.00000000000E+00 0. -1.
         22    1    1    2    0    0  0.37879838883E+03  0.65936634142E+02  0.22361065213E+04  0.22689222626E+04  0.00000000000E+00 0.  1.
<mgrwt>
<rscale>  0 0.35954999E+04</rscale>
<asrwt>0</asrwt>
<pdfrwt beam="1">  1        2 0.21804467E+00 0.35954999E+04</pdfrwt>
<pdfrwt beam="2">  1       -2 0.35082165E+00 0.35954999E+04</pdfrwt>
<totfact> 0.17722265E-01</totfact>
</mgrwt>
</event>
<event>
 6    1  0.1568961E-005  0.1513116E+04  0.7818608E-02  0.8875777E-01
          2   -1    0    0  501    0  0.00000000000E+00  0.00000000000E+00  0.13299817310E+04  0.13299817310E+04  0.00000000000E+00 0. -1.
         -2   -1    0    0    0  501 -0.00000000000E+00 -0.00000000000E+00 -0.43036692557E+03  0.43036692557E+03  0.00000000000E+00 0.  1.
         23    2    1    2    0    0  0.55551426498E+03  0.24995196320E+03 -0.64518261870E+02  0.61989933549E+03  0.95081530926E+02 0.  0.
         13    1    3    3    0    0  0.49081328353E+03  0.21923161662E+03 -0.87615298517E+02  0.54464357295E+03  0.00000000000E+00 0. -1.
        -13    1    3    3    0    0  0.64700981446E+02  0.30720346579E+02  0.23097036646E+02  0.75255762542E+02  0.00000000000E+00 0.  1.
         22    1    1    2    0    0 -0.55551426498E+03 -0.24995196320E+03  0.96413306729E+03  0.11404493211E+04  0.00000000000E+00 0. -1.
<mgrwt>
<rscale>  0 0.15131162E+04</rscale>
<asrwt>0</asrwt>
<pdfrwt beam="1">  1        2 0.20461257E+00 0.15131162E+04</pdfrwt>
<pdfrwt beam="2">  1       -2 0.66210297E-01 0.15131162E+04</pdfrwt>
<totfact> 0.32158033E+01</totfact>
</mgrwt>
</event>
<event>
 6    1  0.1568961E-005  0.2813187E+04  0.7818608E-02  0.8299186E-01
         -2   -1    0    0    0  501 -0.00000000000E+00  0.00000000000E+00  0.66337266875E+03  0.66337266875E+03  0.00000000000E+00 0.  1.
          2   -1    0    0  501    0  0.00000000000E+00 -0.00000000000E+00 -0.29824941581E+04  0.29824941581E+04  0.00000000000E+00 0. -1.
         23    2    1    2    0    0 -0.33381745538E+03 -0.56752209236E+02 -0.29282952993E+04  0.29489108472E+04  0.80665469131E+02 0.  0.
         13    1    3    3    0    0 -0.23341610346E+03 -0.62801839151E+02 -0.18032838214E+04  0.18194119074E+04  0.00000000000E+00 0. -1.
        -13    1    3    3    0    0 -0.10040135192E+03  0.60496299151E+01 -0.11250114779E+04  0.11294989397E+04  0.00000000000E+00 0.  1.
         22    1    1    2    0    0  0.33381745538E+03  0.56752209236E+02  0.60917381000E+03  0.69695597964E+03  0.00000000000E+00 0.  1.
<mgrwt>
<rscale>  0 0.28131869E+04</rscale>
<asrwt>0</asrwt>
<pdfrwt beam="1">  1        2 0.45884526E+00 0.28131869E+04</pdfrwt>
<pdfrwt beam="2">  1       -2 0.10205733E+00 0.28131869E+04</pdfrwt>
<totfact> 0.12208337E+00</totfact>
</mgrwt>
</event>
<event>
 6    1  0.1568961E-005  0.3042851E+04  0.7818608E-02  0.8231599E-01
         -1   -1    0    0    0  501 -0.00000000000E+00  0.00000000000E+00  0.50795045261E+04  0.50795045261E+04  0.00000000000E+00 0.  1.
          1   -1    0    0  501    0  0.00000000000E+00 -0.00000000000E+00 -0.45570094192E+03  0.45570094192E+03  0.00000000000E+00 0. -1.
         23    2    1    2    0    0 -0.85998646889E+03  0.12526513587E+04  0.22362621911E+04  0.27051761296E+04  0.91635972239E+02 0.  0.
         13    1    3    3    0    0 -0.64092086782E+03  0.96595681211E+03  0.16426142861E+04  0.20104809908E+04  0.00000000000E+00 0.  1.
        -13    1    3    3    0    0 -0.21906560108E+03  0.28669454657E+03  0.59364790505E+03  0.69469513873E+03  0.00000000000E+00 0. -1.
         22    1    1    2    0    0  0.85998646889E+03 -0.12526513587E+04  0.23875413931E+04  0.28300293385E+04  0.00000000000E+00 0.  1.
<mgrwt>
<rscale>  0 0.30428506E+04</rscale>
<asrwt>0</asrwt>
<pdfrwt beam="1">  1        1 0.70107841E-01 0.30428506E+04</pdfrwt>
<pdfrwt beam="2">  1       -1 0.78146219E+00 0.30428506E+04</pdfrwt>
<totfact> 0.38193167E-03</totfact>
</mgrwt>
</event>
<event>
 6    1  0.1568961E-005  0.2762373E+04  0.7818608E-02  0.8315046E-01
         -2   -1    0    0    0  501 -0.00000000000E+00  0.00000000000E+00  0.92816713461E+03  0.92816713461E+03  0.00000000000E+00 0.  1.
          2   -1    0    0  501    0  0.00000000000E+00 -0.00000000000E+00 -0.20553147627E+04  0.20553147627E+04  0.00000000000E+00 0. -1.
         23    2    1    2    0    0  0.19769489607E+03  0.21661316762E+03 -0.20202373194E+04  0.20434745926E+04  0.91788058648E+02 0.  0.
         13    1    3    3    0    0  0.17416797670E+03  0.22197216116E+03 -0.18102884883E+04  0.18321436995E+04  0.00000000000E+00 0.  1.
        -13    1    3    3    0    0  0.23526919376E+02 -0.53589935378E+01 -0.20994883101E+03  0.21133089312E+03  0.00000000000E+00 0. -1.
         22    1    1    2    0    0 -0.19769489607E+03 -0.21661316762E+03  0.89308969125E+03  0.94000730473E+03  0.00000000000E+00 0.  1.
<mgrwt>
<rscale>  0 0.27623726E+04</rscale>
<asrwt>0</asrwt>
<pdfrwt beam="1">  1        2 0.31620227E+00 0.27623726E+04</pdfrwt>
<pdfrwt beam="2">  1       -2 0.14279494E+00 0.27623726E+04</pdfrwt>
<totfact> 0.18529974E+00</totfact>
</mgrwt>
</event>
<event>
 6    1  0.1568961E-005  0.1682906E+04  0.7818608E-02  0.8771174E-01
          2   -1    0    0  501    0  0.00000000000E+00  0.00000000000E+00  0.53386712030E+03  0.53386712030E+03  0.00000000000E+00 0.  1.
         -2   -1    0    0    0  501 -0.00000000000E+00 -0.00000000000E+00 -0.13262531979E+04  0.13262531979E+04  0.00000000000E+00 0. -1.
         23    2    1    2    0    0  0.27383657128E+03 -0.62805988732E+03  0.13759158108E+03  0.70499948665E+03  0.92990016491E+02 0.  0.
         13    1    3    3    0    0  0.85899671371E+02 -0.10686787635E+03  0.19181789302E+02  0.13844651523E+03  0.00000000000E+00 0.  1.
        -13    1    3    3    0    0  0.18793689991E+03 -0.52119201096E+03  0.11840979178E+03  0.56655297142E+03  0.00000000000E+00 0. -1.
         22    1    1    2    0    0 -0.27383657128E+03  0.62805988732E+03 -0.92997765869E+03  0.11551208316E+04  0.00000000000E+00 0. -1.
<mgrwt>
<rscale>  0 0.16829058E+04</rscale>
<asrwt>0</asrwt>
<pdfrwt beam="1">  1        2 0.82133403E-01 0.16829058E+04</pdfrwt>
<pdfrwt beam="2">  1       -2 0.20403895E+00 0.16829058E+04</pdfrwt>
<totfact> 0.67938789E+00</totfact>
</mgrwt>
</event>
<event>
 6    1  0.1568961E-005  0.2610130E+04  0.7818608E-02  0.8364769E-01
         -2   -1    0    0    0  501 -0.00000000000E+00  0.00000000000E+00  0.45638968935E+03  0.45638968935E+03  0.00000000000E+00 0.  1.
          2   -1    0    0  501    0  0.00000000000E+00 -0.00000000000E+00 -0.37318858642E+04  0.37318858642E+04  0.00000000000E+00 0. -1.
         23    2    1    2    0    0  0.10579447084E+04  0.74706515961E+03 -0.14036988284E+04  0.19120992280E+04  0.91649867451E+02 0.  0.
         11    1    3    3    0    0  0.51372875367E+03  0.31026385557E+03 -0.67227921178E+03  0.90118823284E+03  0.00000000000E+00 0. -1.
        -11    1    3    3    0    0  0.54421595473E+03  0.43680130403E+03 -0.73141961658E+03  0.10109109952E+04  0.00000000000E+00 0.  1.
         22    1    1    2    0    0 -0.10579447084E+04 -0.74706515961E+03 -0.18717973465E+04  0.22761763255E+04  0.00000000000E+00 0.  1.
<mgrwt>
<rscale>  0 0.26101297E+04</rscale>
<asrwt>0</asrwt>
<pdfrwt beam="1">  1        2 0.57413629E+00 0.26101297E+04</pdfrwt>
<pdfrwt beam="2">  1       -2 0.70213798E-01 0.26101297E+04</pdfrwt>
<totfact> 0.90325081E-01</totfact>
</mgrwt>
</event>
<event>
 6    1  0.1568961E-005  0.2991651E+04  0.7818608E-02  0.8246119E-01
          1   -1    0    0  501    0  0.00000000000E+00  0.00000000000E+00  0.18994089941E+04  0.18994089941E+04  0.00000000000E+00 0. -1.
         -1   -1    0    0    0  501 -0.00000000000E+00 -0.00000000000E+00 -0.11779944888E+04  0.11779944888E+04  0.00000000000E+00 0.  1.
         23    2    1    2    0    0 -0.76657711950E+03 -0.12463435768E+04  0.46307203987E+02  0.14659498969E+04  0.76498049414E+02 0.  0.
         13    1    3    3    0    0 -0.40754244351E+03 -0.68296466377E+03  0.61761453089E+02  0.79771301376E+03  0.00000000000E+00 0. -1.
        -13    1    3    3    0    0 -0.35903467598E+03 -0.56337891300E+03 -0.15454249102E+02  0.66823688314E+03  0.00000000000E+00 0.  1.
         22    1    1    2    0    0  0.76657711950E+03  0.12463435768E+04  0.67510730137E+03  0.16114535860E+04  0.00000000000E+00 0.  1.
<mgrwt>
<rscale>  0 0.29916506E+04</rscale>
<asrwt>0</asrwt>
<pdfrwt beam="1">  1        1 0.29221677E+00 0.29916506E+04</pdfrwt>
<pdfrwt beam="2">  1       -1 0.18122992E+00 0.29916506E+04</pdfrwt>
<totfact> 0.60566644E-01</totfact>
</mgrwt>
</event>
<event>
 6    1  0.1568961E-005  0.1235141E+04  0.7818608E-02  0.9082642E-01
          2   -1    0    0  501    0  0.00000000000E+00  0.00000000000E+00  0.36476839999E+03  0.36476839999E+03  0.00000000000E+00 0. -1.
         -2   -1    0    0    0  501 -0.00000000000E+00 -0.00000000000E+00 -0.10455769841E+04  0.10455769841E+04  0.00000000000E+00 0.  1.
         23    2    1    2    0    0  0.25431643791E+03 -0.48233381273E+03 -0.66499770472E+03  0.86484310053E+03  0.91699965940E+02 0.  0.
         11    1    3    3    0    0  0.10889624836E+03 -0.17759560242E+03 -0.32215011511E+03  0.38363952817E+03  0.00000000000E+00 0. -1.
        -11    1    3    3    0    0  0.14542018954E+03 -0.30473821031E+03 -0.34284758961E+03  0.48120357236E+03  0.00000000000E+00 0.  1.
         22    1    1    2    0    0 -0.25431643791E+03  0.48233381273E+03 -0.15810879404E+02  0.54550228358E+03  0.00000000000E+00 0. -1.
<mgrwt>
<rscale>  0 0.12351412E+04</rscale>
<asrwt>0</asrwt>
<pdfrwt beam="1">  1        2 0.56118215E-01 0.12351412E+04</pdfrwt>
<pdfrwt beam="2">  1       -2 0.16085800E+00 0.12351412E+04</pdfrwt>
<totfact> 0.21534777E+01</totfact>
</mgrwt>
</event>
<event>
 6    1  0.1568961E-005  0.3034375E+04  0.7818608E-02  0.8233983E-01
         -1   -1    0    0    0  501 -0.00000000000E+00  0.00000000000E+00  0.13312433659E+04  0.13312433659E+04  0.00000000000E+00 0.  1.
          1   -1    0    0  501    0  0.00000000000E+00 -0.00000000000E+00 -0.17291032953E+04  0.17291032953E+04  0.00000000000E+00 0. -1.
         23    2    1    2    0    0  0.25377779145E+03  0.13341823191E+04  0.48000741693E+03  0.14432205975E+04  0.89626695334E+02 0.  0.
         11    1    3    3    0    0  0.36715423789E+02  0.13625799549E+03  0.23755252259E+02  0.14310337413E+03  0.00000000000E+00 0.  1.
        -11    1    3    3    0    0  0.21706236766E+03  0.11979243237E+04  0.45625216467E+03  0.13001172233E+04  0.00000000000E+00 0. -1.
         22    1    1    2    0    0 -0.25377779145E+03 -0.13341823191E+04 -0.87786734633E+03  0.16171260637E+04  0.00000000000E+00 0. -1.
<mgrwt>
<rscale>  0 0.30343746E+04</rscale>
<asrwt>0</asrwt>
<pdfrwt beam="1">  1        1 0.26601589E+00 0.30343746E+04</pdfrwt>
<pdfrwt beam="2">  1       -1 0.20480667E+00 0.30343746E+04</pdfrwt>
<totfact> 0.53890170E-01</totfact>
</mgrwt>
</event>
<event>
 6    1  0.1568961E-005  0.7949726E+03  0.7818608E-02  0.9567323E-01
         -2   -1    0    0    0  501 -0.00000000000E+00  0.00000000000E+00  0.12510339220E+03  0.12510339220E+03  0.00000000000E+00 0.  1.
          2   -1    0    0  501    0  0.00000000000E+00 -0.00000000000E+00 -0.12629183899E+04  0.12629183899E+04  0.00000000000E+00 0. -1.
         23    2    1    2    0    0 -0.13587112076E+03 -0.32842166118E+03 -0.28338847103E+03  0.46262109133E+03  0.85950565103E+02 0.  0.
         13    1    3    3    0    0 -0.11197851358E+03 -0.21845513735E+03 -0.23597440754E+03  0.34050808442E+03  0.00000000000E+00 0. -1.
        -13    1    3    3    0    0 -0.23892607186E+02 -0.10996652382E+03 -0.47414063482E+02  0.12211300691E+03  0.00000000000E+00 0.  1.
         22    1    1    2    0    0  0.13587112076E+03  0.32842166118E+03 -0.85442652665E+03  0.92540069074E+03  0.00000000000E+00 0. -1.
<mgrwt>
<rscale>  0 0.79497264E+03</rscale>
<asrwt>0</asrwt>
<pdfrwt beam="1">  1        2 0.19429514E+00 0.79497264E+03</pdfrwt>
<pdfrwt beam="2">  1       -2 0.19246676E-01 0.79497264E+03</pdfrwt>
<totfact> 0.39938784E+02</totfact>
</mgrwt>
</event>
<event>
 6    1  0.1568961E-005  0.2100440E+04  0.7818608E-02  0.8561049E-01
         -1   -1    0    0    0  501 -0.00000000000E+00  0.00000000000E+00  0.52827414452E+03  0.52827414452E+03  0.00000000000E+00 0.  1.
          1   -1    0    0  501    0  0.00000000000E+00 -0.00000000000E+00 -0.20878601826E+04  0.20878601826E+04  0.00000000000E+00 0. -1.
         23    2    1    2    0    0 -0.31404053662E+03 -0.57638972719E+03 -0.17991905815E+04  0.19173804981E+04  0.91731399853E+02 0.  0.
         11    1    3    3    0    0 -0.16307606684E+03 -0.33521079982E+03 -0.89662838044E+03  0.97103168666E+03  0.00000000000E+00 0. -1.
        -11    1    3    3    0    0 -0.15096446978E+03 -0.24117892737E+03 -0.90256220108E+03  0.94634881147E+03  0.00000000000E+00 0.  1.
         22    1    1    2    0    0  0.31404053662E+03  0.57638972719E+03  0.23960454347E+03  0.69875382897E+03  0.00000000000E+00 0.  1.
<mgrwt>
<rscale>  0 0.21004405E+04</rscale>
<asrwt>0</asrwt>
<pdfrwt beam="1">  1        1 0.32120926E+00 0.21004405E+04</pdfrwt>
<pdfrwt beam="2">  1       -1 0.81272946E-01 0.21004405E+04</pdfrwt>
<totfact> 0.36019984E+00</totfact>
</mgrwt>
</event>
<event>
 6    1  0.1568961E-005  0.4091563E+04  0.7818608E-02  0.7986326E-01
         -2   -1    0    0    0  501 -0.00000000000E+00  0.00000000000E+00  0.14408248078E+04  0.14408248078E+04  0.00000000000E+00 0.  1.
          2   -1    0    0  501    0  0.00000000000E+00 -0.00000000000E+00 -0.29047397547E+04  0.29047397547E+04  0.00000000000E+00 0. -1.
         23    2    1    2    0    0  0.17739797880E+04 -0.86896905699E+03 -0.17130237142E+03  0.19848530637E+04  0.90474702990E+02 0.  0.
         13    1    3    3    0    0  0.14922712659E+04 -0.69335424215E+03 -0.14278485240E+03  0.16516661740E+04  0.00000000000E+00 0.  1.
        -13    1    3    3    0    0  0.28170852203E+03 -0.17561481484E+03 -0.28517519024E+02  0.33318688969E+03  0.00000000000E+00 0. -1.
         22    1    1    2    0    0 -0.17739797880E+04  0.86896905699E+03 -0.12926125755E+04  0.23607114988E+04  0.00000000000E+00 0. -1.
<mgrwt>
<rscale>  0 0.40915626E+04</rscale>
<asrwt>0</asrwt>
<pdfrwt beam="1">  1        2 0.44688303E+00 0.40915626E+04</pdfrwt>
<pdfrwt beam="2">  1       -2 0.22166536E+00 0.40915626E+04</pdfrwt>
<totfact> 0.15068331E-01</totfact>
</mgrwt>
</event>
<event>
 6    1  0.2460754E-005  0.3809268E+04  0.7818608E-02  0.8044169E-01
          2   -1    0    0  501    0  0.00000000000E+00  0.00000000000E+00  0.16420308567E+04  0.16420308567E+04  0.00000000000E+00 0. -1.
         -2   -1    0    0    0  501 -0.00000000000E+00 -0.00000000000E+00 -0.22092343799E+04  0.22092343799E+04  0.00000000000E+00 0.  1.
         23    2    1    2    0    0 -0.13981269226E+04  0.43047650262E+03 -0.15149841911E+04  0.21081768552E+04  0.95726917573E+02 0.  0.
         11    1    3    3    0    0 -0.90451924226E+03  0.27440150978E+03 -0.10435238707E+04  0.14079748993E+04  0.00000000000E+00 0. -1.
        -11    1    3    3    0    0 -0.49360768034E+03  0.15607499284E+03 -0.47146032031E+03  0.70020195595E+03  0.00000000000E+00 0.  1.
         22    1    1    2    0    0  0.13981269226E+04 -0.43047650262E+03  0.94778066779E+03  0.17430883814E+04  0.00000000000E+00 0. -1.
<mgrwt>
<rscale>  0 0.38092682E+04</rscale>
<asrwt>0</asrwt>
<pdfrwt beam="1">  1        2 0.25262013E+00 0.38092682E+04</pdfrwt>
<pdfrwt beam="2">  1       -2 0.33988221E+00 0.38092682E+04</pdfrwt>
<totfact> 0.15241427E-01</totfact>
</mgrwt>
</event>
<event>
 6    1  0.1568961E-005  0.2221952E+04  0.7818608E-02  0.8509347E-01
          2   -1    0    0  501    0  0.00000000000E+00  0.00000000000E+00  0.13392516131E+04  0.13392516131E+04  0.00000000000E+00 0. -1.
         -2   -1    0    0    0  501 -0.00000000000E+00 -0.00000000000E+00 -0.92160967462E+03  0.92160967462E+03  0.00000000000E+00 0.  1.
         23    2    1    2    0    0  0.75697058542E+03 -0.14562350621E+03  0.10206642663E+04  0.12821649096E+04  0.89334417541E+02 0.  0.
         11    1    3    3    0    0  0.68463604315E+02  0.10347030439E+02  0.75241475583E+02  0.10225265670E+03  0.00000000000E+00 0. -1.
        -11    1    3    3    0    0  0.68850698111E+03 -0.15597053665E+03  0.94542279073E+03  0.11799122529E+04  0.00000000000E+00 0.  1.
         22    1    1    2    0    0 -0.75697058542E+03  0.14562350621E+03 -0.60302232781E+03  0.97869637814E+03  0.00000000000E+00 0.  1.
<mgrwt>
<rscale>  0 0.22219516E+04</rscale>
<asrwt>0</asrwt>
<pdfrwt beam="1">  1        2 0.20603871E+00 0.22219516E+04</pdfrwt>
<pdfrwt beam="2">  1       -2 0.14178610E+00 0.22219516E+04</pdfrwt>
<totfact> 0.49736879E+00</totfact>
</mgrwt>
</event>
<event>
 6    1  0.1568961E-005  0.6340225E+03  0.7818608E-02  0.9837230E-01
         -3   -1    0    0    0  501 -0.00000000000E+00  0.00000000000E+00  0.45657768778E+03  0.45657768778E+03  0.00000000000E+00 0.  1.
          3   -1    0    0  501    0  0.00000000000E+00 -0.00000000000E+00 -0.22010742944E+03  0.22010742944E+03  0.00000000000E+00 0. -1.
         23    2    1    2    0    0  0.30188883428E+03  0.15206024955E+02  0.46394764054E+02  0.31961819774E+03  0.92925920666E+02 0.  0.
         11    1    3    3    0    0  0.16486077278E+03  0.23612078041E+02  0.69389029461E+02  0.18042018191E+03  0.00000000000E+00 0.  1.
        -11    1    3    3    0    0  0.13702806150E+03 -0.84060530856E+01 -0.22994265407E+02  0.13919801582E+03  0.00000000000E+00 0. -1.
         22    1    1    2    0    0 -0.30188883428E+03 -0.15206024955E+02  0.19007549428E+03  0.35706691948E+03  0.00000000000E+00 0.  1.
<mgrwt>
<rscale>  0 0.63402253E+03</rscale>
<asrwt>0</asrwt>
<pdfrwt beam="1">  1        3 0.33862682E-01 0.63402253E+03</pdfrwt>
<pdfrwt beam="2">  1       -3 0.70242721E-01 0.63402253E+03</pdfrwt>
<totfact> 0.43825493E+01</totfact>
</mgrwt>
</event>
<event>
 6    1  0.1568961E-005  0.5483635E+04  0.7818608E-02  0.7757945E-01
         -2   -1    0    0    0  501 -0.00000000000E+00  0.00000000000E+00  0.17537571547E+04  0.17537571547E+04  0.00000000000E+00 0. -1.
          2   -1    0    0  501    0  0.00000000000E+00 -0.00000000000E+00 -0.42865470297E+04  0.42865470297E+04  0.00000000000E+00 0.  1.
         23    2    1    2    0    0  0.11972808285E+04  0.28182543964E+03  0.14315057722E+04  0.18895757014E+04  0.91545587167E+02 0.  0.
         11    1    3    3    0    0  0.27201056765E+03  0.64104863929E+02  0.26856005000E+03  0.38758700049E+03  0.00000000000E+00 0. -1.
        -11    1    3    3    0    0  0.92527026090E+03  0.21772057571E+03  0.11629457222E+04  0.15019887009E+04  0.00000000000E+00 0.  1.
         22    1    1    2    0    0 -0.11972808285E+04 -0.28182543964E+03 -0.39642956473E+04  0.41507284830E+04  0.00000000000E+00 0.  1.
<mgrwt>
<rscale>  0 0.54836348E+04</rscale>
<asrwt>0</asrwt>
<pdfrwt beam="1">  1        2 0.65946876E+00 0.54836348E+04</pdfrwt>
<pdfrwt beam="2">  1       -2 0.26980880E+00 0.54836348E+04</pdfrwt>
<totfact> 0.65888624E-03</totfact>
</mgrwt>
</event>
<event>
 6    1  0.1568961E-005  0.2218283E+04  0.7818608E-02  0.8510857E-01
          2   -1    0    0  501    0  0.00000000000E+00  0.00000000000E+00  0.11306260544E+04  0.11306260544E+04  0.00000000000E+00 0. -1.
         -2   -1    0    0    0  501 -0.00000000000E+00 -0.00000000000E+00 -0.10880650552E+04  0.10880650552E+04  0.00000000000E+00 0.  1.
         23    2    1    2    0    0  0.73321956514E+03  0.40184388103E+03 -0.70476103449E+03  0.10972725180E+04  0.90716192528E+02 0.  0.
         13    1    3    3    0    0  0.20545745283E+03  0.10104134754E+03 -0.24581554723E+03  0.33592767391E+03  0.00000000000E+00 0.  1.
        -13    1    3    3    0    0  0.52776211231E+03  0.30080253349E+03 -0.45894548726E+03  0.76134484409E+03  0.00000000000E+00 0. -1.
         22    1    1    2    0    0 -0.73321956514E+03 -0.40184388103E+03  0.74732203367E+03  0.11214185915E+04  0.00000000000E+00 0. -1.
<mgrwt>
<rscale>  0 0.22182828E+04</rscale>
<asrwt>0</asrwt>
<pdfrwt beam="1">  1        2 0.17394247E+00 0.22182828E+04</pdfrwt>
<pdfrwt beam="2">  1       -2 0.16739462E+00 0.22182828E+04</pdfrwt>
<totfact> 0.42359499E+00</totfact>
</mgrwt>
</event>
<event>
 6    1  0.1568961E-005  0.3464426E+04  0.7818608E-02  0.8122273E-01
          2   -1    0    0  501    0  0.00000000000E+00  0.00000000000E+00  0.61319936313E+03  0.61319936313E+03  0.00000000000E+00 0. -1.
         -2   -1    0    0    0  501 -0.00000000000E+00 -0.00000000000E+00 -0.48932884736E+04  0.48932884736E+04  0.00000000000E+00 0.  1.
         23    2    1    2    0    0  0.93664966913E+03 -0.13161304148E+04 -0.11526330797E+04  0.19864746130E+04  0.89479048264E+02 0.  0.
         11    1    3    3    0    0  0.62142541816E+03 -0.84418499648E+03 -0.79554543797E+03  0.13159446806E+04  0.00000000000E+00 0. -1.
        -11    1    3    3    0    0  0.31522425097E+03 -0.47194541830E+03 -0.35708764178E+03  0.67052993234E+03  0.00000000000E+00 0.  1.
         22    1    1    2    0    0 -0.93664966913E+03  0.13161304148E+04 -0.31274560307E+04  0.35200132238E+04  0.00000000000E+00 0.  1.
<mgrwt>
<rscale>  0 0.34644257E+04</rscale>
<asrwt>0</asrwt>
<pdfrwt beam="1">  1        2 0.94338366E-01 0.34644257E+04</pdfrwt>
<pdfrwt beam="2">  1       -2 0.75281359E+00 0.34644257E+04</pdfrwt>
<totfact> 0.55328619E-03</totfact>
</mgrwt>
</event>
<event>
 6    1  0.1568961E-005  0.3218382E+04  0.7818608E-02  0.8183979E-01
         -2   -1    0    0    0  501 -0.00000000000E+00  0.00000000000E+00  0.82489745596E+03  0.82489745596E+03  0.00000000000E+00 0.  1.
          2   -1    0    0  501    0  0.00000000000E+00 -0.00000000000E+00 -0.31391726312E+04  0.31391726312E+04  0.00000000000E+00 0. -1.
         23    2    1    2    0    0 -0.73200000327E+03 -0.14193681675E+04 -0.92911880450E+03  0.18500482871E+04  0.94799324838E+02 0.  0.
         13    1    3    3    0    0 -0.75804092797E+02 -0.15965673083E+03 -0.13785586825E+03  0.22414453505E+03  0.00000000000E+00 0. -1.
        -13    1    3    3    0    0 -0.65619591048E+03 -0.12597114367E+04 -0.79126293625E+03  0.16259037521E+04  0.00000000000E+00 0.  1.
         22    1    1    2    0    0  0.73200000327E+03  0.14193681675E+04 -0.13851563707E+04  0.21140218001E+04  0.00000000000E+00 0.  1.
<mgrwt>
<rscale>  0 0.32183819E+04</rscale>
<asrwt>0</asrwt>
<pdfrwt beam="1">  1        2 0.48294963E+00 0.32183819E+04</pdfrwt>
<pdfrwt beam="2">  1       -2 0.12690730E+00 0.32183819E+04</pdfrwt>
<totfact> 0.55062563E-01</totfact>
</mgrwt>
</event>
<event>
 6    1  0.1568961E-005  0.1380207E+04  0.7818608E-02  0.8968272E-01
         -2   -1    0    0    0  501 -0.00000000000E+00  0.00000000000E+00  0.17115766752E+03  0.17115766752E+03  0.00000000000E+00 0.  1.
          2   -1    0    0  501    0  0.00000000000E+00 -0.00000000000E+00 -0.27824783120E+04  0.27824783120E+04  0.00000000000E+00 0. -1.
         23    2    1    2    0    0  0.47245916292E+03 -0.16026178674E+03 -0.23220192186E+04  0.23769239058E+04  0.95354611023E+02 0.  0.
         13    1    3    3    0    0  0.94326510914E+02 -0.61284442263E+02 -0.66349860663E+03  0.67296632496E+03  0.00000000000E+00 0. -1.
        -13    1    3    3    0    0  0.37813265200E+03 -0.98977344481E+02 -0.16585206119E+04  0.17039575809E+04  0.00000000000E+00 0.  1.
         22    1    1    2    0    0 -0.47245916292E+03  0.16026178674E+03 -0.28930142594E+03  0.57671207371E+03  0.00000000000E+00 0.  1.
<mgrwt>
<rscale>  0 0.13802065E+04</rscale>
<asrwt>0</asrwt>
<pdfrwt beam="1">  1        2 0.42807358E+00 0.13802065E+04</pdfrwt>
<pdfrwt beam="2">  1       -2 0.26331949E-01 0.13802065E+04</pdfrwt>
<totfact> 0.30346831E+01</totfact>
</mgrwt>
</event>
<event>
 6    1  0.1568961E-005  0.4327679E+04  0.7818608E-02  0.7941520E-01
         -1   -1    0    0    0  501 -0.00000000000E+00  0.00000000000E+00  0.48942809223E+04  0.48942809223E+04  0.00000000000E+00 0.  1.
          1   -1    0    0  501    0  0.00000000000E+00 -0.00000000000E+00 -0.95666805606E+03  0.95666805606E+03  0.00000000000E+00 0. -1.
         23    2    1    2    0    0 -0.49501700388E+03  0.15044836677E+04 -0.21553216112E+02  0.15867363889E+04  0.93567547983E+02 0.  0.
         13    1    3    3    0    0 -0.10053526759E+03  0.35339477318E+03  0.31559587585E+02  0.36876986497E+03  0.00000000000E+00 0.  1.
        -13    1    3    3    0    0 -0.39448173629E+03  0.11510888946E+04 -0.53112803697E+02  0.12179665239E+04  0.00000000000E+00 0. -1.
         22    1    1    2    0    0  0.49501700388E+03 -0.15044836677E+04  0.39591660823E+04  0.42642125894E+04  0.00000000000E+00 0.  1.
<mgrwt>
<rscale>  0 0.43276794E+04</rscale>
<asrwt>0</asrwt>
<pdfrwt beam="1">  1        1 0.14717970E+00 0.43276794E+04</pdfrwt>
<pdfrwt beam="2">  1       -1 0.75296628E+00 0.43276794E+04</pdfrwt>
<totfact> 0.15446401E-03</totfact>
</mgrwt>
</event>
<event>
 6    1  0.1568961E-005  0.3843032E+04  0.7818608E-02  0.8036983E-01
          1   -1    0    0  501    0  0.00000000000E+00  0.00000000000E+00  0.27801101004E+04  0.27801101004E+04  0.00000000000E+00 0. -1.
         -1   -1    0    0    0  501 -0.00000000000E+00 -0.00000000000E+00 -0.13280852819E+04  0.13280852819E+04  0.00000000000E+00 0.  1.
         23    2    1    2    0    0 -0.16790061820E+04  0.82349010119E+03  0.25907994960E+03  0.18900170383E+04  0.88567933274E+02 0.  0.
         11    1    3    3    0    0 -0.13525188120E+04  0.62603030685E+03  0.19394928616E+03  0.15029429155E+04  0.00000000000E+00 0.  1.
        -11    1    3    3    0    0 -0.32648737001E+03  0.19745979434E+03  0.65130663440E+02  0.38707412272E+03  0.00000000000E+00 0. -1.
         22    1    1    2    0    0  0.16790061820E+04 -0.82349010119E+03  0.11929448688E+04  0.22181783440E+04  0.00000000000E+00 0.  1.
<mgrwt>
<rscale>  0 0.38430318E+04</rscale>
<asrwt>0</asrwt>
<pdfrwt beam="1">  1        1 0.42770925E+00 0.38430318E+04</pdfrwt>
<pdfrwt beam="2">  1       -1 0.20432081E+00 0.38430318E+04</pdfrwt>
<totfact> 0.95920086E-02</totfact>
</mgrwt>
</event>
<event>
 6    1  0.1568961E-005  0.1333648E+04  0.7818608E-02  0.9003299E-01
         -1   -1    0    0    0  501 -0.00000000000E+00  0.00000000000E+00  0.13886002469E+03  0.13886002469E+03  0.00000000000E+00 0.  1.
          1   -1    0    0  501    0  0.00000000000E+00 -0.00000000000E+00 -0.32021760097E+04  0.32021760097E+04  0.00000000000E+00 0. -1.
         23    2    1    2    0    0 -0.47287562803E+03 -0.25762671071E+03 -0.55552286901E+03  0.77607810213E+03  0.60898940459E+02 0.  0.
         11    1    3    3    0    0 -0.46815959510E+03 -0.24865203380E+03 -0.53476831198E+03  0.75297967296E+03  0.00000000000E+00 0.  1.
        -11    1    3    3    0    0 -0.47160329311E+01 -0.89746769128E+01 -0.20754557035E+02  0.23098429168E+02  0.00000000000E+00 0. -1.
         22    1    1    2    0    0  0.47287562803E+03  0.25762671071E+03 -0.25077931160E+04  0.25649579323E+04  0.00000000000E+00 0. -1.
<mgrwt>
<rscale>  0 0.13336480E+04</rscale>
<asrwt>0</asrwt>
<pdfrwt beam="1">  1        1 0.49264244E+00 0.13336480E+04</pdfrwt>
<pdfrwt beam="2">  1       -1 0.21363082E-01 0.13336480E+04</pdfrwt>
<totfact> 0.76896380E+00</totfact>
</mgrwt>
</event>
<event>
 6    1  0.1568961E-005  0.8815120E+03  0.7818608E-02  0.9448992E-01
         -2   -1    0    0    0  501 -0.00000000000E+00  0.00000000000E+00  0.20333708286E+03  0.20333708286E+03  0.00000000000E+00 0. -1.
          2   -1    0    0  501    0  0.00000000000E+00 -0.00000000000E+00 -0.95538823922E+03  0.95538823922E+03  0.00000000000E+00 0.  1.
         23    2    1    2    0    0 -0.10888557410E+03 -0.10994466427E+03 -0.91602237138E+03  0.93326921370E+03  0.89165816956E+02 0.  0.
         13    1    3    3    0    0 -0.13794324298E+02 -0.50922868063E+02 -0.48847997643E+03  0.49132078040E+03  0.00000000000E+00 0. -1.
        -13    1    3    3    0    0 -0.95091249806E+02 -0.59021796212E+02 -0.42754239495E+03  0.44194843330E+03  0.00000000000E+00 0.  1.
         22    1    1    2    0    0  0.10888557410E+03  0.10994466427E+03  0.16397121502E+03  0.22545610838E+03  0.00000000000E+00 0. -1.
<mgrwt>
<rscale>  0 0.88151201E+03</rscale>
<asrwt>0</asrwt>
<pdfrwt beam="1">  1        2 0.14698280E+00 0.88151201E+03</pdfrwt>
<pdfrwt beam="2">  1       -2 0.31282628E-01 0.88151201E+03</pdfrwt>
<totfact> 0.25578861E+02</totfact>
</mgrwt>
</event>
<event>
 6    1  0.1568961E-005  0.6996792E+03  0.7818608E-02  0.9717781E-01
          1   -1    0    0  501    0  0.00000000000E+00  0.00000000000E+00  0.11745222877E+04  0.11745222877E+04  0.00000000000E+00 0. -1.
         -1   -1    0    0    0  501 -0.00000000000E+00 -0.00000000000E+00 -0.10420215269E+03  0.10420215269E+03  0.00000000000E+00 0.  1.
         23    2    1    2    0    0 -0.20284733396E+03 -0.24848674152E+03  0.76310672158E+03  0.83457043217E+03  0.10622257827E+03 0.  0.
         13    1    3    3    0    0 -0.15246275568E+03 -0.15320295589E+03  0.38634962619E+03  0.44269862347E+03  0.00000000000E+00 0. -1.
        -13    1    3    3    0    0 -0.50384578277E+02 -0.95283785629E+02  0.37675709539E+03  0.39187180871E+03  0.00000000000E+00 0.  1.
         22    1    1    2    0    0  0.20284733396E+03  0.24848674152E+03  0.30721341340E+03  0.44415400817E+03  0.00000000000E+00 0.  1.
<mgrwt>
<rscale>  0 0.69967921E+03</rscale>
<asrwt>0</asrwt>
<pdfrwt beam="1">  1        1 0.18069573E+00 0.69967921E+03</pdfrwt>
<pdfrwt beam="2">  1       -1 0.16031101E-01 0.69967921E+03</pdfrwt>
<totfact> 0.33415588E+02</totfact>
</mgrwt>
</event>
<event>
 6    1  0.1568961E-005  0.1085604E+04  0.7818608E-02  0.9219338E-01
          2   -1    0    0  501    0  0.00000000000E+00  0.00000000000E+00  0.92842331084E+03  0.92842331084E+03  0.00000000000E+00 0. -1.
         -2   -1    0    0    0  501 -0.00000000000E+00 -0.00000000000E+00 -0.31734878470E+03  0.31734878470E+03  0.00000000000E+00 0.  1.
         23    2    1    2    0    0 -0.31152872472E+03 -0.35812332120E+03  0.18444441745E+02  0.48648764526E+03  0.10501224713E+03 0.  0.
         11    1    3    3    0    0 -0.18834199292E+03 -0.15375492934E+03 -0.23276401816E+02  0.24424388523E+03  0.00000000000E+00 0. -1.
        -11    1    3    3    0    0 -0.12318673180E+03 -0.20436839187E+03  0.41720843562E+02  0.24224376003E+03  0.00000000000E+00 0.  1.
         22    1    1    2    0    0  0.31152872472E+03  0.35812332120E+03  0.59263008439E+03  0.75928445028E+03  0.00000000000E+00 0. -1.
<mgrwt>
<rscale>  0 0.10856040E+04</rscale>
<asrwt>0</asrwt>
<pdfrwt beam="1">  1        2 0.14283435E+00 0.10856040E+04</pdfrwt>
<pdfrwt beam="2">  1       -2 0.48822890E-01 0.10856040E+04</pdfrwt>
<totfact> 0.11074337E+02</totfact>
</mgrwt>
</event>
<event>
 6    1  0.1568961E-005  0.2740009E+04  0.7818608E-02  0.8322139E-01
         -2   -1    0    0    0  501 -0.00000000000E+00  0.00000000000E+00  0.89446254970E+03  0.89446254970E+03  0.00000000000E+00 0.  1.
          2   -1    0    0  501    0  0.00000000000E+00 -0.00000000000E+00 -0.20983685629E+04  0.20983685629E+04  0.00000000000E+00 0. -1.
         23    2    1    2    0    0 -0.31942872716E+03 -0.74694683061E+03 -0.18054920486E+04  0.19819552363E+04  0.91546390122E+02 0.  0.
         11    1    3    3    0    0 -0.24544128640E+03 -0.49246798169E+03 -0.12859243052E+04  0.13987020614E+04  0.00000000000E+00 0. -1.
        -11    1    3    3    0    0 -0.73987440758E+02 -0.25447884892E+03 -0.51956774344E+03  0.58325317484E+03  0.00000000000E+00 0.  1.
         22    1    1    2    0    0  0.31942872716E+03  0.74694683061E+03  0.60158603536E+03  0.10108758764E+04  0.00000000000E+00 0.  1.
<mgrwt>
<rscale>  0 0.27400088E+04</rscale>
<asrwt>0</asrwt>
<pdfrwt beam="1">  1        2 0.32282593E+00 0.27400088E+04</pdfrwt>
<pdfrwt beam="2">  1       -2 0.13760962E+00 0.27400088E+04</pdfrwt>
<totfact> 0.19337836E+00</totfact>
</mgrwt>
</event>
<event>
 6    1  0.1568961E-005  0.2048884E+04  0.7818608E-02  0.8584101E-01
         -1   -1    0    0    0  501 -0.00000000000E+00  0.00000000000E+00  0.38973893481E+03  0.38973893481E+03  0.00000000000E+00 0.  1.
          1   -1    0    0  501    0  0.00000000000E+00 -0.00000000000E+00 -0.26927813685E+04  0.26927813685E+04  0.00000000000E+00 0. -1.
         23    2    1    2    0    0  0.35736361234E+03 -0.19199055596E+03 -0.25661702878E+04  0.25989860309E+04  0.70209099629E+02 0.  0.
         13    1    3    3    0    0  0.15526235422E+03 -0.95057423873E+02 -0.13643685462E+04  0.13764606214E+04  0.00000000000E+00 0.  1.
        -13    1    3    3    0    0  0.20210125812E+03 -0.96933132088E+02 -0.12018017416E+04  0.12225254095E+04  0.00000000000E+00 0. -1.
         22    1    1    2    0    0 -0.35736361234E+03  0.19199055596E+03  0.26312785412E+03  0.48353427243E+03  0.00000000000E+00 0.  1.
<mgrwt>
<rscale>  0 0.20488843E+04</rscale>
<asrwt>0</asrwt>
<pdfrwt beam="1">  1        1 0.41427407E+00 0.20488843E+04</pdfrwt>
<pdfrwt beam="2">  1       -1 0.59959834E-01 0.20488843E+04</pdfrwt>
<totfact> 0.25888425E+00</totfact>
</mgrwt>
</event>
<event>
 6    1  0.1568961E-005  0.3878804E+04  0.7818608E-02  0.8029452E-01
         -1   -1    0    0    0  501 -0.00000000000E+00  0.00000000000E+00  0.84365113475E+03  0.84365113475E+03  0.00000000000E+00 0.  1.
          1   -1    0    0  501    0  0.00000000000E+00 -0.00000000000E+00 -0.44583369088E+04  0.44583369088E+04  0.00000000000E+00 0. -1.
         23    2    1    2    0    0  0.13147066188E+04  0.13446747740E+04 -0.11665836983E+04  0.22149494117E+04  0.92084905809E+02 0.  0.
         13    1    3    3    0    0  0.53074980986E+03  0.60673062362E+03 -0.48886640482E+03  0.94276602191E+03  0.00000000000E+00 0. -1.
        -13    1    3    3    0    0  0.78395680893E+03  0.73794415036E+03 -0.67771729347E+03  0.12721833898E+04  0.00000000000E+00 0.  1.
         22    1    1    2    0    0 -0.13147066188E+04 -0.13446747740E+04 -0.24481020757E+04  0.30870386318E+04  0.00000000000E+00 0. -1.
<mgrwt>
<rscale>  0 0.38788045E+04</rscale>
<asrwt>0</asrwt>
<pdfrwt beam="1">  1        1 0.68589801E+00 0.38788045E+04</pdfrwt>
<pdfrwt beam="2">  1       -1 0.12979248E+00 0.38788045E+04</pdfrwt>
<totfact> 0.14222965E-02</totfact>
</mgrwt>
</event>
<event>
 6    1  0.1568961E-005  0.2004227E+04  0.7818608E-02  0.8604647E-01
         -1   -1    0    0    0  501 -0.00000000000E+00  0.00000000000E+00  0.99586329829E+03  0.99586329829E+03  0.00000000000E+00 0. -1.
          1   -1    0    0  501    0  0.00000000000E+00 -0.00000000000E+00 -0.10084028418E+04  0.10084028418E+04  0.00000000000E+00 0.  1.
         23    2    1    2    0    0 -0.33746895663E+03  0.90578358493E+03 -0.26262806524E+03  0.10058306298E+04  0.91610893284E+02 0.  0.
         13    1    3    3    0    0 -0.22161103915E+03  0.54114424308E+03 -0.11639914697E+03  0.59623594818E+03  0.00000000000E+00 0. -1.
        -13    1    3    3    0    0 -0.11585791748E+03  0.36463934186E+03 -0.14622891827E+03  0.40959468162E+03  0.00000000000E+00 0.  1.
         22    1    1    2    0    0  0.33746895663E+03 -0.90578358493E+03  0.25008852176E+03  0.99843551026E+03  0.00000000000E+00 0. -1.
<mgrwt>
<rscale>  0 0.20042269E+04</rscale>
<asrwt>0</asrwt>
<pdfrwt beam="1">  1        1 0.15513890E+00 0.20042269E+04</pdfrwt>
<pdfrwt beam="2">  1       -1 0.15320974E+00 0.20042269E+04</pdfrwt>
<totfact> 0.45531730E+00</totfact>
</mgrwt>
</event>
<event>
 6    1  0.1568961E-005  0.3136021E+04  0.7818608E-02  0.8205921E-01
         -2   -1    0    0    0  501 -0.00000000000E+00  0.00000000000E+00  0.88544053107E+03  0.88544053107E+03  0.00000000000E+00 0.  1.
          2   -1    0    0  501    0  0.00000000000E+00 -0.00000000000E+00 -0.27767604673E+04  0.27767604673E+04  0.00000000000E+00 0. -1.
         23    2    1    2    0    0  0.13047397566E+04 -0.75514356218E+03 -0.14442523536E+04  0.20897961347E+04  0.93783749582E+02 0.  0.
         11    1    3    3    0    0  0.11411356271E+04 -0.62768803697E+03 -0.12241707327E+04  0.17873938497E+04  0.00000000000E+00 0.  1.
        -11    1    3    3    0    0  0.16360412951E+03 -0.12745552521E+03 -0.22008162089E+03  0.30240228496E+03  0.00000000000E+00 0. -1.
         22    1    1    2    0    0 -0.13047397566E+04  0.75514356218E+03 -0.44706758262E+03  0.15724048637E+04  0.00000000000E+00 0.  1.
<mgrwt>
<rscale>  0 0.31360206E+04</rscale>
<asrwt>0</asrwt>
<pdfrwt beam="1">  1        2 0.42719391E+00 0.31360206E+04</pdfrwt>
<pdfrwt beam="2">  1       -2 0.13622162E+00 0.31360206E+04</pdfrwt>
<totfact> 0.77909789E-01</totfact>
</mgrwt>
</event>
<event>
 6    1  0.1568961E-005  0.5762740E+04  0.7818608E-02  0.7720536E-01
          2   -1    0    0  501    0  0.00000000000E+00  0.00000000000E+00  0.36009026208E+04  0.36009026208E+04  0.00000000000E+00 0.  1.
         -2   -1    0    0    0  501 -0.00000000000E+00 -0.00000000000E+00 -0.23056142102E+04  0.23056142102E+04  0.00000000000E+00 0. -1.
         23    2    1    2    0    0 -0.17993199052E+04 -0.14957307294E+04 -0.10744565345E+04  0.25762835598E+04  0.89541050991E+02 0.  0.
         13    1    3    3    0    0 -0.46999897581E+02 -0.57007185363E+02 -0.42101656315E+02  0.85037397774E+02  0.00000000000E+00 0. -1.
        -13    1    3    3    0    0 -0.17523200076E+04 -0.14387235441E+04 -0.10323548782E+04  0.24912461620E+04  0.00000000000E+00 0.  1.
         22    1    1    2    0    0  0.17993199052E+04  0.14957307294E+04  0.23697449451E+04  0.33302332712E+04  0.00000000000E+00 0.  1.
<mgrwt>
<rscale>  0 0.57627397E+04</rscale>
<asrwt>0</asrwt>
<pdfrwt beam="1">  1        2 0.55398501E+00 0.57627397E+04</pdfrwt>
<pdfrwt beam="2">  1       -2 0.35470988E+00 0.57627397E+04</pdfrwt>
<totfact> 0.68490068E-03</totfact>
</mgrwt>
</event>
<event>
 6    1  0.1568961E-005  0.4655535E+04  0.7818608E-02  0.7883959E-01
         -2   -1    0    0    0  501 -0.00000000000E+00  0.00000000000E+00  0.24935741442E+04  0.24935741442E+04  0.00000000000E+00 0.  1.
          2   -1    0    0  501    0  0.00000000000E+00 -0.00000000000E+00 -0.21729861457E+04  0.21729861457E+04  0.00000000000E+00 0. -1.
         23    2    1    2    0    0  0.57868375678E+03 -0.97452051038E+03  0.21974423496E+04  0.24740395098E+04  0.86910878941E+02 0.  0.
         13    1    3    3    0    0  0.47231471786E+03 -0.85225170853E+03  0.19026721818E+04  0.21376565671E+04  0.00000000000E+00 0. -1.
        -13    1    3    3    0    0  0.10636903892E+03 -0.12226880185E+03  0.29477016776E+03  0.33638294271E+03  0.00000000000E+00 0.  1.
         22    1    1    2    0    0 -0.57868375678E+03  0.97452051038E+03 -0.18768543511E+04  0.21925207800E+04  0.00000000000E+00 0. -1.
<mgrwt>
<rscale>  0 0.46555352E+04</rscale>
<asrwt>0</asrwt>
<pdfrwt beam="1">  1        2 0.33430556E+00 0.46555352E+04</pdfrwt>
<pdfrwt beam="2">  1       -2 0.38362679E+00 0.46555352E+04</pdfrwt>
<totfact> 0.37963886E-02</totfact>
</mgrwt>
</event>
<event>
 6    1  0.1568961E-005  0.1357195E+04  0.7818608E-02  0.8985399E-01
          2   -1    0    0  501    0  0.00000000000E+00  0.00000000000E+00  0.12723782132E+04  0.12723782132E+04  0.00000000000E+00 0. -1.
         -2   -1    0    0    0  501 -0.00000000000E+00 -0.00000000000E+00 -0.36191658076E+03  0.36191658076E+03  0.00000000000E+00 0.  1.
         23    2    1    2    0    0 -0.62266513222E-01  0.60843089331E+03  0.10370592095E+03  0.62382810285E+03  0.90655546136E+02 0.  0.
         11    1    3    3    0    0  0.20492635010E+02  0.92545407024E+02  0.42633505514E+02  0.10393371081E+03  0.00000000000E+00 0.  1.
        -11    1    3    3    0    0 -0.20554901523E+02  0.51588548629E+03  0.61072415437E+02  0.51989439203E+03  0.00000000000E+00 0. -1.
         22    1    1    2    0    0  0.62266513222E-01 -0.60843089331E+03  0.80675571144E+03  0.10104666911E+04  0.00000000000E+00 0. -1.
<mgrwt>
<rscale>  0 0.13571953E+04</rscale>
<asrwt>0</asrwt>
<pdfrwt beam="1">  1        2 0.19575049E+00 0.13571953E+04</pdfrwt>
<pdfrwt beam="2">  1       -2 0.55679475E-01 0.13571953E+04</pdfrwt>
<totfact> 0.50759020E+01</totfact>
</mgrwt>
</event>
<event>
 6    1  0.1568961E-005  0.9254709E+03  0.7818608E-02  0.9394290E-01
         -2   -1    0    0    0  501 -0.00000000000E+00  0.00000000000E+00  0.62297102310E+03  0.62297102310E+03  0.00000000000E+00 0.  1.
          2   -1    0    0  501    0  0.00000000000E+00 -0.00000000000E+00 -0.34371434274E+03  0.34371434274E+03  0.00000000000E+00 0. -1.
         23    2    1    2    0    0  0.32629887229E+03  0.17973506221E+03  0.41936061474E+03  0.56868441223E+03  0.93610837428E+02 0.  0.
         13    1    3    3    0    0  0.14341657748E+03  0.13210374196E+03  0.22057297869E+03  0.29440134556E+03  0.00000000000E+00 0.  1.
        -13    1    3    3    0    0  0.18288229480E+03  0.47631320244E+02  0.19878763605E+03  0.27428306668E+03  0.00000000000E+00 0. -1.
         22    1    1    2    0    0 -0.32629887229E+03 -0.17973506221E+03 -0.14010393439E+03  0.39800095361E+03  0.00000000000E+00 0. -1.
<mgrwt>
<rscale>  0 0.92547085E+03</rscale>
<asrwt>0</asrwt>
<pdfrwt beam="1">  1        2 0.52879130E-01 0.92547085E+03</pdfrwt>
<pdfrwt beam="2">  1       -2 0.95841696E-01 0.92547085E+03</pdfrwt>
<totfact> 0.86302958E+01</totfact>
</mgrwt>
</event>
<event>
 6    1  0.1568961E-005  0.2354894E+04  0.7818608E-02  0.8456586E-01
         -2   -1    0    0    0  501 -0.00000000000E+00  0.00000000000E+00  0.56812700928E+03  0.56812700928E+03  0.00000000000E+00 0.  1.
          2   -1    0    0  501    0  0.00000000000E+00 -0.00000000000E+00 -0.24402670476E+04  0.24402670476E+04  0.00000000000E+00 0. -1.
         23    2    1    2    0    0 -0.50184823716E+03  0.94730495888E+03 -0.15539468051E+04  0.18901430690E+04  0.93015105664E+02 0.  0.
         13    1    3    3    0    0 -0.23367703207E+03  0.48048480604E+03 -0.84904082091E+03  0.10031654498E+04  0.00000000000E+00 0. -1.
        -13    1    3    3    0    0 -0.26817120509E+03  0.46682015284E+03 -0.70490598417E+03  0.88697761914E+03  0.00000000000E+00 0.  1.
         22    1    1    2    0    0  0.50184823716E+03 -0.94730495888E+03 -0.31819323324E+03  0.11182509879E+04  0.00000000000E+00 0.  1.
<mgrwt>
<rscale>  0 0.23548942E+04</rscale>
<asrwt>0</asrwt>
<pdfrwt beam="1">  1        2 0.37542570E+00 0.23548942E+04</pdfrwt>
<pdfrwt beam="2">  1       -2 0.87404155E-01 0.23548942E+04</pdfrwt>
<totfact> 0.38452979E+00</totfact>
</mgrwt>
</event>
<event>
 6    1  0.1568961E-005  0.2236369E+04  0.7818608E-02  0.8503441E-01
         -1   -1    0    0    0  501 -0.00000000000E+00  0.00000000000E+00  0.16736072676E+04  0.16736072676E+04  0.00000000000E+00 0.  1.
          1   -1    0    0  501    0  0.00000000000E+00 -0.00000000000E+00 -0.74709061627E+03  0.74709061627E+03  0.00000000000E+00 0. -1.
         23    2    1    2    0    0 -0.43323477172E+02  0.11021816054E+04  0.65035506785E+03  0.12836198588E+04  0.89649387225E+02 0.  0.
         13    1    3    3    0    0 -0.62375469729E+02  0.97532966152E+03  0.59253818988E+03  0.11429173874E+04  0.00000000000E+00 0. -1.
        -13    1    3    3    0    0  0.19051992557E+02  0.12685194388E+03  0.57816877974E+02  0.14070247143E+03  0.00000000000E+00 0.  1.
         22    1    1    2    0    0  0.43323477172E+02 -0.11021816054E+04  0.27616158349E+03  0.11370780251E+04  0.00000000000E+00 0. -1.
<mgrwt>
<rscale>  0 0.22363687E+04</rscale>
<asrwt>0</asrwt>
<pdfrwt beam="1">  1        1 0.11493702E+00 0.22363687E+04</pdfrwt>
<pdfrwt beam="2">  1       -1 0.25747804E+00 0.22363687E+04</pdfrwt>
<totfact> 0.13954916E+00</totfact>
</mgrwt>
</event>
<event>
 6    1  0.1568961E-005  0.2214581E+04  0.7818608E-02  0.8512383E-01
         -2   -1    0    0    0  501 -0.00000000000E+00  0.00000000000E+00  0.40775408321E+03  0.40775408321E+03  0.00000000000E+00 0. -1.
          2   -1    0    0  501    0  0.00000000000E+00 -0.00000000000E+00 -0.30069411113E+04  0.30069411113E+04  0.00000000000E+00 0.  1.
         23    2    1    2    0    0 -0.68719982258E+03 -0.38471699082E+03 -0.24978676710E+04  0.26206445845E+04  0.90467547059E+02 0.  0.
         13    1    3    3    0    0 -0.64836262079E+03 -0.36322753473E+03 -0.22720524614E+04  0.23905084642E+04  0.00000000000E+00 0.  1.
        -13    1    3    3    0    0 -0.38837201788E+02 -0.21489456090E+02 -0.22581520964E+03  0.23013612031E+03  0.00000000000E+00 0. -1.
         22    1    1    2    0    0  0.68719982258E+03  0.38471699082E+03 -0.10131935706E+03  0.79405061003E+03  0.00000000000E+00 0. -1.
<mgrwt>
<rscale>  0 0.22145812E+04</rscale>
<asrwt>0</asrwt>
<pdfrwt beam="1">  1        2 0.46260634E+00 0.22145812E+04</pdfrwt>
<pdfrwt beam="2">  1       -2 0.62731395E-01 0.22145812E+04</pdfrwt>
<totfact> 0.37119978E+00</totfact>
</mgrwt>
</event>
<event>
 6    1  0.1568961E-005  0.1998956E+04  0.7818608E-02  0.8607109E-01
         -1   -1    0    0    0  501 -0.00000000000E+00  0.00000000000E+00  0.10224916027E+04  0.10224916027E+04  0.00000000000E+00 0.  1.
          1   -1    0    0  501    0  0.00000000000E+00 -0.00000000000E+00 -0.97698217368E+03  0.97698217368E+03  0.00000000000E+00 0. -1.
         23    2    1    2    0    0  0.12059212493E+03  0.16823991406E+03 -0.95309435072E+03  0.97964210487E+03  0.91992842076E+02 0.  0.
         13    1    3    3    0    0 -0.48366578885E+01  0.52892472795E+02 -0.16508638185E+03  0.17342006922E+03  0.00000000000E+00 0. -1.
        -13    1    3    3    0    0  0.12542878281E+03  0.11534744127E+03 -0.78800796887E+03  0.80622203565E+03  0.00000000000E+00 0.  1.
         22    1    1    2    0    0 -0.12059212493E+03 -0.16823991406E+03  0.99860377975E+03  0.10198316715E+04  0.00000000000E+00 0.  1.
<mgrwt>
<rscale>  0 0.19989558E+04</rscale>
<asrwt>0</asrwt>
<pdfrwt beam="1">  1        1 0.15030495E+00 0.19989558E+04</pdfrwt>
<pdfrwt beam="2">  1       -1 0.15730640E+00 0.19989558E+04</pdfrwt>
<totfact> 0.44841706E+00</totfact>
</mgrwt>
</event>
<event>
 6    1  0.1568961E-005  0.2316702E+04  0.7818608E-02  0.8471365E-01
         -2   -1    0    0    0  501 -0.00000000000E+00  0.00000000000E+00  0.16395125252E+04  0.16395125252E+04  0.00000000000E+00 0.  1.
          2   -1    0    0  501    0  0.00000000000E+00 -0.00000000000E+00 -0.81840010975E+03  0.81840010975E+03  0.00000000000E+00 0. -1.
         23    2    1    2    0    0  0.30694637496E+03  0.11133103053E+04  0.34456480446E+03  0.12086034103E+04  0.91221631038E+02 0.  0.
         11    1    3    3    0    0  0.88523548888E+02  0.34588376780E+03  0.15037851244E+03  0.38740895258E+03  0.00000000000E+00 0.  1.
        -11    1    3    3    0    0  0.21842282607E+03  0.76742653753E+03  0.19418629202E+03  0.82119445777E+03  0.00000000000E+00 0. -1.
         22    1    1    2    0    0 -0.30694637496E+03 -0.11133103053E+04  0.47654761096E+03  0.12493092246E+04  0.00000000000E+00 0.  1.
<mgrwt>
<rscale>  0 0.23167022E+04</rscale>
<asrwt>0</asrwt>
<pdfrwt beam="1">  1        2 0.12590771E+00 0.23167022E+04</pdfrwt>
<pdfrwt beam="2">  1       -2 0.25223270E+00 0.23167022E+04</pdfrwt>
<totfact> 0.18831774E+00</totfact>
</mgrwt>
</event>
<event>
 6    1  0.1568961E-005  0.4467748E+04  0.7818608E-02  0.7916308E-01
          2   -1    0    0  501    0  0.00000000000E+00  0.00000000000E+00  0.32135244518E+04  0.32135244518E+04  0.00000000000E+00 0. -1.
         -2   -1    0    0    0  501 -0.00000000000E+00 -0.00000000000E+00 -0.15528724760E+04  0.15528724760E+04  0.00000000000E+00 0.  1.
         23    2    1    2    0    0 -0.17011876971E+04  0.13302433406E+03  0.23671561721E+04  0.29195392631E+04  0.92445180168E+02 0.  0.
         13    1    3    3    0    0 -0.88348061059E+03  0.56560150298E+02  0.13038306893E+04  0.15759795387E+04  0.00000000000E+00 0.  1.
        -13    1    3    3    0    0 -0.81770708654E+03  0.76464183765E+02  0.10633254828E+04  0.13435597244E+04  0.00000000000E+00 0. -1.
         22    1    1    2    0    0  0.17011876971E+04 -0.13302433406E+03 -0.70650419635E+03  0.18468576647E+04  0.00000000000E+00 0.  1.
<mgrwt>
<rscale>  0 0.44677483E+04</rscale>
<asrwt>0</asrwt>
<pdfrwt beam="1">  1        2 0.49438838E+00 0.44677483E+04</pdfrwt>
<pdfrwt beam="2">  1       -2 0.23890346E+00 0.44677483E+04</pdfrwt>
<totfact> 0.72556698E-02</totfact>
</mgrwt>
</event>
<event>
 6    1  0.1568961E-005  0.2557009E+04  0.7818608E-02  0.8382952E-01
         -1   -1    0    0    0  501 -0.00000000000E+00  0.00000000000E+00  0.44541403343E+03  0.44541403343E+03  0.00000000000E+00 0.  1.
          1   -1    0    0  501    0  0.00000000000E+00 -0.00000000000E+00 -0.36697863303E+04  0.36697863303E+04  0.00000000000E+00 0. -1.
         23    2    1    2    0    0  0.33830133486E+03  0.93967180170E+03 -0.33368519373E+03  0.10568506754E+04  0.90314192942E+02 0.  0.
         13    1    3    3    0    0  0.92956635850E+02  0.38815576330E+03 -0.13700763530E+03  0.42199161705E+03  0.00000000000E+00 0.  1.
        -13    1    3    3    0    0  0.24534469901E+03  0.55151603840E+03 -0.19667755843E+03  0.63485905832E+03  0.00000000000E+00 0. -1.
         22    1    1    2    0    0 -0.33830133486E+03 -0.93967180170E+03 -0.28906871031E+04  0.30583496883E+04  0.00000000000E+00 0. -1.
<mgrwt>
<rscale>  0 0.25570094E+04</rscale>
<asrwt>0</asrwt>
<pdfrwt beam="1">  1        1 0.56458251E+00 0.25570094E+04</pdfrwt>
<pdfrwt beam="2">  1       -1 0.68525236E-01 0.25570094E+04</pdfrwt>
<totfact> 0.34836573E-01</totfact>
</mgrwt>
</event>
<event>
 6    1  0.1568961E-005  0.2456179E+04  0.7818608E-02  0.8418765E-01
         -1   -1    0    0    0  501 -0.00000000000E+00  0.00000000000E+00  0.62216126037E+03  0.62216126037E+03  0.00000000000E+00 0.  1.
          1   -1    0    0  501    0  0.00000000000E+00 -0.00000000000E+00 -0.24241362125E+04  0.24241362125E+04  0.00000000000E+00 0. -1.
         23    2    1    2    0    0 -0.88085390758E+02  0.11586689149E+04 -0.13886730517E+04  0.18129722314E+04  0.90458702936E+02 0.  0.
         13    1    3    3    0    0 -0.54408358589E+02  0.76210205445E+03 -0.97831709346E+03  0.12413154902E+04  0.00000000000E+00 0. -1.
        -13    1    3    3    0    0 -0.33677032168E+02  0.39656686043E+03 -0.41035595829E+03  0.57165674123E+03  0.00000000000E+00 0.  1.
         22    1    1    2    0    0  0.88085390758E+02 -0.11586689149E+04 -0.41330190041E+03  0.12333252415E+04  0.00000000000E+00 0.  1.
<mgrwt>
<rscale>  0 0.24561789E+04</rscale>
<asrwt>0</asrwt>
<pdfrwt beam="1">  1        1 0.37294403E+00 0.24561789E+04</pdfrwt>
<pdfrwt beam="2">  1       -1 0.95717118E-01 0.24561789E+04</pdfrwt>
<totfact> 0.14350114E+00</totfact>
</mgrwt>
</event>
<event>
 6    1  0.1568961E-005  0.4684968E+04  0.7818608E-02  0.7879031E-01
         -2   -1    0    0    0  501 -0.00000000000E+00  0.00000000000E+00  0.18650230762E+04  0.18650230762E+04  0.00000000000E+00 0.  1.
          2   -1    0    0  501    0  0.00000000000E+00 -0.00000000000E+00 -0.29421790738E+04  0.29421790738E+04  0.00000000000E+00 0. -1.
         23    2    1    2    0    0  0.13344089885E+04 -0.13689240265E+04  0.84725170153E+03  0.20946488636E+04  0.12295559073E+03 0.  0.
         13    1    3    3    0    0  0.97433145990E+03 -0.10745806340E+04  0.63545050172E+03  0.15836169590E+04  0.00000000000E+00 0. -1.
        -13    1    3    3    0    0  0.36007752856E+03 -0.29434339245E+03  0.21180119981E+03  0.51103190458E+03  0.00000000000E+00 0.  1.
         22    1    1    2    0    0 -0.13344089885E+04  0.13689240265E+04 -0.19244076992E+04  0.27125532864E+04  0.00000000000E+00 0. -1.
<mgrwt>
<rscale>  0 0.46849682E+04</rscale>
<asrwt>0</asrwt>
<pdfrwt beam="1">  1        2 0.45264293E+00 0.46849682E+04</pdfrwt>
<pdfrwt beam="2">  1       -2 0.28692663E+00 0.46849682E+04</pdfrwt>
<totfact> 0.53937265E-02</totfact>
</mgrwt>
</event>
<event>
 6    1  0.1568961E-005  0.4077390E+04  0.7818608E-02  0.7989114E-01
          2   -1    0    0  501    0  0.00000000000E+00  0.00000000000E+00  0.19797935106E+04  0.19797935106E+04  0.00000000000E+00 0. -1.
         -2   -1    0    0    0  501 -0.00000000000E+00 -0.00000000000E+00 -0.20993488609E+04  0.20993488609E+04  0.00000000000E+00 0.  1.
         23    2    1    2    0    0  0.16508371044E+04 -0.11076575074E+04 -0.50721862924E+03  0.20536915286E+04  0.90608268025E+02 0.  0.
         11    1    3    3    0    0  0.28141208152E+03 -0.16107368997E+03 -0.57818378848E+02  0.32936371712E+03  0.00000000000E+00 0. -1.
        -11    1    3    3    0    0  0.13694250228E+04 -0.94658381740E+03 -0.44940025039E+03  0.17243278115E+04  0.00000000000E+00 0.  1.
         22    1    1    2    0    0 -0.16508371044E+04  0.11076575074E+04  0.38766327893E+03  0.20254508428E+04  0.00000000000E+00 0. -1.
<mgrwt>
<rscale>  0 0.40773900E+04</rscale>
<asrwt>0</asrwt>
<pdfrwt beam="1">  1        2 0.30458362E+00 0.40773900E+04</pdfrwt>
<pdfrwt beam="2">  1       -2 0.32297675E+00 0.40773900E+04</pdfrwt>
<totfact> 0.12335562E-01</totfact>
</mgrwt>
</event>
<event>
 6    1  0.1568961E-005  0.1212177E+04  0.7818608E-02  0.9102264E-01
         -1   -1    0    0    0  501 -0.00000000000E+00  0.00000000000E+00  0.16094056239E+04  0.16094056239E+04  0.00000000000E+00 0.  1.
          1   -1    0    0  501    0  0.00000000000E+00 -0.00000000000E+00 -0.22824770651E+03  0.22824770651E+03  0.00000000000E+00 0. -1.
         23    2    1    2    0    0  0.98246797870E+00  0.15225290001E+03  0.15783778132E+04  0.15884995663E+04  0.94193631384E+02 0.  0.
         11    1    3    3    0    0  0.11216205327E+02  0.14751667718E+03  0.10902830563E+04  0.11002745640E+04  0.00000000000E+00 0. -1.
        -11    1    3    3    0    0 -0.10233737348E+02  0.47362228267E+01  0.48809475694E+03  0.48822500237E+03  0.00000000000E+00 0.  1.
         22    1    1    2    0    0 -0.98246797870E+00 -0.15225290001E+03 -0.19721989587E+03  0.24915376403E+03  0.00000000000E+00 0. -1.
<mgrwt>
<rscale>  0 0.12121768E+04</rscale>
<asrwt>0</asrwt>
<pdfrwt beam="1">  1        1 0.35115033E-01 0.12121768E+04</pdfrwt>
<pdfrwt beam="2">  1       -1 0.24760086E+00 0.12121768E+04</pdfrwt>
<totfact> 0.89703873E+00</totfact>
</mgrwt>
</event>
<event>
 6    1  0.1568961E-005  0.1773950E+04  0.7818608E-02  0.8720277E-01
          2   -1    0    0  501    0  0.00000000000E+00  0.00000000000E+00  0.14711722466E+04  0.14711722466E+04  0.00000000000E+00 0. -1.
         -2   -1    0    0    0  501 -0.00000000000E+00 -0.00000000000E+00 -0.53476024696E+03  0.53476024696E+03  0.00000000000E+00 0.  1.
         23    2    1    2    0    0 -0.24812690498E+03 -0.79396887156E+03  0.12891021179E+03  0.84661689057E+03  0.90491915198E+02 0.  0.
         11    1    3    3    0    0 -0.12519732521E+03 -0.52652805153E+03  0.61821032183E+02  0.54472745415E+03  0.00000000000E+00 0. -1.
        -11    1    3    3    0    0 -0.12292957977E+03 -0.26744082003E+03  0.67089179610E+02  0.30188943641E+03  0.00000000000E+00 0.  1.
         22    1    1    2    0    0  0.24812690498E+03  0.79396887156E+03  0.80750178786E+03  0.11593156030E+04  0.00000000000E+00 0. -1.
<mgrwt>
<rscale>  0 0.17739498E+04</rscale>
<asrwt>0</asrwt>
<pdfrwt beam="1">  1        2 0.22633419E+00 0.17739498E+04</pdfrwt>
<pdfrwt beam="2">  1       -2 0.82270808E-01 0.17739498E+04</pdfrwt>
<totfact> 0.16179953E+01</totfact>
</mgrwt>
</event>
<event>
 6    1  0.1568961E-005  0.3028432E+04  0.7818608E-02  0.8235658E-01
         -2   -1    0    0    0  501 -0.00000000000E+00  0.00000000000E+00  0.99098286978E+03  0.99098286978E+03  0.00000000000E+00 0.  1.
          2   -1    0    0  501    0  0.00000000000E+00 -0.00000000000E+00 -0.23137133764E+04  0.23137133764E+04  0.00000000000E+00 0. -1.
         23    2    1    2    0    0  0.53957271700E+03  0.14869361950E+03  0.87144419693E+03  0.10402644987E+04  0.97399843161E+02 0.  0.
         13    1    3    3    0    0  0.39938039402E+03  0.64616057044E+02  0.61421370024E+03  0.73548514840E+03  0.00000000000E+00 0. -1.
        -13    1    3    3    0    0  0.14019232297E+03  0.84077562457E+02  0.25723049669E+03  0.30477935028E+03  0.00000000000E+00 0.  1.
         22    1    1    2    0    0 -0.53957271700E+03 -0.14869361950E+03 -0.21941747036E+04  0.22644317475E+04  0.00000000000E+00 0. -1.
<mgrwt>
<rscale>  0 0.30284321E+04</rscale>
<asrwt>0</asrwt>
<pdfrwt beam="1">  1        2 0.35595590E+00 0.30284321E+04</pdfrwt>
<pdfrwt beam="2">  1       -2 0.15245891E+00 0.30284321E+04</pdfrwt>
<totfact> 0.10911051E+00</totfact>
</mgrwt>
</event>
<event>
 6    1  0.1568961E-005  0.7503177E+03  0.7818608E-02  0.9634852E-01
          2   -1    0    0  501    0  0.00000000000E+00  0.00000000000E+00  0.12881415801E+04  0.12881415801E+04  0.00000000000E+00 0. -1.
         -2   -1    0    0    0  501 -0.00000000000E+00 -0.00000000000E+00 -0.10926141427E+03  0.10926141427E+03  0.00000000000E+00 0.  1.
         23    2    1    2    0    0  0.86351025150E+02 -0.88648973696E+02  0.12468048183E+04  0.12562332437E+04  0.91019599048E+02 0.  0.
         13    1    3    3    0    0  0.71557746295E+02 -0.49275243367E+02  0.44949259109E+03  0.45781235250E+03  0.00000000000E+00 0. -1.
        -13    1    3    3    0    0  0.14793278855E+02 -0.39373730328E+02  0.79731222725E+03  0.79842089118E+03  0.00000000000E+00 0.  1.
         22    1    1    2    0    0 -0.86351025150E+02  0.88648973696E+02 -0.67924652526E+02  0.14116975066E+03  0.00000000000E+00 0.  1.
<mgrwt>
<rscale>  0 0.75031772E+03</rscale>
<asrwt>0</asrwt>
<pdfrwt beam="1">  1        2 0.19817562E+00 0.75031772E+03</pdfrwt>
<pdfrwt beam="2">  1       -2 0.16809449E-01 0.75031772E+03</pdfrwt>
<totfact> 0.48898856E+02</totfact>
</mgrwt>
</event>
<event>
 6    1  0.1568961E-005  0.1802160E+04  0.7818608E-02  0.8705152E-01
          1   -1    0    0  501    0  0.00000000000E+00  0.00000000000E+00  0.12629490839E+04  0.12629490839E+04  0.00000000000E+00 0. -1.
         -1   -1    0    0    0  501 -0.00000000000E+00 -0.00000000000E+00 -0.64289585840E+03  0.64289585840E+03  0.00000000000E+00 0.  1.
         23    2    1    2    0    0 -0.28570397086E+03 -0.65320727184E+03 -0.26793485165E+03  0.76706079942E+03  0.91031238249E+02 0.  0.
         13    1    3    3    0    0 -0.31260025908E+02 -0.11852972161E+03 -0.16237979633E+02  0.12365337079E+03  0.00000000000E+00 0.  1.
        -13    1    3    3    0    0 -0.25444394495E+03 -0.53467755022E+03 -0.25169687202E+03  0.64340742863E+03  0.00000000000E+00 0. -1.
         22    1    1    2    0    0  0.28570397086E+03  0.65320727184E+03  0.88798807720E+03  0.11387841429E+04  0.00000000000E+00 0. -1.
<mgrwt>
<rscale>  0 0.18021595E+04</rscale>
<asrwt>0</asrwt>
<pdfrwt beam="1">  1        1 0.19429986E+00 0.18021595E+04</pdfrwt>
<pdfrwt beam="2">  1       -1 0.98907055E-01 0.18021595E+04</pdfrwt>
<totfact> 0.88686502E+00</totfact>
</mgrwt>
</event>
<event>
 6    1  0.1568961E-005  0.2234929E+04  0.7818608E-02  0.8504029E-01
          1   -1    0    0  501    0  0.00000000000E+00  0.00000000000E+00  0.13344670526E+04  0.13344670526E+04  0.00000000000E+00 0. -1.
         -1   -1    0    0    0  501 -0.00000000000E+00 -0.00000000000E+00 -0.93574925145E+03  0.93574925145E+03  0.00000000000E+00 0.  1.
         23    2    1    2    0    0  0.70292015486E+03 -0.21000500079E+03 -0.65329421888E+03  0.98766878652E+03  0.10245706895E+03 0.  0.
         13    1    3    3    0    0  0.55973697999E+03 -0.17575024110E+03 -0.57253333310E+03  0.81974877342E+03  0.00000000000E+00 0.  1.
        -13    1    3    3    0    0  0.14318317487E+03 -0.34254759687E+02 -0.80760885783E+02  0.16792001310E+03  0.00000000000E+00 0. -1.
         22    1    1    2    0    0 -0.70292015486E+03  0.21000500079E+03  0.10520120200E+04  0.12825475175E+04  0.00000000000E+00 0. -1.
<mgrwt>
<rscale>  0 0.22349287E+04</rscale>
<asrwt>0</asrwt>
<pdfrwt beam="1">  1        1 0.20530262E+00 0.22349287E+04</pdfrwt>
<pdfrwt beam="2">  1       -1 0.14396142E+00 0.22349287E+04</pdfrwt>
<totfact> 0.30260369E+00</totfact>
</mgrwt>
</event>
<event>
 6    1  0.1618135E-005  0.3079272E+04  0.7818608E-02  0.8221450E-01
         -1   -1    0    0    0  501 -0.00000000000E+00  0.00000000000E+00  0.13337973976E+04  0.13337973976E+04  0.00000000000E+00 0.  1.
          1   -1    0    0  501    0  0.00000000000E+00 -0.00000000000E+00 -0.17772402431E+04  0.17772402431E+04  0.00000000000E+00 0. -1.
         23    2    1    2    0    0  0.12173368052E+04  0.73997476724E+03 -0.80826238090E+03  0.16404714753E+04  0.91580737121E+02 0.  0.
         13    1    3    3    0    0  0.64633686928E+03  0.34958063506E+03 -0.38537533955E+03  0.82974220173E+03  0.00000000000E+00 0. -1.
        -13    1    3    3    0    0  0.57099993590E+03  0.39039413217E+03 -0.42288704136E+03  0.81072927355E+03  0.00000000000E+00 0.  1.
         22    1    1    2    0    0 -0.12173368052E+04 -0.73997476724E+03  0.36481953544E+03  0.14705661654E+04  0.00000000000E+00 0. -1.
<mgrwt>
<rscale>  0 0.30792716E+04</rscale>
<asrwt>0</asrwt>
<pdfrwt beam="1">  1        1 0.27342157E+00 0.30792716E+04</pdfrwt>
<pdfrwt beam="2">  1       -1 0.20519960E+00 0.30792716E+04</pdfrwt>
<totfact> 0.49472952E-01</totfact>
</mgrwt>
</event>
<event>
 6    1  0.1568961E-005  0.1719919E+04  0.7818608E-02  0.8750085E-01
          1   -1    0    0  501    0  0.00000000000E+00  0.00000000000E+00  0.11595581031E+04  0.11595581031E+04  0.00000000000E+00 0. -1.
         -1   -1    0    0    0  501 -0.00000000000E+00 -0.00000000000E+00 -0.63776904223E+03  0.63776904223E+03  0.00000000000E+00 0.  1.
         23    2    1    2    0    0 -0.26838602998E+03  0.43657774772E+03  0.98061411127E+03  0.11094669722E+04  0.81741888073E+02 0.  0.
         11    1    3    3    0    0 -0.25478730776E+03  0.36316321947E+03  0.81872555254E+03  0.93119043516E+03  0.00000000000E+00 0.  1.
        -11    1    3    3    0    0 -0.13598722225E+02  0.73414528254E+02  0.16188855873E+03  0.17827653702E+03  0.00000000000E+00 0. -1.
         22    1    1    2    0    0  0.26838602998E+03 -0.43657774772E+03 -0.45882505041E+03  0.68786017313E+03  0.00000000000E+00 0.  1.
<mgrwt>
<rscale>  0 0.17199189E+04</rscale>
<asrwt>0</asrwt>
<pdfrwt beam="1">  1        1 0.17839355E+00 0.17199189E+04</pdfrwt>
<pdfrwt beam="2">  1       -1 0.98118314E-01 0.17199189E+04</pdfrwt>
<totfact> 0.10822878E+01</totfact>
</mgrwt>
</event>
<event>
 6    1  0.1568961E-005  0.3122957E+04  0.7818608E-02  0.8209466E-01
          2   -1    0    0  501    0  0.00000000000E+00  0.00000000000E+00  0.22520049953E+04  0.22520049953E+04  0.00000000000E+00 0. -1.
         -2   -1    0    0    0  501 -0.00000000000E+00 -0.00000000000E+00 -0.10826866678E+04  0.10826866678E+04  0.00000000000E+00 0.  1.
         23    2    1    2    0    0 -0.24735634297E+03 -0.15142781419E+04  0.89157449816E+03  0.17754081462E+04  0.54272906259E+02 0.  0.
         13    1    3    3    0    0 -0.12396314101E+03 -0.62787413170E+03  0.35277501954E+03  0.73078245737E+03  0.00000000000E+00 0. -1.
        -13    1    3    3    0    0 -0.12339320196E+03 -0.88640401019E+03  0.53879947862E+03  0.10446256888E+04  0.00000000000E+00 0.  1.
         22    1    1    2    0    0  0.24735634297E+03  0.15142781419E+04  0.27774382930E+03  0.15592835169E+04  0.00000000000E+00 0. -1.
<mgrwt>
<rscale>  0 0.31229574E+04</rscale>
<asrwt>0</asrwt>
<pdfrwt beam="1">  1        2 0.34646231E+00 0.31229574E+04</pdfrwt>
<pdfrwt beam="2">  1       -2 0.16656718E+00 0.31229574E+04</pdfrwt>
<totfact> 0.92249770E-01</totfact>
</mgrwt>
</event>
<event>
 6    1  0.1568961E-005  0.1592847E+04  0.7818608E-02  0.8824954E-01
         -1   -1    0    0    0  501 -0.00000000000E+00  0.00000000000E+00  0.32522641180E+03  0.32522641180E+03  0.00000000000E+00 0.  1.
          1   -1    0    0  501    0  0.00000000000E+00 -0.00000000000E+00 -0.19503049773E+04  0.19503049773E+04  0.00000000000E+00 0. -1.
         23    2    1    2    0    0  0.51367536039E+03  0.10356965232E+03 -0.16670513757E+04  0.17498406382E+04  0.91065477427E+02 0.  0.
         13    1    3    3    0    0  0.62654224390E+02  0.19159205309E+02 -0.32432082465E+03  0.33087251969E+03  0.00000000000E+00 0. -1.
        -13    1    3    3    0    0  0.45102113600E+03  0.84410447014E+02 -0.13427305511E+04  0.14189681185E+04  0.00000000000E+00 0.  1.
         22    1    1    2    0    0 -0.51367536039E+03 -0.10356965232E+03  0.41972810216E+02  0.52569075087E+03  0.00000000000E+00 0.  1.
<mgrwt>
<rscale>  0 0.15928474E+04</rscale>
<asrwt>0</asrwt>
<pdfrwt beam="1">  1        1 0.30004693E+00 0.15928474E+04</pdfrwt>
<pdfrwt beam="2">  1       -1 0.50034831E-01 0.15928474E+04</pdfrwt>
<totfact> 0.12399328E+01</totfact>
</mgrwt>
</event>
<event>
 6    1  0.1568961E-005  0.2019353E+04  0.7818608E-02  0.8597626E-01
         -1   -1    0    0    0  501 -0.00000000000E+00  0.00000000000E+00  0.97111229345E+03  0.97111229345E+03  0.00000000000E+00 0.  1.
          1   -1    0    0  501    0  0.00000000000E+00 -0.00000000000E+00 -0.10497716791E+04  0.10497716791E+04  0.00000000000E+00 0. -1.
         23    2    1    2    0    0 -0.87522483418E+03 -0.12042339560E+03  0.44555200068E+03  0.99359731238E+03  0.90546834700E+02 0.  0.
         13    1    3    3    0    0 -0.67367511252E+03 -0.97732702493E+02  0.38436629995E+03  0.78174630853E+03  0.00000000000E+00 0.  1.
        -13    1    3    3    0    0 -0.20154972167E+03 -0.22690693111E+02  0.61185700727E+02  0.21185100385E+03  0.00000000000E+00 0. -1.
         22    1    1    2    0    0  0.87522483418E+03  0.12042339560E+03 -0.52421138628E+03  0.10272866601E+04  0.00000000000E+00 0. -1.
<mgrwt>
<rscale>  0 0.20193526E+04</rscale>
<asrwt>0</asrwt>
<pdfrwt beam="1">  1        1 0.16150334E+00 0.20193526E+04</pdfrwt>
<pdfrwt beam="2">  1       -1 0.14940189E+00 0.20193526E+04</pdfrwt>
<totfact> 0.45223750E+00</totfact>
</mgrwt>
</event>
<event>
 6    1  0.1568961E-005  0.2557796E+04  0.7818608E-02  0.8382680E-01
         -1   -1    0    0    0  501 -0.00000000000E+00  0.00000000000E+00  0.30445116227E+04  0.30445116227E+04  0.00000000000E+00 0.  1.
          1   -1    0    0  501    0  0.00000000000E+00 -0.00000000000E+00 -0.53722255035E+03  0.53722255035E+03  0.00000000000E+00 0. -1.
         23    2    1    2    0    0 -0.35484802354E+02 -0.12765167480E+04  0.12934188722E+04  0.18198502263E+04  0.90378582588E+02 0.  0.
         13    1    3    3    0    0 -0.53365756560E+02 -0.63439384180E+03  0.60446213841E+03  0.87788263866E+03  0.00000000000E+00 0. -1.
        -13    1    3    3    0    0  0.17880954206E+02 -0.64212290616E+03  0.68895673376E+03  0.94196758762E+03  0.00000000000E+00 0.  1.
         22    1    1    2    0    0  0.35484802354E+02  0.12765167480E+04  0.12138702002E+04  0.17618839468E+04  0.00000000000E+00 0.  1.
<mgrwt>
<rscale>  0 0.25577962E+04</rscale>
<asrwt>0</asrwt>
<pdfrwt beam="1">  1        1 0.82649625E-01 0.25577962E+04</pdfrwt>
<pdfrwt beam="2">  1       -1 0.46838639E+00 0.25577962E+04</pdfrwt>
<totfact> 0.85646341E-02</totfact>
</mgrwt>
</event>
<event>
 6    1  0.1568961E-005  0.3458429E+04  0.7818608E-02  0.8123713E-01
          2   -1    0    0  501    0  0.00000000000E+00  0.00000000000E+00  0.19472012106E+04  0.19472012106E+04  0.00000000000E+00 0. -1.
         -2   -1    0    0    0  501 -0.00000000000E+00 -0.00000000000E+00 -0.15356309816E+04  0.15356309816E+04  0.00000000000E+00 0.  1.
         23    2    1    2    0    0  0.65642923147E+03 -0.10827507639E+04  0.13901487905E+04  0.18825620420E+04  0.90981480011E+02 0.  0.
         11    1    3    3    0    0  0.28921881651E+03 -0.40631841071E+03  0.58407159679E+03  0.76803763246E+03  0.00000000000E+00 0.  1.
        -11    1    3    3    0    0  0.36721041496E+03 -0.67643235316E+03  0.80607719371E+03  0.11145244095E+04  0.00000000000E+00 0. -1.
         22    1    1    2    0    0 -0.65642923147E+03  0.10827507639E+04 -0.97857856148E+03  0.16002701502E+04  0.00000000000E+00 0.  1.
<mgrwt>
<rscale>  0 0.34584288E+04</rscale>
<asrwt>0</asrwt>
<pdfrwt beam="1">  1        2 0.29956942E+00 0.34584288E+04</pdfrwt>
<pdfrwt beam="2">  1       -2 0.23625092E+00 0.34584288E+04</pdfrwt>
<totfact> 0.46066767E-01</totfact>
</mgrwt>
</event>
<event>
 6    1  0.1568961E-005  0.2531662E+04  0.7818608E-02  0.8391792E-01
          1   -1    0    0  501    0  0.00000000000E+00  0.00000000000E+00  0.14833892690E+04  0.14833892690E+04  0.00000000000E+00 0. -1.
         -1   -1    0    0    0  501 -0.00000000000E+00 -0.00000000000E+00 -0.10801804101E+04  0.10801804101E+04  0.00000000000E+00 0.  1.
         23    2    1    2    0    0 -0.82471036855E+03 -0.21635482980E+03  0.11469884789E+04  0.14321260316E+04  0.91901008112E+02 0.  0.
         11    1    3    3    0    0 -0.80841222553E+03 -0.19728593506E+03  0.11197611476E+04  0.13951046894E+04  0.00000000000E+00 0. -1.
        -11    1    3    3    0    0 -0.16298143020E+02 -0.19068894745E+02  0.27227331269E+02  0.37021342233E+02  0.00000000000E+00 0.  1.
         22    1    1    2    0    0  0.82471036855E+03  0.21635482980E+03 -0.74377962001E+03  0.11314436475E+04  0.00000000000E+00 0.  1.
<mgrwt>
<rscale>  0 0.25316619E+04</rscale>
<asrwt>0</asrwt>
<pdfrwt beam="1">  1        1 0.22821373E+00 0.25316619E+04</pdfrwt>
<pdfrwt beam="2">  1       -1 0.16618160E+00 0.25316619E+04</pdfrwt>
<totfact> 0.15630520E+00</totfact>
</mgrwt>
</event>
<event>
 6    1  0.1568961E-005  0.1232095E+04  0.7818608E-02  0.9085219E-01
          1   -1    0    0  501    0  0.00000000000E+00  0.00000000000E+00  0.93347090448E+03  0.93347090448E+03  0.00000000000E+00 0. -1.
         -1   -1    0    0    0  501 -0.00000000000E+00 -0.00000000000E+00 -0.40656274976E+03  0.40656274976E+03  0.00000000000E+00 0.  1.
         23    2    1    2    0    0  0.66181868025E+01 -0.47092244002E+03 -0.15972432187E+03  0.50740174108E+03  0.10066242070E+03 0.  0.
         13    1    3    3    0    0 -0.36487073480E+02 -0.98058364126E+02 -0.52382346158E+02  0.11700709164E+03  0.00000000000E+00 0.  1.
        -13    1    3    3    0    0  0.43105260283E+02 -0.37286407590E+03 -0.10734197572E+03  0.39039464944E+03  0.00000000000E+00 0. -1.
         22    1    1    2    0    0 -0.66181868025E+01  0.47092244002E+03  0.68663247659E+03  0.83263191316E+03  0.00000000000E+00 0. -1.
<mgrwt>
<rscale>  0 0.12320950E+04</rscale>
<asrwt>0</asrwt>
<pdfrwt beam="1">  1        1 0.14361091E+00 0.12320950E+04</pdfrwt>
<pdfrwt beam="2">  1       -1 0.62548116E-01 0.12320950E+04</pdfrwt>
<totfact> 0.43754234E+01</totfact>
</mgrwt>
</event>
<event>
 6    1  0.1568961E-005  0.2080426E+04  0.7818608E-02  0.8569915E-01
          1   -1    0    0  501    0  0.00000000000E+00  0.00000000000E+00  0.10330553705E+04  0.10330553705E+04  0.00000000000E+00 0. -1.
         -1   -1    0    0    0  501 -0.00000000000E+00 -0.00000000000E+00 -0.10474206617E+04  0.10474206617E+04  0.00000000000E+00 0.  1.
         23    2    1    2    0    0  0.15359388574E+02  0.51114063573E+03 -0.91079199415E+03  0.10484481770E+04  0.90558615575E+02 0.  0.
         13    1    3    3    0    0 -0.50557616858E+01  0.20534463958E+03 -0.45479074231E+03  0.49902565166E+03  0.00000000000E+00 0. -1.
        -13    1    3    3    0    0  0.20415150259E+02  0.30579599615E+03 -0.45600125184E+03  0.54942252530E+03  0.00000000000E+00 0.  1.
         22    1    1    2    0    0 -0.15359388574E+02 -0.51114063573E+03  0.89642670292E+03  0.10320278553E+04  0.00000000000E+00 0. -1.
<mgrwt>
<rscale>  0 0.20804264E+04</rscale>
<asrwt>0</asrwt>
<pdfrwt beam="1">  1        1 0.15893160E+00 0.20804264E+04</pdfrwt>
<pdfrwt beam="2">  1       -1 0.16114164E+00 0.20804264E+04</pdfrwt>
<totfact> 0.37640386E+00</totfact>
</mgrwt>
</event>
<event>
 6    1  0.1568961E-005  0.1896902E+04  0.7818608E-02  0.8656400E-01
          1   -1    0    0  501    0  0.00000000000E+00  0.00000000000E+00  0.14472682912E+04  0.14472682912E+04  0.00000000000E+00 0. -1.
         -1   -1    0    0    0  501 -0.00000000000E+00 -0.00000000000E+00 -0.62155672425E+03  0.62155672425E+03  0.00000000000E+00 0.  1.
         23    2    1    2    0    0  0.24029550305E+03  0.75429678215E+03 -0.15195125079E+03  0.81083846960E+03  0.87545855459E+02 0.  0.
         11    1    3    3    0    0 -0.67787055156E+01  0.39645741211E+02 -0.49273086375E+01  0.40521772111E+02  0.00000000000E+00 0. -1.
        -11    1    3    3    0    0  0.24707420857E+03  0.71465104094E+03 -0.14702394215E+03  0.77031669749E+03  0.00000000000E+00 0.  1.
         22    1    1    2    0    0 -0.24029550305E+03 -0.75429678215E+03  0.97766281777E+03  0.12579865459E+04  0.00000000000E+00 0. -1.
<mgrwt>
<rscale>  0 0.18969020E+04</rscale>
<asrwt>0</asrwt>
<pdfrwt beam="1">  1        1 0.22265666E+00 0.18969020E+04</pdfrwt>
<pdfrwt beam="2">  1       -1 0.95624112E-01 0.18969020E+04</pdfrwt>
<totfact> 0.70289515E+00</totfact>
</mgrwt>
</event>
<event>
 6    1  0.1568961E-005  0.2982549E+04  0.7818608E-02  0.8248732E-01
         -1   -1    0    0    0  501 -0.00000000000E+00  0.00000000000E+00  0.17037365464E+04  0.17037365464E+04  0.00000000000E+00 0.  1.
          1   -1    0    0  501    0  0.00000000000E+00 -0.00000000000E+00 -0.13053072376E+04  0.13053072376E+04  0.00000000000E+00 0. -1.
         23    2    1    2    0    0 -0.24698748266E+03 -0.14694007528E+04  0.20905740477E+03  0.15070440813E+04  0.85647391502E+02 0.  0.
         11    1    3    3    0    0 -0.94907277523E+02 -0.54638979877E+03  0.36198059188E+02  0.55575129601E+03  0.00000000000E+00 0. -1.
        -11    1    3    3    0    0 -0.15208020514E+03 -0.92301095399E+03  0.17285934558E+03  0.95129278529E+03  0.00000000000E+00 0.  1.
         22    1    1    2    0    0  0.24698748266E+03  0.14694007528E+04  0.18937190410E+03  0.15019997027E+04  0.00000000000E+00 0. -1.
<mgrwt>
<rscale>  0 0.29825490E+04</rscale>
<asrwt>0</asrwt>
<pdfrwt beam="1">  1        1 0.20081650E+00 0.29825490E+04</pdfrwt>
<pdfrwt beam="2">  1       -1 0.26211332E+00 0.29825490E+04</pdfrwt>
<totfact> 0.44428133E-01</totfact>
</mgrwt>
</event>
<event>
 6    1  0.1568961E-005  0.1515097E+04  0.7818608E-02  0.8874475E-01
         -1   -1    0    0    0  501 -0.00000000000E+00  0.00000000000E+00  0.18707887384E+04  0.18707887384E+04  0.00000000000E+00 0.  1.
          1   -1    0    0  501    0  0.00000000000E+00 -0.00000000000E+00 -0.30675813244E+03  0.30675813244E+03  0.00000000000E+00 0. -1.
         23    2    1    2    0    0  0.15590064917E+03  0.55176989179E+03  0.14896200947E+04  0.15993670112E+04  0.10125109382E+03 0.  0.
         13    1    3    3    0    0  0.94599817167E+02  0.22579123477E+03  0.74554691551E+03  0.78471078132E+03  0.00000000000E+00 0.  1.
        -13    1    3    3    0    0  0.61300832004E+02  0.32597865702E+03  0.74407317922E+03  0.81465622987E+03  0.00000000000E+00 0. -1.
         22    1    1    2    0    0 -0.15590064917E+03 -0.55176989179E+03  0.74410511210E+02  0.57817985963E+03  0.00000000000E+00 0. -1.
<mgrwt>
<rscale>  0 0.15150969E+04</rscale>
<asrwt>0</asrwt>
<pdfrwt beam="1">  1        1 0.47193560E-01 0.15150969E+04</pdfrwt>
<pdfrwt beam="2">  1       -1 0.28781365E+00 0.15150969E+04</pdfrwt>
<totfact> 0.32654232E+00</totfact>
</mgrwt>
</event>
<event>
 6    1  0.1568961E-005  0.2316362E+04  0.7818608E-02  0.8471498E-01
          2   -1    0    0  501    0  0.00000000000E+00  0.00000000000E+00  0.14420936845E+04  0.14420936845E+04  0.00000000000E+00 0.  1.
         -2   -1    0    0    0  501 -0.00000000000E+00 -0.00000000000E+00 -0.93016381635E+03  0.93016381635E+03  0.00000000000E+00 0. -1.
         23    2    1    2    0    0  0.41786204488E+03 -0.69808976937E+03 -0.58516130092E+03  0.10064071987E+04  0.92215436915E+02 0.  0.
         13    1    3    3    0    0  0.28089909007E+03 -0.42555614595E+03 -0.31803059053E+03  0.60095406535E+03  0.00000000000E+00 0. -1.
        -13    1    3    3    0    0  0.13696295481E+03 -0.27253362343E+03 -0.26713071040E+03  0.40545313333E+03  0.00000000000E+00 0.  1.
         22    1    1    2    0    0 -0.41786204488E+03  0.69808976937E+03  0.10970911690E+04  0.13658503021E+04  0.00000000000E+00 0.  1.
<mgrwt>
<rscale>  0 0.23163621E+04</rscale>
<asrwt>0</asrwt>
<pdfrwt beam="1">  1        2 0.22186057E+00 0.23163621E+04</pdfrwt>
<pdfrwt beam="2">  1       -2 0.14310213E+00 0.23163621E+04</pdfrwt>
<totfact> 0.42054512E+00</totfact>
</mgrwt>
</event>
<event>
 6    1  0.1568961E-005  0.2325665E+04  0.7818608E-02  0.8467870E-01
         -2   -1    0    0    0  501 -0.00000000000E+00  0.00000000000E+00  0.45570874908E+03  0.45570874908E+03  0.00000000000E+00 0.  1.
          2   -1    0    0  501    0  0.00000000000E+00 -0.00000000000E+00 -0.29671998667E+04  0.29671998667E+04  0.00000000000E+00 0. -1.
         23    2    1    2    0    0  0.88495057792E+03  0.15697039629E+03 -0.17608614808E+03  0.92053102588E+03  0.92702790645E+02 0.  0.
         13    1    3    3    0    0  0.22904829894E+03  0.77683614690E+02 -0.66384323672E+02  0.25080818501E+03  0.00000000000E+00 0.  1.
        -13    1    3    3    0    0  0.65590227897E+03  0.79286781596E+02 -0.10970182441E+03  0.66972284087E+03  0.00000000000E+00 0. -1.
         22    1    1    2    0    0 -0.88495057792E+03 -0.15697039629E+03 -0.23354049695E+04  0.25023775898E+04  0.00000000000E+00 0. -1.
<mgrwt>
<rscale>  0 0.23256646E+04</rscale>
<asrwt>0</asrwt>
<pdfrwt beam="1">  1        2 0.45649228E+00 0.23256646E+04</pdfrwt>
<pdfrwt beam="2">  1       -2 0.70109039E-01 0.23256646E+04</pdfrwt>
<totfact> 0.30614130E+00</totfact>
</mgrwt>
</event>
<event>
 6    1  0.1568961E-005  0.7496021E+03  0.7818608E-02  0.9635975E-01
          2   -1    0    0  501    0  0.00000000000E+00  0.00000000000E+00  0.26077528698E+04  0.26077528698E+04  0.00000000000E+00 0. -1.
         -2   -1    0    0    0  501 -0.00000000000E+00 -0.00000000000E+00 -0.53868532210E+02  0.53868532210E+02  0.00000000000E+00 0.  1.
         23    2    1    2    0    0 -0.78296063699E+02  0.16366245408E+03  0.24377226263E+04  0.24461934195E+04  0.91950913362E+02 0.  0.
         13    1    3    3    0    0 -0.58531578902E+02  0.73321956333E+02  0.73534089405E+03  0.74130175062E+03  0.00000000000E+00 0.  1.
        -13    1    3    3    0    0 -0.19764484797E+02  0.90340497751E+02  0.17023817322E+04  0.17048916689E+04  0.00000000000E+00 0. -1.
         22    1    1    2    0    0  0.78296063699E+02 -0.16366245408E+03  0.11616171128E+03  0.21542798248E+03  0.00000000000E+00 0.  1.
<mgrwt>
<rscale>  0 0.74960208E+03</rscale>
<asrwt>0</asrwt>
<pdfrwt beam="1">  1        2 0.40119265E+00 0.74960208E+03</pdfrwt>
<pdfrwt beam="2">  1       -2 0.82874685E-02 0.74960208E+03</pdfrwt>
<totfact> 0.29162467E+02</totfact>
</mgrwt>
</event>
<event>
 6    1  0.1568961E-005  0.5946321E+04  0.7818608E-02  0.7697093E-01
         -1   -1    0    0    0  501 -0.00000000000E+00  0.00000000000E+00  0.29138632009E+04  0.29138632009E+04  0.00000000000E+00 0.  1.
          1   -1    0    0  501    0  0.00000000000E+00 -0.00000000000E+00 -0.30336641460E+04  0.30336641460E+04  0.00000000000E+00 0. -1.
         23    2    1    2    0    0 -0.18362525100E+04 -0.21203274133E+04  0.92406014815E+03  0.29546595580E+04  0.92273104503E+02 0.  0.
         13    1    3    3    0    0 -0.12309559399E+04 -0.14856695344E+04  0.62724827441E+03  0.20287697970E+04  0.00000000000E+00 0.  1.
        -13    1    3    3    0    0 -0.60529657014E+03 -0.63465787887E+03  0.29681187374E+03  0.92588976095E+03  0.00000000000E+00 0. -1.
         22    1    1    2    0    0  0.18362525100E+04  0.21203274133E+04 -0.10438610932E+04  0.29928677889E+04  0.00000000000E+00 0. -1.
<mgrwt>
<rscale>  0 0.59463207E+04</rscale>
<asrwt>0</asrwt>
<pdfrwt beam="1">  1        1 0.46671756E+00 0.59463207E+04</pdfrwt>
<pdfrwt beam="2">  1       -1 0.44828664E+00 0.59463207E+04</pdfrwt>
<totfact> 0.12643054E-03</totfact>
</mgrwt>
</event>
<event>
 6    1  0.2516147E-005  0.3785736E+04  0.7818608E-02  0.8049223E-01
          1   -1    0    0  501    0  0.00000000000E+00  0.00000000000E+00  0.17223588330E+04  0.17223588330E+04  0.00000000000E+00 0. -1.
         -1   -1    0    0    0  501 -0.00000000000E+00 -0.00000000000E+00 -0.20802574591E+04  0.20802574591E+04  0.00000000000E+00 0.  1.
         23    2    1    2    0    0  0.29861324958E+03 -0.12134159008E+04 -0.16055437868E+04  0.20367832116E+04  0.95744338771E+02 0.  0.
         11    1    3    3    0    0  0.10073543863E+03 -0.42904158026E+03 -0.64155374672E+03  0.77834151638E+03  0.00000000000E+00 0.  1.
        -11    1    3    3    0    0  0.19787781095E+03 -0.78437432055E+03 -0.96399004010E+03  0.12584416952E+04  0.00000000000E+00 0. -1.
         22    1    1    2    0    0 -0.29861324958E+03  0.12134159008E+04  0.12476451607E+04  0.17658330805E+04  0.00000000000E+00 0. -1.
<mgrwt>
<rscale>  0 0.37857363E+04</rscale>
<asrwt>0</asrwt>
<pdfrwt beam="1">  1        1 0.26497828E+00 0.37857363E+04</pdfrwt>
<pdfrwt beam="2">  1       -1 0.32003961E+00 0.37857363E+04</pdfrwt>
<totfact> 0.89646016E-02</totfact>
</mgrwt>
</event>
<event>
 6    1  0.1568961E-005  0.3582001E+04  0.7818608E-02  0.8094627E-01
          1   -1    0    0  501    0  0.00000000000E+00  0.00000000000E+00  0.19792710690E+04  0.19792710690E+04  0.00000000000E+00 0. -1.
         -1   -1    0    0    0  501 -0.00000000000E+00 -0.00000000000E+00 -0.16206387359E+04  0.16206387359E+04  0.00000000000E+00 0.  1.
         23    2    1    2    0    0 -0.88042343524E+03 -0.14256426969E+04 -0.45288508418E+03  0.17381463820E+04  0.91898972769E+02 0.  0.
         13    1    3    3    0    0 -0.75037533724E+03 -0.11895891820E+04 -0.34753552156E+03  0.14487810419E+04  0.00000000000E+00 0. -1.
        -13    1    3    3    0    0 -0.13004809801E+03 -0.23605351492E+03 -0.10534956262E+03  0.28936534009E+03  0.00000000000E+00 0.  1.
         22    1    1    2    0    0  0.88042343524E+03  0.14256426969E+04  0.81151741729E+03  0.18617634230E+04  0.00000000000E+00 0. -1.
<mgrwt>
<rscale>  0 0.35820013E+04</rscale>
<asrwt>0</asrwt>
<pdfrwt beam="1">  1        1 0.30450324E+00 0.35820013E+04</pdfrwt>
<pdfrwt beam="2">  1       -1 0.24932904E+00 0.35820013E+04</pdfrwt>
<totfact> 0.17566537E-01</totfact>
</mgrwt>
</event>
<event>
 6    1  0.1568961E-005  0.4419426E+04  0.7818608E-02  0.7924897E-01
          1   -1    0    0  501    0  0.00000000000E+00  0.00000000000E+00  0.17967579818E+04  0.17967579818E+04  0.00000000000E+00 0. -1.
         -1   -1    0    0    0  501 -0.00000000000E+00 -0.00000000000E+00 -0.27175794421E+04  0.27175794421E+04  0.00000000000E+00 0.  1.
         23    2    1    2    0    0  0.13354445731E+04  0.16936227715E+04 -0.94729593449E+03  0.23573786394E+04  0.89967560497E+02 0.  0.
         11    1    3    3    0    0  0.56566607878E+03  0.70327947982E+03 -0.44404498150E+03  0.10058608676E+04  0.00000000000E+00 0.  1.
        -11    1    3    3    0    0  0.76977849434E+03  0.99034329172E+03 -0.50325095299E+03  0.13515177718E+04  0.00000000000E+00 0. -1.
         22    1    1    2    0    0 -0.13354445731E+04 -0.16936227715E+04  0.26474474270E+02  0.21569587845E+04  0.00000000000E+00 0. -1.
<mgrwt>
<rscale>  0 0.44194265E+04</rscale>
<asrwt>0</asrwt>
<pdfrwt beam="1">  1        1 0.27642431E+00 0.44194265E+04</pdfrwt>
<pdfrwt beam="2">  1       -1 0.41808914E+00 0.44194265E+04</pdfrwt>
<totfact> 0.16643923E-02</totfact>
</mgrwt>
</event>
<event>
 6    1  0.1568961E-005  0.3412417E+04  0.7818608E-02  0.8134865E-01
         -2   -1    0    0    0  501 -0.00000000000E+00  0.00000000000E+00  0.20359452241E+04  0.20359452241E+04  0.00000000000E+00 0.  1.
          2   -1    0    0  501    0  0.00000000000E+00 -0.00000000000E+00 -0.14298751828E+04  0.14298751828E+04  0.00000000000E+00 0. -1.
         23    2    1    2    0    0  0.14291275221E+04 -0.84636441104E+03  0.69420051332E+03  0.18025389603E+04  0.92163768004E+02 0.  0.
         11    1    3    3    0    0  0.12245851553E+04 -0.69217915629E+03  0.56839922910E+03  0.15171679112E+04  0.00000000000E+00 0.  1.
        -11    1    3    3    0    0  0.20454236674E+03 -0.15418525474E+03  0.12580128422E+03  0.28537104914E+03  0.00000000000E+00 0. -1.
         22    1    1    2    0    0 -0.14291275221E+04  0.84636441104E+03 -0.88130472026E+02  0.16632814467E+04  0.00000000000E+00 0. -1.
<mgrwt>
<rscale>  0 0.34124171E+04</rscale>
<asrwt>0</asrwt>
<pdfrwt beam="1">  1        2 0.21998080E+00 0.34124171E+04</pdfrwt>
<pdfrwt beam="2">  1       -2 0.31322234E+00 0.34124171E+04</pdfrwt>
<totfact> 0.30349697E-01</totfact>
</mgrwt>
</event>
<event>
 6    1  0.1568961E-005  0.2743791E+04  0.7818608E-02  0.8320935E-01
          2   -1    0    0  501    0  0.00000000000E+00  0.00000000000E+00  0.20488276779E+04  0.20488276779E+04  0.00000000000E+00 0. -1.
         -2   -1    0    0    0  501 -0.00000000000E+00 -0.00000000000E+00 -0.91862128039E+03  0.91862128039E+03  0.00000000000E+00 0.  1.
         23    2    1    2    0    0  0.94521503434E+03 -0.16586639592E+03 -0.49239789791E+03  0.10822996746E+04  0.89295986706E+02 0.  0.
         11    1    3    3    0    0  0.45001243151E+03 -0.43787511408E+02 -0.26290888908E+03  0.52301971151E+03  0.00000000000E+00 0. -1.
        -11    1    3    3    0    0  0.49520260283E+03 -0.12207888452E+03 -0.22948900883E+03  0.55927996305E+03  0.00000000000E+00 0.  1.
         22    1    1    2    0    0 -0.94521503434E+03  0.16586639592E+03  0.16226042954E+04  0.18851492837E+04  0.00000000000E+00 0. -1.
<mgrwt>
<rscale>  0 0.27437906E+04</rscale>
<asrwt>0</asrwt>
<pdfrwt beam="1">  1        2 0.31520426E+00 0.27437906E+04</pdfrwt>
<pdfrwt beam="2">  1       -2 0.14132635E+00 0.27437906E+04</pdfrwt>
<totfact> 0.19225660E+00</totfact>
</mgrwt>
</event>
<event>
 6    1  0.1568961E-005  0.1060605E+04  0.7818608E-02  0.9244463E-01
          1   -1    0    0  501    0  0.00000000000E+00  0.00000000000E+00  0.24886887344E+03  0.24886887344E+03  0.00000000000E+00 0. -1.
         -1   -1    0    0    0  501 -0.00000000000E+00 -0.00000000000E+00 -0.11299964652E+04  0.11299964652E+04  0.00000000000E+00 0.  1.
         23    2    1    2    0    0  0.11123947684E+03  0.24161820685E+03 -0.10343259752E+04  0.10719071595E+04  0.91657823383E+02 0.  0.
         11    1    3    3    0    0  0.61858708293E+02  0.44544242982E+02 -0.34166266689E+03  0.35006294766E+03  0.00000000000E+00 0.  1.
        -11    1    3    3    0    0  0.49380768551E+02  0.19707396387E+03 -0.69266330828E+03  0.72184421184E+03  0.00000000000E+00 0. -1.
         22    1    1    2    0    0 -0.11123947684E+03 -0.24161820685E+03  0.15319838338E+03  0.30695817917E+03  0.00000000000E+00 0. -1.
<mgrwt>
<rscale>  0 0.10606054E+04</rscale>
<asrwt>0</asrwt>
<pdfrwt beam="1">  1        1 0.38287518E-01 0.10606054E+04</pdfrwt>
<pdfrwt beam="2">  1       -1 0.17384561E+00 0.10606054E+04</pdfrwt>
<totfact> 0.25781809E+01</totfact>
</mgrwt>
</event>
<event>
 6    1  0.1568961E-005  0.4381465E+04  0.7818608E-02  0.7931724E-01
         -2   -1    0    0    0  501 -0.00000000000E+00  0.00000000000E+00  0.21164393560E+04  0.21164393560E+04  0.00000000000E+00 0.  1.
          2   -1    0    0  501    0  0.00000000000E+00 -0.00000000000E+00 -0.22676334402E+04  0.22676334402E+04  0.00000000000E+00 0. -1.
         23    2    1    2    0    0 -0.76504404011E+03  0.92073417254E+03 -0.19101824066E+04  0.22563783356E+04  0.96966834586E+02 0.  0.
         13    1    3    3    0    0 -0.95542103759E+02  0.15035659862E+03 -0.33532985028E+03  0.37971240279E+03  0.00000000000E+00 0. -1.
        -13    1    3    3    0    0 -0.66950193635E+03  0.77037757392E+03 -0.15748525563E+04  0.18766659328E+04  0.00000000000E+00 0.  1.
         22    1    1    2    0    0  0.76504404011E+03 -0.92073417254E+03  0.17589883223E+04  0.21276944606E+04  0.00000000000E+00 0.  1.
<mgrwt>
<rscale>  0 0.43814649E+04</rscale>
<asrwt>0</asrwt>
<pdfrwt beam="1">  1        2 0.34886668E+00 0.43814649E+04</pdfrwt>
<pdfrwt beam="2">  1       -2 0.32560606E+00 0.43814649E+04</pdfrwt>
<totfact> 0.79971114E-02</totfact>
</mgrwt>
</event>
<event>
 6    1  0.1568961E-005  0.1424213E+04  0.7818608E-02  0.8936476E-01
         -1   -1    0    0    0  501 -0.00000000000E+00  0.00000000000E+00  0.29115558166E+03  0.29115558166E+03  0.00000000000E+00 0.  1.
          1   -1    0    0  501    0  0.00000000000E+00 -0.00000000000E+00 -0.17416647047E+04  0.17416647047E+04  0.00000000000E+00 0. -1.
         23    2    1    2    0    0  0.81660427122E+00 -0.37936211263E+03  0.12699985179E+03  0.41033736040E+03  0.91277092679E+02 0.  0.
         11    1    3    3    0    0  0.13469817201E+02 -0.81736792649E+02 -0.81104970103E+01  0.83235325492E+02  0.00000000000E+00 0. -1.
        -11    1    3    3    0    0 -0.12653212930E+02 -0.29762531998E+03  0.13511034880E+03  0.32710203491E+03  0.00000000000E+00 0.  1.
         22    1    1    2    0    0 -0.81660427122E+00  0.37936211263E+03 -0.15775089748E+04  0.16224829260E+04  0.00000000000E+00 0. -1.
<mgrwt>
<rscale>  0 0.14242126E+04</rscale>
<asrwt>0</asrwt>
<pdfrwt beam="1">  1        1 0.26794842E+00 0.14242126E+04</pdfrwt>
<pdfrwt beam="2">  1       -1 0.44793166E-01 0.14242126E+04</pdfrwt>
<totfact> 0.21465065E+01</totfact>
</mgrwt>
</event>
<event>
 6    1  0.1568961E-005  0.2338453E+04  0.7818608E-02  0.8462912E-01
          1   -1    0    0  501    0  0.00000000000E+00  0.00000000000E+00  0.16480566186E+04  0.16480566186E+04  0.00000000000E+00 0. -1.
         -1   -1    0    0    0  501 -0.00000000000E+00 -0.00000000000E+00 -0.82951687598E+03  0.82951687598E+03  0.00000000000E+00 0.  1.
         23    2    1    2    0    0 -0.47869177592E+03 -0.81472595971E+03 -0.31674694423E+03  0.10004817347E+04  0.87811554229E+02 0.  0.
         11    1    3    3    0    0 -0.99589681303E+02 -0.15954750458E+03 -0.27173910227E+02  0.19003139803E+03  0.00000000000E+00 0.  1.
        -11    1    3    3    0    0 -0.37910209462E+03 -0.65517845513E+03 -0.28957303401E+03  0.81045033668E+03  0.00000000000E+00 0. -1.
         22    1    1    2    0    0  0.47869177592E+03  0.81472595971E+03  0.11352866869E+04  0.14770917599E+04  0.00000000000E+00 0. -1.
<mgrwt>
<rscale>  0 0.23384531E+04</rscale>
<asrwt>0</asrwt>
<pdfrwt beam="1">  1        1 0.25354717E+00 0.23384531E+04</pdfrwt>
<pdfrwt beam="2">  1       -1 0.12761798E+00 0.23384531E+04</pdfrwt>
<totfact> 0.24757515E+00</totfact>
</mgrwt>
</event>
<event>
 6    1  0.1568961E-005  0.3294506E+04  0.7818608E-02  0.8164295E-01
          2   -1    0    0  501    0  0.00000000000E+00  0.00000000000E+00  0.23443239040E+04  0.23443239040E+04  0.00000000000E+00 0. -1.
         -2   -1    0    0    0  501 -0.00000000000E+00 -0.00000000000E+00 -0.11574519153E+04  0.11574519153E+04  0.00000000000E+00 0.  1.
         23    2    1    2    0    0  0.10622513770E+04 -0.10041217222E+04 -0.21041257550E+03  0.14796376999E+04  0.91737942792E+02 0.  0.
         11    1    3    3    0    0  0.54531808886E+03 -0.46173622554E+03 -0.12699298087E+03  0.72574057155E+03  0.00000000000E+00 0. -1.
        -11    1    3    3    0    0  0.51693328810E+03 -0.54238549668E+03 -0.83419594627E+02  0.75389712834E+03  0.00000000000E+00 0.  1.
         22    1    1    2    0    0 -0.10622513770E+04  0.10041217222E+04  0.13972845642E+04  0.20221381195E+04  0.00000000000E+00 0.  1.
<mgrwt>
<rscale>  0 0.32945058E+04</rscale>
<asrwt>0</asrwt>
<pdfrwt beam="1">  1        2 0.36066521E+00 0.32945058E+04</pdfrwt>
<pdfrwt beam="2">  1       -2 0.17806953E+00 0.32945058E+04</pdfrwt>
<totfact> 0.66841031E-01</totfact>
</mgrwt>
</event>
<event>
 6    1  0.1568961E-005  0.1487062E+04  0.7818608E-02  0.8893102E-01
         -2   -1    0    0    0  501 -0.00000000000E+00  0.00000000000E+00  0.12533999642E+04  0.12533999642E+04  0.00000000000E+00 0.  1.
          2   -1    0    0  501    0  0.00000000000E+00 -0.00000000000E+00 -0.44107096698E+03  0.44107096698E+03  0.00000000000E+00 0. -1.
         23    2    1    2    0    0 -0.71906523874E+03  0.16309072269E+03  0.48895444333E+03  0.88934702552E+03  0.90599573673E+02 0.  0.
         13    1    3    3    0    0 -0.36425225130E+03  0.51820424152E+02  0.20258982381E+03  0.42000916139E+03  0.00000000000E+00 0.  1.
        -13    1    3    3    0    0 -0.35481298744E+03  0.11127029853E+03  0.28636461953E+03  0.46933786413E+03  0.00000000000E+00 0. -1.
         22    1    1    2    0    0  0.71906523874E+03 -0.16309072269E+03  0.32337455392E+03  0.80512390569E+03  0.00000000000E+00 0. -1.
<mgrwt>
<rscale>  0 0.14870620E+04</rscale>
<asrwt>0</asrwt>
<pdfrwt beam="1">  1        2 0.67857072E-01 0.14870620E+04</pdfrwt>
<pdfrwt beam="2">  1       -2 0.19283076E+00 0.14870620E+04</pdfrwt>
<totfact> 0.10200637E+01</totfact>
</mgrwt>
</event>
<event>
 6    1  0.1568961E-005  0.1133447E+04  0.7818608E-02  0.9173192E-01
          2   -1    0    0  501    0  0.00000000000E+00  0.00000000000E+00  0.69009698541E+03  0.69009698541E+03  0.00000000000E+00 0. -1.
         -2   -1    0    0    0  501 -0.00000000000E+00 -0.00000000000E+00 -0.46540602642E+03  0.46540602642E+03  0.00000000000E+00 0.  1.
         23    2    1    2    0    0  0.37803622420E+03  0.11720121895E+03 -0.29517792626E+03  0.50211861472E+03  0.91354160098E+02 0.  0.
         11    1    3    3    0    0  0.12924826011E+03  0.51732719403E+01 -0.12881989358E+03  0.18255530797E+03  0.00000000000E+00 0.  1.
        -11    1    3    3    0    0  0.24878796409E+03  0.11202794701E+03 -0.16635803268E+03  0.31956330676E+03  0.00000000000E+00 0. -1.
         22    1    1    2    0    0 -0.37803622420E+03 -0.11720121895E+03  0.51986888525E+03  0.65338439711E+03  0.00000000000E+00 0. -1.
<mgrwt>
<rscale>  0 0.11334466E+04</rscale>
<asrwt>0</asrwt>
<pdfrwt beam="1">  1        2 0.10616877E+00 0.11334466E+04</pdfrwt>
<pdfrwt beam="2">  1       -2 0.71600927E-01 0.11334466E+04</pdfrwt>
<totfact> 0.73170270E+01</totfact>
</mgrwt>
</event>
<event>
 6    1  0.1568961E-005  0.1421411E+04  0.7818608E-02  0.8938465E-01
         -2   -1    0    0    0  501 -0.00000000000E+00  0.00000000000E+00  0.70285895095E+03  0.70285895095E+03  0.00000000000E+00 0.  1.
          2   -1    0    0  501    0  0.00000000000E+00 -0.00000000000E+00 -0.71863942289E+03  0.71863942289E+03  0.00000000000E+00 0. -1.
         23    2    1    2    0    0 -0.68937595955E+03 -0.15675268321E+03 -0.41896669168E+02  0.71404330598E+03  0.91059840924E+02 0.  0.
         13    1    3    3    0    0 -0.32462676870E+03 -0.29186625030E+02 -0.32003168403E+02  0.32750358903E+03  0.00000000000E+00 0. -1.
        -13    1    3    3    0    0 -0.36474919084E+03 -0.12756605818E+03 -0.98935007645E+01  0.38653971695E+03  0.00000000000E+00 0.  1.
         22    1    1    2    0    0  0.68937595955E+03  0.15675268321E+03  0.26116197230E+02  0.70745506787E+03  0.00000000000E+00 0.  1.
<mgrwt>
<rscale>  0 0.14214108E+04</rscale>
<asrwt>0</asrwt>
<pdfrwt beam="1">  1        2 0.11055991E+00 0.14214108E+04</pdfrwt>
<pdfrwt beam="2">  1       -2 0.10813215E+00 0.14214108E+04</pdfrwt>
<totfact> 0.26372708E+01</totfact>
</mgrwt>
</event>
<event>
 6    1  0.1568961E-005  0.1414059E+04  0.7818608E-02  0.8943704E-01
          2   -1    0    0  501    0  0.00000000000E+00  0.00000000000E+00  0.63464300468E+03  0.63464300468E+03  0.00000000000E+00 0. -1.
         -2   -1    0    0    0  501 -0.00000000000E+00 -0.00000000000E+00 -0.78767222947E+03  0.78767222947E+03  0.00000000000E+00 0.  1.
         23    2    1    2    0    0 -0.49859259036E+02 -0.70013990091E+03 -0.24106435646E+02  0.70866061733E+03  0.94535304319E+02 0.  0.
         13    1    3    3    0    0  0.14961392809E+02 -0.93415223660E+02 -0.27331365554E+02  0.98474620229E+02  0.00000000000E+00 0. -1.
        -13    1    3    3    0    0 -0.64820651845E+02 -0.60672467725E+03  0.32249299081E+01  0.61018599710E+03  0.00000000000E+00 0.  1.
         22    1    1    2    0    0  0.49859259036E+02  0.70013990091E+03 -0.12892278914E+03  0.71365461682E+03  0.00000000000E+00 0.  1.
<mgrwt>
<rscale>  0 0.14140589E+04</rscale>
<asrwt>0</asrwt>
<pdfrwt beam="1">  1        2 0.97637385E-01 0.14140589E+04</pdfrwt>
<pdfrwt beam="2">  1       -2 0.12118034E+00 0.14140589E+04</pdfrwt>
<totfact> 0.23329376E+01</totfact>
</mgrwt>
</event>
<event>
 6    1  0.1568961E-005  0.9903873E+03  0.7818608E-02  0.9319151E-01
         -2   -1    0    0    0  501 -0.00000000000E+00  0.00000000000E+00  0.39997473559E+03  0.39997473559E+03  0.00000000000E+00 0.  1.
          2   -1    0    0  501    0  0.00000000000E+00 -0.00000000000E+00 -0.61308065958E+03  0.61308065958E+03  0.00000000000E+00 0. -1.
         23    2    1    2    0    0  0.26298744303E+03 -0.39376643216E+03 -0.23916201517E+03  0.53882621199E+03  0.94450087098E+02 0.  0.
         13    1    3    3    0    0  0.16440575660E+03 -0.16241083216E+03 -0.10571790095E+03  0.25413147344E+03  0.00000000000E+00 0.  1.
        -13    1    3    3    0    0  0.98581686421E+02 -0.23135559999E+03 -0.13344411421E+03  0.28469473856E+03  0.00000000000E+00 0. -1.
         22    1    1    2    0    0 -0.26298744303E+03  0.39376643216E+03  0.26056091178E+02  0.47422918317E+03  0.00000000000E+00 0.  1.
<mgrwt>
<rscale>  0 0.99038735E+03</rscale>
<asrwt>0</asrwt>
<pdfrwt beam="1">  1        2 0.94320101E-01 0.99038735E+03</pdfrwt>
<pdfrwt beam="2">  1       -2 0.61534575E-01 0.99038735E+03</pdfrwt>
<totfact> 0.11854069E+02</totfact>
</mgrwt>
</event>
<event>
 6    1  0.1568961E-005  0.1542821E+04  0.7818608E-02  0.8856466E-01
          2   -1    0    0  501    0  0.00000000000E+00  0.00000000000E+00  0.82034714794E+03  0.82034714794E+03  0.00000000000E+00 0. -1.
         -2   -1    0    0    0  501 -0.00000000000E+00 -0.00000000000E+00 -0.72539342292E+03  0.72539342292E+03  0.00000000000E+00 0.  1.
         23    2    1    2    0    0 -0.53891249124E+03 -0.13945734969E+02  0.59664952564E+03  0.80931689314E+03  0.91553374202E+02 0.  0.
         11    1    3    3    0    0 -0.14403878554E+03 -0.44497934275E+02  0.16342898689E+03  0.22234268967E+03  0.00000000000E+00 0.  1.
        -11    1    3    3    0    0 -0.39487370570E+03  0.30552199306E+02  0.43322053875E+03  0.58697420346E+03  0.00000000000E+00 0. -1.
         22    1    1    2    0    0  0.53891249124E+03  0.13945734969E+02 -0.50169580062E+03  0.73642367772E+03  0.00000000000E+00 0.  1.
<mgrwt>
<rscale>  0 0.15428213E+04</rscale>
<asrwt>0</asrwt>
<pdfrwt beam="1">  1        2 0.12620725E+00 0.15428213E+04</pdfrwt>
<pdfrwt beam="2">  1       -2 0.11159899E+00 0.15428213E+04</pdfrwt>
<totfact> 0.20351228E+01</totfact>
</mgrwt>
</event>
<event>
 6    1  0.1568961E-005  0.8650232E+03  0.7818608E-02  0.9470392E-01
          2   -1    0    0  501    0  0.00000000000E+00  0.00000000000E+00  0.17628602206E+04  0.17628602206E+04  0.00000000000E+00 0. -1.
         -2   -1    0    0    0  501 -0.00000000000E+00 -0.00000000000E+00 -0.10611522244E+03  0.10611522244E+03  0.00000000000E+00 0.  1.
         23    2    1    2    0    0  0.21780560833E+03 -0.28470490557E+03  0.13417232532E+04  0.13917596993E+04  0.90981350743E+02 0.  0.
         13    1    3    3    0    0  0.64452441677E+02 -0.15799462793E+03  0.59330382298E+03  0.61735390665E+03  0.00000000000E+00 0. -1.
        -13    1    3    3    0    0  0.15335316666E+03 -0.12671027764E+03  0.74841943018E+03  0.77440579263E+03  0.00000000000E+00 0.  1.
         22    1    1    2    0    0 -0.21780560833E+03  0.28470490557E+03  0.31502174504E+03  0.47721574380E+03  0.00000000000E+00 0.  1.
<mgrwt>
<rscale>  0 0.86502325E+03</rscale>
<asrwt>0</asrwt>
<pdfrwt beam="1">  1        2 0.27120924E+00 0.86502325E+03</pdfrwt>
<pdfrwt beam="2">  1       -2 0.16325420E-01 0.86502325E+03</pdfrwt>
<totfact> 0.27722693E+02</totfact>
</mgrwt>
</event>
<event>
 6    1  0.1568961E-005  0.2655113E+04  0.7818608E-02  0.8349718E-01
          1   -1    0    0  501    0  0.00000000000E+00  0.00000000000E+00  0.16908744083E+04  0.16908744083E+04  0.00000000000E+00 0. -1.
         -1   -1    0    0    0  501 -0.00000000000E+00 -0.00000000000E+00 -0.10423048317E+04  0.10423048317E+04  0.00000000000E+00 0.  1.
         23    2    1    2    0    0  0.18339801984E+03 -0.10243325601E+04  0.11709835113E+04  0.15687874045E+04  0.83663071664E+02 0.  0.
         11    1    3    3    0    0  0.15241635338E+03 -0.62060397714E+03  0.72114879551E+03  0.96355364484E+03  0.00000000000E+00 0.  1.
        -11    1    3    3    0    0  0.30981666454E+02 -0.40372858296E+03  0.44983471578E+03  0.60523375969E+03  0.00000000000E+00 0. -1.
         22    1    1    2    0    0 -0.18339801984E+03  0.10243325601E+04 -0.52241393462E+03  0.11643918354E+04  0.00000000000E+00 0.  1.
<mgrwt>
<rscale>  0 0.26551132E+04</rscale>
<asrwt>0</asrwt>
<pdfrwt beam="1">  1        1 0.26013452E+00 0.26551132E+04</pdfrwt>
<pdfrwt beam="2">  1       -1 0.16035459E+00 0.26551132E+04</pdfrwt>
<totfact> 0.12308832E+00</totfact>
</mgrwt>
</event>
<event>
 6    1  0.1568961E-005  0.2319891E+04  0.7818608E-02  0.8470119E-01
          2   -1    0    0  501    0  0.00000000000E+00  0.00000000000E+00  0.14518400779E+04  0.14518400779E+04  0.00000000000E+00 0. -1.
         -2   -1    0    0    0  501 -0.00000000000E+00 -0.00000000000E+00 -0.92673665864E+03  0.92673665864E+03  0.00000000000E+00 0.  1.
         23    2    1    2    0    0 -0.32564703365E+03  0.11113104472E+04  0.27949679598E+03  0.11947779724E+04  0.91208792437E+02 0.  0.
         13    1    3    3    0    0 -0.93829934778E+02  0.45419771199E+03  0.13642525287E+03  0.48343713951E+03  0.00000000000E+00 0.  1.
        -13    1    3    3    0    0 -0.23181709888E+03  0.65711273521E+03  0.14307154310E+03  0.71134083290E+03  0.00000000000E+00 0. -1.
         22    1    1    2    0    0  0.32564703365E+03 -0.11113104472E+04  0.24560662331E+03  0.11837987641E+04  0.00000000000E+00 0. -1.
<mgrwt>
<rscale>  0 0.23198909E+04</rscale>
<asrwt>0</asrwt>
<pdfrwt beam="1">  1        2 0.22336001E+00 0.23198909E+04</pdfrwt>
<pdfrwt beam="2">  1       -2 0.14257487E+00 0.23198909E+04</pdfrwt>
<totfact> 0.41911720E+00</totfact>
</mgrwt>
</event>
<event>
 6    1  0.1746051E-005  0.2265983E+04  0.7818608E-02  0.8491456E-01
         -1   -1    0    0    0  501 -0.00000000000E+00  0.00000000000E+00  0.66391953794E+03  0.66391953794E+03  0.00000000000E+00 0.  1.
          1   -1    0    0  501    0  0.00000000000E+00 -0.00000000000E+00 -0.19334719991E+04  0.19334719991E+04  0.00000000000E+00 0. -1.
         23    2    1    2    0    0 -0.48665624376E+03  0.25533114849E+03 -0.17690837136E+04  0.18547208380E+04  0.91125771883E+02 0.  0.
         13    1    3    3    0    0 -0.27132670972E+03  0.10036560028E+03 -0.83505671665E+03  0.88374835623E+03  0.00000000000E+00 0.  1.
        -13    1    3    3    0    0 -0.21532953405E+03  0.15496554822E+03 -0.93402699694E+03  0.97097248179E+03  0.00000000000E+00 0. -1.
         22    1    1    2    0    0  0.48665624376E+03 -0.25533114849E+03  0.49953125245E+03  0.74267069901E+03  0.00000000000E+00 0.  1.
<mgrwt>
<rscale>  0 0.22659831E+04</rscale>
<asrwt>0</asrwt>
<pdfrwt beam="1">  1        1 0.29745723E+00 0.22659831E+04</pdfrwt>
<pdfrwt beam="2">  1       -1 0.10214147E+00 0.22659831E+04</pdfrwt>
<totfact> 0.27204225E+00</totfact>
</mgrwt>
</event>
<event>
 6    1  0.1568961E-005  0.2463011E+04  0.7818608E-02  0.8416283E-01
          2   -1    0    0  501    0  0.00000000000E+00  0.00000000000E+00  0.21528753713E+04  0.21528753713E+04  0.00000000000E+00 0.  1.
         -2   -1    0    0    0  501 -0.00000000000E+00 -0.00000000000E+00 -0.70445573463E+03  0.70445573463E+03  0.00000000000E+00 0. -1.
         23    2    1    2    0    0  0.68592440929E+03 -0.31619513598E+03 -0.40086528746E+03  0.85975097240E+03  0.89482381306E+02 0.  0.
         11    1    3    3    0    0  0.22809337993E+03 -0.14593832883E+03 -0.16750988573E+03  0.31840877439E+03  0.00000000000E+00 0. -1.
        -11    1    3    3    0    0  0.45783102936E+03 -0.17025680715E+03 -0.23335540173E+03  0.54134219801E+03  0.00000000000E+00 0.  1.
         22    1    1    2    0    0 -0.68592440929E+03  0.31619513598E+03  0.18492849241E+04  0.19975801335E+04  0.00000000000E+00 0.  1.
<mgrwt>
<rscale>  0 0.24630107E+04</rscale>
<asrwt>0</asrwt>
<pdfrwt beam="1">  1        2 0.33121159E+00 0.24630107E+04</pdfrwt>
<pdfrwt beam="2">  1       -2 0.10837781E+00 0.24630107E+04</pdfrwt>
<totfact> 0.33437438E+00</totfact>
</mgrwt>
</event>
<event>
 6    1  0.1568961E-005  0.9249910E+03  0.7818608E-02  0.9394870E-01
          2   -1    0    0  501    0  0.00000000000E+00  0.00000000000E+00  0.46906708647E+03  0.46906708647E+03  0.00000000000E+00 0. -1.
         -2   -1    0    0    0  501 -0.00000000000E+00 -0.00000000000E+00 -0.45601600559E+03  0.45601600559E+03  0.00000000000E+00 0.  1.
         23    2    1    2    0    0 -0.21552043569E+03  0.17212108132E+03 -0.35918282097E+03  0.46179829572E+03  0.90391604761E+02 0.  0.
         11    1    3    3    0    0 -0.74461510377E+02  0.10901959872E+03 -0.12920773866E+03  0.18472798695E+03  0.00000000000E+00 0. -1.
        -11    1    3    3    0    0 -0.14105892531E+03  0.63101482601E+02 -0.22997508231E+03  0.27707030877E+03  0.00000000000E+00 0.  1.
         22    1    1    2    0    0  0.21552043569E+03 -0.17212108132E+03  0.37223390186E+03  0.46328479635E+03  0.00000000000E+00 0. -1.
<mgrwt>
<rscale>  0 0.92499103E+03</rscale>
<asrwt>0</asrwt>
<pdfrwt beam="1">  1        2 0.72164167E-01 0.92499103E+03</pdfrwt>
<pdfrwt beam="2">  1       -2 0.70156308E-01 0.92499103E+03</pdfrwt>
<totfact> 0.12302186E+02</totfact>
</mgrwt>
</event>
<event>
 6    1  0.1568961E-005  0.2804822E+04  0.7818608E-02  0.8301773E-01
          2   -1    0    0  501    0  0.00000000000E+00  0.00000000000E+00  0.14923511377E+04  0.14923511377E+04  0.00000000000E+00 0. -1.
         -2   -1    0    0    0  501 -0.00000000000E+00 -0.00000000000E+00 -0.13178909107E+04  0.13178909107E+04  0.00000000000E+00 0.  1.
         23    2    1    2    0    0  0.11867033042E+04  0.63263335297E+03 -0.30598059341E+03  0.13821968553E+04  0.91402033676E+02 0.  0.
         11    1    3    3    0    0  0.21478852778E+03  0.76288796764E+02 -0.45894838374E+02  0.23250898557E+03  0.00000000000E+00 0.  1.
        -11    1    3    3    0    0  0.97191477644E+03  0.55634455620E+03 -0.26008575504E+03  0.11496878698E+04  0.00000000000E+00 0. -1.
         22    1    1    2    0    0 -0.11867033042E+04 -0.63263335297E+03  0.48044082040E+03  0.14280451931E+04  0.00000000000E+00 0. -1.
<mgrwt>
<rscale>  0 0.28048216E+04</rscale>
<asrwt>0</asrwt>
<pdfrwt beam="1">  1        2 0.22959248E+00 0.28048216E+04</pdfrwt>
<pdfrwt beam="2">  1       -2 0.20275245E+00 0.28048216E+04</pdfrwt>
<totfact> 0.14230000E+00</totfact>
</mgrwt>
</event>
<event>
 6    1  0.1568961E-005  0.4944605E+04  0.7818608E-02  0.7837110E-01
          2   -1    0    0  501    0  0.00000000000E+00  0.00000000000E+00  0.38788108536E+04  0.38788108536E+04  0.00000000000E+00 0. -1.
         -2   -1    0    0    0  501 -0.00000000000E+00 -0.00000000000E+00 -0.15758126660E+04  0.15758126660E+04  0.00000000000E+00 0.  1.
         23    2    1    2    0    0 -0.21344828328E+04  0.11494575357E+04  0.16815249485E+04  0.29519252604E+04  0.95220800587E+02 0.  0.
         11    1    3    3    0    0 -0.12296600627E+04  0.62925496658E+03  0.10029283727E+04  0.17070123033E+04  0.00000000000E+00 0. -1.
        -11    1    3    3    0    0 -0.90482277007E+03  0.52020256914E+03  0.67859657578E+03  0.12449129571E+04  0.00000000000E+00 0.  1.
         22    1    1    2    0    0  0.21344828328E+04 -0.11494575357E+04  0.62147323900E+03  0.25026982592E+04  0.00000000000E+00 0. -1.
<mgrwt>
<rscale>  0 0.49446048E+04</rscale>
<asrwt>0</asrwt>
<pdfrwt beam="1">  1        2 0.59674013E+00 0.49446048E+04</pdfrwt>
<pdfrwt beam="2">  1       -2 0.24243272E+00 0.49446048E+04</pdfrwt>
<totfact> 0.22258478E-02</totfact>
</mgrwt>
</event>
<event>
 6    1  0.1568961E-005  0.2105546E+04  0.7818608E-02  0.8558804E-01
         -2   -1    0    0    0  501 -0.00000000000E+00  0.00000000000E+00  0.10350302311E+04  0.10350302311E+04  0.00000000000E+00 0.  1.
          2   -1    0    0  501    0  0.00000000000E+00 -0.00000000000E+00 -0.10708194728E+04  0.10708194728E+04  0.00000000000E+00 0. -1.
         23    2    1    2    0    0  0.13403465677E+03 -0.67617366745E+03  0.77527436443E+03  0.10414248401E+04  0.91319437066E+02 0.  0.
         11    1    3    3    0    0  0.41987356274E+02 -0.22684412440E+03  0.19719405520E+03  0.30349084050E+03  0.00000000000E+00 0.  1.
        -11    1    3    3    0    0  0.92047300497E+02 -0.44932954305E+03  0.57808030923E+03  0.73793399956E+03  0.00000000000E+00 0. -1.
         22    1    1    2    0    0 -0.13403465677E+03  0.67617366745E+03 -0.81106360611E+03  0.10644248639E+04  0.00000000000E+00 0. -1.
<mgrwt>
<rscale>  0 0.21055456E+04</rscale>
<asrwt>0</asrwt>
<pdfrwt beam="1">  1        2 0.16474146E+00 0.21055456E+04</pdfrwt>
<pdfrwt beam="2">  1       -2 0.15923542E+00 0.21055456E+04</pdfrwt>
<totfact> 0.53393140E+00</totfact>
</mgrwt>
</event>
<event>
 6    1  0.1568961E-005  0.2553952E+04  0.7818608E-02  0.8384013E-01
         -2   -1    0    0    0  501 -0.00000000000E+00  0.00000000000E+00  0.75407525897E+03  0.75407525897E+03  0.00000000000E+00 0.  1.
          2   -1    0    0  501    0  0.00000000000E+00 -0.00000000000E+00 -0.21624740484E+04  0.21624740484E+04  0.00000000000E+00 0. -1.
         23    2    1    2    0    0  0.30755252905E+03  0.11240642962E+04 -0.12963818029E+04  0.17457987338E+04  0.95385218250E+02 0.  0.
         11    1    3    3    0    0  0.29463568983E+02  0.23147711975E+03 -0.23034833326E+03  0.32788734879E+03  0.00000000000E+00 0. -1.
        -11    1    3    3    0    0  0.27808896007E+03  0.89258717649E+03 -0.10660334696E+04  0.14179113850E+04  0.00000000000E+00 0.  1.
         22    1    1    2    0    0 -0.30755252905E+03 -0.11240642962E+04 -0.11201698651E+03  0.11707505736E+04  0.00000000000E+00 0.  1.
<mgrwt>
<rscale>  0 0.25539524E+04</rscale>
<asrwt>0</asrwt>
<pdfrwt beam="1">  1        2 0.33268831E+00 0.25539524E+04</pdfrwt>
<pdfrwt beam="2">  1       -2 0.11601158E+00 0.25539524E+04</pdfrwt>
<totfact> 0.27777850E+00</totfact>
</mgrwt>
</event>
<event>
 6    1  0.1568961E-005  0.2803947E+04  0.7818608E-02  0.8302044E-01
          2   -1    0    0  501    0  0.00000000000E+00  0.00000000000E+00  0.21943954078E+04  0.21943954078E+04  0.00000000000E+00 0. -1.
         -2   -1    0    0    0  501 -0.00000000000E+00 -0.00000000000E+00 -0.89570446088E+03  0.89570446088E+03  0.00000000000E+00 0.  1.
         23    2    1    2    0    0  0.65614161914E+03  0.11665035200E+04  0.19577623778E+03  0.13558354303E+04  0.93322518234E+02 0.  0.
         11    1    3    3    0    0  0.33161815741E+03  0.66890319293E+03  0.13449275893E+03  0.75861082647E+03  0.00000000000E+00 0.  1.
        -11    1    3    3    0    0  0.32452346173E+03  0.49760032705E+03  0.61283478856E+02  0.59722460387E+03  0.00000000000E+00 0. -1.
         22    1    1    2    0    0 -0.65614161914E+03 -0.11665035200E+04  0.11029147092E+04  0.17342644384E+04  0.00000000000E+00 0. -1.
<mgrwt>
<rscale>  0 0.28039470E+04</rscale>
<asrwt>0</asrwt>
<pdfrwt beam="1">  1        2 0.33759929E+00 0.28039470E+04</pdfrwt>
<pdfrwt beam="2">  1       -2 0.13780069E+00 0.28039470E+04</pdfrwt>
<totfact> 0.16931608E+00</totfact>
</mgrwt>
</event>
<event>
 6    1  0.1568961E-005  0.2994262E+04  0.7818608E-02  0.8245371E-01
         -1   -1    0    0    0  501 -0.00000000000E+00  0.00000000000E+00  0.10502871115E+04  0.10502871115E+04  0.00000000000E+00 0.  1.
          1   -1    0    0  501    0  0.00000000000E+00 -0.00000000000E+00 -0.21340846064E+04  0.21340846064E+04  0.00000000000E+00 0. -1.
         23    2    1    2    0    0  0.89522614067E+03  0.66316046884E+03  0.51905065621E+03  0.12323640731E+04  0.89977633169E+02 0.  0.
         11    1    3    3    0    0  0.24222316938E+03  0.13840017236E+03  0.10707791604E+03  0.29881825847E+03  0.00000000000E+00 0.  1.
        -11    1    3    3    0    0  0.65300297129E+03  0.52476029649E+03  0.41197274017E+03  0.93354581458E+03  0.00000000000E+00 0. -1.
         22    1    1    2    0    0 -0.89522614067E+03 -0.66316046884E+03 -0.16028481511E+04  0.19520076449E+04  0.00000000000E+00 0. -1.
<mgrwt>
<rscale>  0 0.29942622E+04</rscale>
<asrwt>0</asrwt>
<pdfrwt beam="1">  1        1 0.32832071E+00 0.29942622E+04</pdfrwt>
<pdfrwt beam="2">  1       -1 0.16158263E+00 0.29942622E+04</pdfrwt>
<totfact> 0.58476128E-01</totfact>
</mgrwt>
</event>
<event>
 6    1  0.1568961E-005  0.3991952E+04  0.7818608E-02  0.8006172E-01
         -1   -1    0    0    0  501 -0.00000000000E+00  0.00000000000E+00  0.14363796762E+04  0.14363796762E+04  0.00000000000E+00 0.  1.
          1   -1    0    0  501    0  0.00000000000E+00 -0.00000000000E+00 -0.27735844260E+04  0.27735844260E+04  0.00000000000E+00 0. -1.
         23    2    1    2    0    0  0.16027651601E+04 -0.38918826099E+03 -0.18525170741E+04  0.24819969578E+04  0.90364414561E+02 0.  0.
         13    1    3    3    0    0  0.67889796426E+03 -0.16796962577E+03 -0.71898541598E+03  0.10030235638E+04  0.00000000000E+00 0. -1.
        -13    1    3    3    0    0  0.92386719585E+03 -0.22121863523E+03 -0.11335316581E+04  0.14789733940E+04  0.00000000000E+00 0.  1.
         22    1    1    2    0    0 -0.16027651601E+04  0.38918826099E+03  0.51531232433E+03  0.17279671445E+04  0.00000000000E+00 0.  1.
<mgrwt>
<rscale>  0 0.39919521E+04</rscale>
<asrwt>0</asrwt>
<pdfrwt beam="1">  1        1 0.42670530E+00 0.39919521E+04</pdfrwt>
<pdfrwt beam="2">  1       -1 0.22098149E+00 0.39919521E+04</pdfrwt>
<totfact> 0.73866278E-02</totfact>
</mgrwt>
</event>
<event>
 6    1  0.1568961E-005  0.3336668E+04  0.7818608E-02  0.8153627E-01
         -1   -1    0    0    0  501 -0.00000000000E+00  0.00000000000E+00  0.14672268538E+04  0.14672268538E+04  0.00000000000E+00 0.  1.
          1   -1    0    0  501    0  0.00000000000E+00 -0.00000000000E+00 -0.18970058059E+04  0.18970058059E+04  0.00000000000E+00 0. -1.
         23    2    1    2    0    0 -0.16398056902E+04 -0.10802322415E+03 -0.49763191636E+03  0.17194725728E+04  0.91195864927E+02 0.  0.
         11    1    3    3    0    0 -0.13177920616E+04 -0.62737422844E+02 -0.37049883014E+03  0.13703215991E+04  0.00000000000E+00 0.  1.
        -11    1    3    3    0    0 -0.32201362864E+03 -0.45285801304E+02 -0.12713308622E+03  0.34915097371E+03  0.00000000000E+00 0. -1.
         22    1    1    2    0    0  0.16398056902E+04  0.10802322415E+03  0.67852964236E+02  0.16447600869E+04  0.00000000000E+00 0.  1.
<mgrwt>
<rscale>  0 0.33366677E+04</rscale>
<asrwt>0</asrwt>
<pdfrwt beam="1">  1        1 0.29184705E+00 0.33366677E+04</pdfrwt>
<pdfrwt beam="2">  1       -1 0.22572721E+00 0.33366677E+04</pdfrwt>
<totfact> 0.29176245E-01</totfact>
</mgrwt>
</event>
<event>
 6    1  0.1568961E-005  0.1104575E+04  0.7818608E-02  0.9200744E-01
          2   -1    0    0  501    0  0.00000000000E+00  0.00000000000E+00  0.25662716781E+04  0.25662716781E+04  0.00000000000E+00 0. -1.
         -2   -1    0    0    0  501 -0.00000000000E+00 -0.00000000000E+00 -0.11885784475E+03  0.11885784475E+03  0.00000000000E+00 0.  1.
         23    2    1    2    0    0 -0.46035326161E+03  0.28426656055E+03  0.10195683360E+04  0.11582125745E+04  0.95938381269E+02 0.  0.
         13    1    3    3    0    0 -0.14874448222E+03  0.13968030901E+03  0.42764065239E+03  0.47382701199E+03  0.00000000000E+00 0. -1.
        -13    1    3    3    0    0 -0.31160877938E+03  0.14458625154E+03  0.59192768358E+03  0.68438556246E+03  0.00000000000E+00 0.  1.
         22    1    1    2    0    0  0.46035326161E+03 -0.28426656055E+03  0.14278454974E+04  0.15269169484E+04  0.00000000000E+00 0. -1.
<mgrwt>
<rscale>  0 0.11045751E+04</rscale>
<asrwt>0</asrwt>
<pdfrwt beam="1">  1        2 0.39481098E+00 0.11045751E+04</pdfrwt>
<pdfrwt beam="2">  1       -2 0.18285824E-01 0.11045751E+04</pdfrwt>
<totfact> 0.79813453E+01</totfact>
</mgrwt>
</event>
<event>
 6    1  0.1568961E-005  0.3152615E+04  0.7818608E-02  0.8201445E-01
         -2   -1    0    0    0  501 -0.00000000000E+00  0.00000000000E+00  0.72714402061E+03  0.72714402061E+03  0.00000000000E+00 0.  1.
          2   -1    0    0  501    0  0.00000000000E+00 -0.00000000000E+00 -0.34171304768E+04  0.34171304768E+04  0.00000000000E+00 0. -1.
         23    2    1    2    0    0  0.66572663918E+03 -0.13985400235E+04 -0.97042301878E+03  0.18299701590E+04  0.89240080889E+02 0.  0.
         13    1    3    3    0    0  0.20547939023E+03 -0.53168497709E+03 -0.35836578378E+03  0.67330285136E+03  0.00000000000E+00 0.  1.
        -13    1    3    3    0    0  0.46024724896E+03 -0.86685504641E+03 -0.61205723501E+03  0.11566673077E+04  0.00000000000E+00 0. -1.
         22    1    1    2    0    0 -0.66572663918E+03  0.13985400235E+04 -0.17195634375E+04  0.23143043384E+04  0.00000000000E+00 0. -1.
<mgrwt>
<rscale>  0 0.31526154E+04</rscale>
<asrwt>0</asrwt>
<pdfrwt beam="1">  1        2 0.52571239E+00 0.31526154E+04</pdfrwt>
<pdfrwt beam="2">  1       -2 0.11186831E+00 0.31526154E+04</pdfrwt>
<totfact> 0.49421788E-01</totfact>
</mgrwt>
</event>
<event>
 6    1  0.1568961E-005  0.4094817E+03  0.7818608E-02  0.1040545E+00
         -2   -1    0    0    0  501 -0.00000000000E+00  0.00000000000E+00  0.23210290769E+03  0.23210290769E+03  0.00000000000E+00 0.  1.
          2   -1    0    0  501    0  0.00000000000E+00 -0.00000000000E+00 -0.18060443628E+03  0.18060443628E+03  0.00000000000E+00 0. -1.
         23    2    1    2    0    0 -0.10081640837E+03 -0.10192090730E+03  0.15966547114E+03  0.23311915011E+03  0.91102447448E+02 0.  0.
         11    1    3    3    0    0 -0.10126477504E+03 -0.65231365119E+02  0.77771475765E+02  0.14338091959E+03  0.00000000000E+00 0. -1.
        -11    1    3    3    0    0  0.44836666891E+00 -0.36689542176E+02  0.81893995379E+02  0.89738230520E+02  0.00000000000E+00 0.  1.
         22    1    1    2    0    0  0.10081640837E+03  0.10192090730E+03 -0.10816699974E+03  0.17958819386E+03  0.00000000000E+00 0. -1.
<mgrwt>
<rscale>  0 0.40948170E+03</rscale>
<asrwt>0</asrwt>
<pdfrwt beam="1">  1        2 0.27785298E-01 0.40948170E+03</pdfrwt>
<pdfrwt beam="2">  1       -2 0.35708140E-01 0.40948170E+03</pdfrwt>
<totfact> 0.14232880E+03</totfact>
</mgrwt>
</event>
<event>
 6    1  0.1568961E-005  0.9904601E+03  0.7818608E-02  0.9319070E-01
         -2   -1    0    0    0  501 -0.00000000000E+00  0.00000000000E+00  0.29894238241E+03  0.29894238241E+03  0.00000000000E+00 0.  1.
          2   -1    0    0  501    0  0.00000000000E+00 -0.00000000000E+00 -0.82040159747E+03  0.82040159747E+03  0.00000000000E+00 0. -1.
         23    2    1    2    0    0  0.18482785273E+03 -0.19461019956E+03 -0.72781528830E+03  0.78079222035E+03  0.88808403606E+02 0.  0.
         11    1    3    3    0    0  0.94855129133E+01 -0.45255692302E+02 -0.70691915365E+02  0.84471294171E+02  0.00000000000E+00 0. -1.
        -11    1    3    3    0    0  0.17534233982E+03 -0.14935450726E+03 -0.65712337294E+03  0.69632092618E+03  0.00000000000E+00 0.  1.
         22    1    1    2    0    0 -0.18482785273E+03  0.19461019956E+03  0.20635607325E+03  0.33855175953E+03  0.00000000000E+00 0.  1.
<mgrwt>
<rscale>  0 0.99046011E+03</rscale>
<asrwt>0</asrwt>
<pdfrwt beam="1">  1        2 0.12621563E+00 0.99046011E+03</pdfrwt>
<pdfrwt beam="2">  1       -2 0.45991136E-01 0.99046011E+03</pdfrwt>
<totfact> 0.14908090E+02</totfact>
</mgrwt>
</event>
<event>
 6    1  0.1568961E-005  0.2312322E+04  0.7818608E-02  0.8473079E-01
          1   -1    0    0  501    0  0.00000000000E+00  0.00000000000E+00  0.74915105645E+03  0.74915105645E+03  0.00000000000E+00 0. -1.
         -1   -1    0    0    0  501 -0.00000000000E+00 -0.00000000000E+00 -0.17842974643E+04  0.17842974643E+04  0.00000000000E+00 0.  1.
         23    2    1    2    0    0  0.65012766363E+03 -0.65003468503E+03  0.24639431047E+03  0.95624920442E+03  0.92148325784E+02 0.  0.
         11    1    3    3    0    0  0.64019089043E+03 -0.62611097665E+03  0.25090753460E+03  0.92995372046E+03  0.00000000000E+00 0.  1.
        -11    1    3    3    0    0  0.99367732060E+01 -0.23923708386E+02 -0.45132241342E+01  0.26295483961E+02  0.00000000000E+00 0. -1.
         22    1    1    2    0    0 -0.65012766363E+03  0.65003468503E+03 -0.12815407184E+04  0.15771993164E+04  0.00000000000E+00 0.  1.
<mgrwt>
<rscale>  0 0.23123221E+04</rscale>
<asrwt>0</asrwt>
<pdfrwt beam="1">  1        1 0.11525401E+00 0.23123221E+04</pdfrwt>
<pdfrwt beam="2">  1       -1 0.27450730E+00 0.23123221E+04</pdfrwt>
<totfact> 0.10702508E+00</totfact>
</mgrwt>
</event>
<event>
 6    1  0.1568961E-005  0.1310728E+04  0.7818608E-02  0.9021101E-01
          1   -1    0    0  501    0  0.00000000000E+00  0.00000000000E+00  0.17679066303E+04  0.17679066303E+04  0.00000000000E+00 0. -1.
         -1   -1    0    0    0  501 -0.00000000000E+00 -0.00000000000E+00 -0.24294370848E+03  0.24294370848E+03  0.00000000000E+00 0.  1.
         23    2    1    2    0    0 -0.61794517489E+03 -0.63744131523E+02  0.46117919695E+03  0.77895936684E+03  0.90398506710E+02 0.  0.
         11    1    3    3    0    0 -0.35320545282E+03 -0.48988935726E+02  0.21057457686E+03  0.41412034500E+03  0.00000000000E+00 0.  1.
        -11    1    3    3    0    0 -0.26473972207E+03 -0.14755195797E+02  0.25060462010E+03  0.36483902184E+03  0.00000000000E+00 0. -1.
         22    1    1    2    0    0  0.61794517489E+03  0.63744131523E+02  0.10637837249E+04  0.12318909720E+04  0.00000000000E+00 0. -1.
<mgrwt>
<rscale>  0 0.13107277E+04</rscale>
<asrwt>0</asrwt>
<pdfrwt beam="1">  1        1 0.27198563E+00 0.13107277E+04</pdfrwt>
<pdfrwt beam="2">  1       -1 0.37375956E-01 0.13107277E+04</pdfrwt>
<totfact> 0.29000792E+01</totfact>
</mgrwt>
</event>
<event>
 6    1  0.1568961E-005  0.7068389E+03  0.7818608E-02  0.9705608E-01
         -1   -1    0    0    0  501 -0.00000000000E+00  0.00000000000E+00  0.16749916814E+03  0.16749916814E+03  0.00000000000E+00 0.  1.
          1   -1    0    0  501    0  0.00000000000E+00 -0.00000000000E+00 -0.74570706726E+03  0.74570706726E+03  0.00000000000E+00 0. -1.
         23    2    1    2    0    0 -0.21984135430E+03 -0.79783519502E+02 -0.62595144881E+03  0.67451170764E+03  0.91952142125E+02 0.  0.
         11    1    3    3    0    0 -0.51551604038E+02 -0.45578932929E+02 -0.27933536178E+03  0.28768602911E+03  0.00000000000E+00 0.  1.
        -11    1    3    3    0    0 -0.16828975026E+03 -0.34204586573E+02 -0.34661608702E+03  0.38682567853E+03  0.00000000000E+00 0. -1.
         22    1    1    2    0    0  0.21984135430E+03  0.79783519502E+02  0.47743549688E+02  0.23869452775E+03  0.00000000000E+00 0.  1.
<mgrwt>
<rscale>  0 0.70683892E+03</rscale>
<asrwt>0</asrwt>
<pdfrwt beam="1">  1        1 0.11472417E+00 0.70683892E+03</pdfrwt>
<pdfrwt beam="2">  1       -1 0.25769102E-01 0.70683892E+03</pdfrwt>
<totfact> 0.33219765E+02</totfact>
</mgrwt>
</event>
<event>
 6    1  0.1568961E-005  0.3581639E+04  0.7818608E-02  0.8094710E-01
          2   -1    0    0  501    0  0.00000000000E+00  0.00000000000E+00  0.13871446808E+04  0.13871446808E+04  0.00000000000E+00 0.  1.
         -2   -1    0    0    0  501 -0.00000000000E+00 -0.00000000000E+00 -0.23119686728E+04  0.23119686728E+04  0.00000000000E+00 0. -1.
         23    2    1    2    0    0  0.15385365594E+04  0.68766445058E+02  0.47879256310E+03  0.16153756057E+04  0.91501148884E+02 0.  0.
         13    1    3    3    0    0  0.71839762037E+03  0.67078606833E+02  0.19332531915E+03  0.74697346638E+03  0.00000000000E+00 0.  1.
        -13    1    3    3    0    0  0.82013893906E+03  0.16878382252E+01  0.28546724394E+03  0.86840213929E+03  0.00000000000E+00 0. -1.
         22    1    1    2    0    0 -0.15385365594E+04 -0.68766445058E+02 -0.14036165551E+04  0.20837377480E+04  0.00000000000E+00 0. -1.
<mgrwt>
<rscale>  0 0.35816393E+04</rscale>
<asrwt>0</asrwt>
<pdfrwt beam="1">  1        2 0.21340687E+00 0.35816393E+04</pdfrwt>
<pdfrwt beam="2">  1       -2 0.35568749E+00 0.35816393E+04</pdfrwt>
<totfact> 0.17198811E-01</totfact>
</mgrwt>
</event>
<event>
 6    1  0.1568961E-005  0.1025905E+04  0.7818608E-02  0.9280581E-01
          1   -1    0    0  501    0  0.00000000000E+00  0.00000000000E+00  0.55135147491E+03  0.55135147491E+03  0.00000000000E+00 0. -1.
         -1   -1    0    0    0  501 -0.00000000000E+00 -0.00000000000E+00 -0.47722743971E+03  0.47722743971E+03  0.00000000000E+00 0.  1.
         23    2    1    2    0    0  0.24385990074E+03  0.16969886600E+03 -0.37680370991E+03  0.48857781497E+03  0.91988527370E+02 0.  0.
         11    1    3    3    0    0  0.69328086462E+02  0.10161953343E+03 -0.13402091774E+03  0.18191899169E+03  0.00000000000E+00 0. -1.
        -11    1    3    3    0    0  0.17453181428E+03  0.68079332566E+02 -0.24278279218E+03  0.30665882328E+03  0.00000000000E+00 0.  1.
         22    1    1    2    0    0 -0.24385990074E+03 -0.16969886600E+03  0.45092774512E+03  0.54000109965E+03  0.00000000000E+00 0. -1.
<mgrwt>
<rscale>  0 0.10259046E+04</rscale>
<asrwt>0</asrwt>
<pdfrwt beam="1">  1        1 0.84823304E-01 0.10259046E+04</pdfrwt>
<pdfrwt beam="2">  1       -1 0.73419606E-01 0.10259046E+04</pdfrwt>
<totfact> 0.72374264E+01</totfact>
</mgrwt>
</event>
<event>
 6    1  0.1568961E-005  0.8817429E+03  0.7818608E-02  0.9448696E-01
          2   -1    0    0  501    0  0.00000000000E+00  0.00000000000E+00  0.31551660214E+04  0.31551660214E+04  0.00000000000E+00 0. -1.
         -2   -1    0    0    0  501 -0.00000000000E+00 -0.00000000000E+00 -0.61602975894E+02  0.61602975894E+02  0.00000000000E+00 0.  1.
         23    2    1    2    0    0  0.27811153430E+03 -0.33302524259E+03  0.14003829323E+04  0.14688814913E+04  0.91041972817E+02 0.  0.
         13    1    3    3    0    0  0.96267050129E+02 -0.10058232629E+03  0.32128003197E+03  0.35014997965E+03  0.00000000000E+00 0.  1.
        -13    1    3    3    0    0  0.18184448417E+03 -0.23244291630E+03  0.10791029003E+04  0.11187315117E+04  0.00000000000E+00 0. -1.
         22    1    1    2    0    0 -0.27811153430E+03  0.33302524259E+03  0.16931801132E+04  0.17478875060E+04  0.00000000000E+00 0.  1.
<mgrwt>
<rscale>  0 0.88174286E+03</rscale>
<asrwt>0</asrwt>
<pdfrwt beam="1">  1        2 0.48541003E+00 0.88174286E+03</pdfrwt>
<pdfrwt beam="2">  1       -2 0.94773833E-02 0.88174286E+03</pdfrwt>
<totfact> 0.10849643E+02</totfact>
</mgrwt>
</event>
<event>
 6    1  0.1568961E-005  0.3208447E+04  0.7818608E-02  0.8186590E-01
          2   -1    0    0  501    0  0.00000000000E+00  0.00000000000E+00  0.22425314422E+04  0.22425314422E+04  0.00000000000E+00 0. -1.
         -2   -1    0    0    0  501 -0.00000000000E+00 -0.00000000000E+00 -0.11476016330E+04  0.11476016330E+04  0.00000000000E+00 0.  1.
         23    2    1    2    0    0  0.86872059513E+03  0.12429102207E+04 -0.87521887310E+00  0.15192268913E+04  0.92456973972E+02 0.  0.
         13    1    3    3    0    0  0.51364487231E+03  0.80307050689E+03 -0.22267439526E+02  0.95354555882E+03  0.00000000000E+00 0.  1.
        -13    1    3    3    0    0  0.35507572282E+03  0.43983971385E+03  0.21392220653E+02  0.56568133249E+03  0.00000000000E+00 0. -1.
         22    1    1    2    0    0 -0.86872059513E+03 -0.12429102207E+04  0.10958050281E+04  0.18709061839E+04  0.00000000000E+00 0. -1.
<mgrwt>
<rscale>  0 0.32084468E+04</rscale>
<asrwt>0</asrwt>
<pdfrwt beam="1">  1        2 0.34500484E+00 0.32084468E+04</pdfrwt>
<pdfrwt beam="2">  1       -2 0.17655410E+00 0.32084468E+04</pdfrwt>
<totfact> 0.78785245E-01</totfact>
</mgrwt>
</event>
<event>
 6    1  0.1568961E-005  0.3087550E+04  0.7818608E-02  0.8219163E-01
         -2   -1    0    0    0  501 -0.00000000000E+00  0.00000000000E+00  0.84608345508E+03  0.84608345508E+03  0.00000000000E+00 0.  1.
          2   -1    0    0  501    0  0.00000000000E+00 -0.00000000000E+00 -0.28167924186E+04  0.28167924186E+04  0.00000000000E+00 0. -1.
         23    2    1    2    0    0 -0.10846143144E+04 -0.23406173642E+03  0.28449299430E+03  0.11494899149E+04  0.96008818054E+02 0.  0.
         11    1    3    3    0    0 -0.34798760757E+03 -0.29877254424E+02  0.94700224414E+02  0.36187865073E+03  0.00000000000E+00 0.  1.
        -11    1    3    3    0    0 -0.73662670681E+03 -0.20418448200E+03  0.18979276989E+03  0.78761126413E+03  0.00000000000E+00 0. -1.
         22    1    1    2    0    0  0.10846143144E+04  0.23406173642E+03 -0.22552019578E+04  0.25133859588E+04  0.00000000000E+00 0. -1.
<mgrwt>
<rscale>  0 0.30875501E+04</rscale>
<asrwt>0</asrwt>
<pdfrwt beam="1">  1        2 0.43335267E+00 0.30875501E+04</pdfrwt>
<pdfrwt beam="2">  1       -2 0.13016669E+00 0.30875501E+04</pdfrwt>
<totfact> 0.83063754E-01</totfact>
</mgrwt>
</event>
<event>
 6    1  0.1568961E-005  0.9255561E+03  0.7818608E-02  0.9394187E-01
         -1   -1    0    0    0  501 -0.00000000000E+00  0.00000000000E+00  0.12139535746E+04  0.12139535746E+04  0.00000000000E+00 0.  1.
          1   -1    0    0  501    0  0.00000000000E+00 -0.00000000000E+00 -0.17641821306E+03  0.17641821306E+03  0.00000000000E+00 0. -1.
         23    2    1    2    0    0 -0.36188726417E+03 -0.14059856876E+03  0.88957765573E+03  0.97489395166E+03  0.91320654245E+02 0.  0.
         13    1    3    3    0    0 -0.35345393327E+03 -0.13443746135E+03  0.80185850446E+03  0.88655522960E+03  0.00000000000E+00 0.  1.
        -13    1    3    3    0    0 -0.84333309045E+01 -0.61611074060E+01  0.87719151270E+02  0.88338722054E+02  0.00000000000E+00 0. -1.
         22    1    1    2    0    0  0.36188726417E+03  0.14059856876E+03  0.14795770582E+03  0.41547783601E+03  0.00000000000E+00 0. -1.
<mgrwt>
<rscale>  0 0.92555609E+03</rscale>
<asrwt>0</asrwt>
<pdfrwt beam="1">  1        1 0.27141264E-01 0.92555609E+03</pdfrwt>
<pdfrwt beam="2">  1       -1 0.18676208E+00 0.92555609E+03</pdfrwt>
<totfact> 0.32945623E+01</totfact>
</mgrwt>
</event>
<event>
 6    1  0.1568961E-005  0.4507322E+04  0.7818608E-02  0.7909356E-01
          2   -1    0    0  501    0  0.00000000000E+00  0.00000000000E+00  0.32279056583E+04  0.32279056583E+04  0.00000000000E+00 0. -1.
         -2   -1    0    0    0  501 -0.00000000000E+00 -0.00000000000E+00 -0.15734620955E+04  0.15734620955E+04  0.00000000000E+00 0.  1.
         23    2    1    2    0    0 -0.18235254007E+04  0.10536250878E+04 -0.24181789015E+02  0.21081997709E+04  0.92470548099E+02 0.  0.
         13    1    3    3    0    0 -0.42553296742E+03  0.29173368535E+03 -0.43149748307E+01  0.51595103308E+03  0.00000000000E+00 0.  1.
        -13    1    3    3    0    0 -0.13979924333E+04  0.76189140249E+03 -0.19866814184E+02  0.15922487378E+04  0.00000000000E+00 0. -1.
         22    1    1    2    0    0  0.18235254007E+04 -0.10536250878E+04  0.16786253518E+04  0.26931679830E+04  0.00000000000E+00 0. -1.
<mgrwt>
<rscale>  0 0.45073217E+04</rscale>
<asrwt>0</asrwt>
<pdfrwt beam="1">  1        2 0.49660087E+00 0.45073217E+04</pdfrwt>
<pdfrwt beam="2">  1       -2 0.24207109E+00 0.45073217E+04</pdfrwt>
<totfact> 0.67642954E-02</totfact>
</mgrwt>
</event>
<event>
 6    1  0.1568961E-005  0.2289822E+04  0.7818608E-02  0.8481945E-01
          2   -1    0    0  501    0  0.00000000000E+00  0.00000000000E+00  0.27061357898E+04  0.27061357898E+04  0.00000000000E+00 0. -1.
         -2   -1    0    0    0  501 -0.00000000000E+00 -0.00000000000E+00 -0.48438875462E+03  0.48438875462E+03  0.00000000000E+00 0.  1.
         23    2    1    2    0    0 -0.85328107534E+03  0.29683034841E+03  0.13673477506E+03  0.91819688887E+03  0.90511207923E+02 0.  0.
         11    1    3    3    0    0 -0.19596919380E+03  0.67900999018E+02  0.70329502538E+02  0.21899933678E+03  0.00000000000E+00 0. -1.
        -11    1    3    3    0    0 -0.65731188154E+03  0.22892934939E+03  0.66405272522E+02  0.69919755209E+03  0.00000000000E+00 0.  1.
         22    1    1    2    0    0  0.85328107534E+03 -0.29683034841E+03  0.20850122601E+04  0.22723276556E+04  0.00000000000E+00 0. -1.
<mgrwt>
<rscale>  0 0.22898225E+04</rscale>
<asrwt>0</asrwt>
<pdfrwt beam="1">  1        2 0.41632857E+00 0.22898225E+04</pdfrwt>
<pdfrwt beam="2">  1       -2 0.74521348E-01 0.22898225E+04</pdfrwt>
<totfact> 0.38707065E+00</totfact>
</mgrwt>
</event>
<event>
 6    1  0.1568961E-005  0.5853877E+03  0.7818608E-02  0.9936194E-01
         -2   -1    0    0    0  501 -0.00000000000E+00  0.00000000000E+00  0.18820252970E+03  0.18820252970E+03  0.00000000000E+00 0.  1.
          2   -1    0    0  501    0  0.00000000000E+00 -0.00000000000E+00 -0.45519946839E+03  0.45519946839E+03  0.00000000000E+00 0. -1.
         23    2    1    2    0    0 -0.25340988579E+03 -0.10610303716E+03 -0.55171622564E+02  0.29649510963E+03  0.96907261798E+02 0.  0.
         13    1    3    3    0    0 -0.11608471120E+03 -0.34178054962E+02  0.22530126395E+02  0.12309104846E+03  0.00000000000E+00 0.  1.
        -13    1    3    3    0    0 -0.13732517459E+03 -0.71924982198E+02 -0.77701748959E+02  0.17340406118E+03  0.00000000000E+00 0. -1.
         22    1    1    2    0    0  0.25340988579E+03  0.10610303716E+03 -0.21182531612E+03  0.34690688846E+03  0.00000000000E+00 0. -1.
<mgrwt>
<rscale>  0 0.58538771E+03</rscale>
<asrwt>0</asrwt>
<pdfrwt beam="1">  1        2 0.70030686E-01 0.58538771E+03</pdfrwt>
<pdfrwt beam="2">  1       -2 0.28954236E-01 0.58538771E+03</pdfrwt>
<totfact> 0.75543586E+02</totfact>
</mgrwt>
</event>
<event>
 6    1  0.1568961E-005  0.3098028E+04  0.7818608E-02  0.8216279E-01
         -2   -1    0    0    0  501 -0.00000000000E+00  0.00000000000E+00  0.14791452421E+04  0.14791452421E+04  0.00000000000E+00 0.  1.
          2   -1    0    0  501    0  0.00000000000E+00 -0.00000000000E+00 -0.16221826747E+04  0.16221826747E+04  0.00000000000E+00 0. -1.
         23    2    1    2    0    0  0.10821178171E+04  0.10688146107E+04  0.21516277083E+03  0.15387495898E+04  0.90064644296E+02 0.  0.
         13    1    3    3    0    0  0.47383749585E+03  0.49491911073E+03  0.13784483594E+03  0.69890492732E+03  0.00000000000E+00 0.  1.
        -13    1    3    3    0    0  0.60828032125E+03  0.57389549998E+03  0.77317934892E+02  0.83984466252E+03  0.00000000000E+00 0. -1.
         22    1    1    2    0    0 -0.10821178171E+04 -0.10688146107E+04 -0.35820020346E+03  0.15625783270E+04  0.00000000000E+00 0. -1.
<mgrwt>
<rscale>  0 0.30980276E+04</rscale>
<asrwt>0</asrwt>
<pdfrwt beam="1">  1        2 0.24956656E+00 0.30980276E+04</pdfrwt>
<pdfrwt beam="2">  1       -2 0.22756081E+00 0.30980276E+04</pdfrwt>
<totfact> 0.81508785E-01</totfact>
</mgrwt>
</event>
<event>
 6    1  0.1568961E-005  0.2352605E+04  0.7818608E-02  0.8457464E-01
          2   -1    0    0  501    0  0.00000000000E+00  0.00000000000E+00  0.23213392434E+04  0.23213392434E+04  0.00000000000E+00 0. -1.
         -2   -1    0    0    0  501 -0.00000000000E+00 -0.00000000000E+00 -0.59607309550E+03  0.59607309550E+03  0.00000000000E+00 0.  1.
         23    2    1    2    0    0  0.71004827332E+03 -0.84859175131E+02 -0.29382213131E+03  0.77543028731E+03  0.59925416816E+02 0.  0.
         11    1    3    3    0    0  0.48375044432E+03 -0.56288689074E+02 -0.22988510975E+03  0.53854440168E+03  0.00000000000E+00 0.  1.
        -11    1    3    3    0    0  0.22629782900E+03 -0.28570486057E+02 -0.63937021558E+02  0.23688588563E+03  0.00000000000E+00 0. -1.
         22    1    1    2    0    0 -0.71004827332E+03  0.84859175131E+02  0.20190882792E+04  0.21419820516E+04  0.00000000000E+00 0. -1.
<mgrwt>
<rscale>  0 0.23526053E+04</rscale>
<asrwt>0</asrwt>
<pdfrwt beam="1">  1        2 0.35712911E+00 0.23526053E+04</pdfrwt>
<pdfrwt beam="2">  1       -2 0.91703554E-01 0.23526053E+04</pdfrwt>
<totfact> 0.40267950E+00</totfact>
</mgrwt>
</event>
<event>
 6    1  0.1568961E-005  0.3458870E+04  0.7818608E-02  0.8123607E-01
          2   -1    0    0  501    0  0.00000000000E+00  0.00000000000E+00  0.29017723074E+04  0.29017723074E+04  0.00000000000E+00 0. -1.
         -2   -1    0    0    0  501 -0.00000000000E+00 -0.00000000000E+00 -0.10307308025E+04  0.10307308025E+04  0.00000000000E+00 0.  1.
         23    2    1    2    0    0  0.15857875946E+04 -0.46780151463E+03  0.15080247230E+04  0.22397710768E+04  0.94209123071E+02 0.  0.
         13    1    3    3    0    0  0.45672941347E+03 -0.15122795137E+03  0.49339660428E+03  0.68913849082E+03  0.00000000000E+00 0.  1.
        -13    1    3    3    0    0  0.11290581811E+04 -0.31657356326E+03  0.10146281187E+04  0.15506325859E+04  0.00000000000E+00 0. -1.
         22    1    1    2    0    0 -0.15857875946E+04  0.46780151463E+03  0.36301678188E+03  0.16927320332E+04  0.00000000000E+00 0.  1.
<mgrwt>
<rscale>  0 0.34588704E+04</rscale>
<asrwt>0</asrwt>
<pdfrwt beam="1">  1        2 0.44642651E+00 0.34588704E+04</pdfrwt>
<pdfrwt beam="2">  1       -2 0.15857397E+00 0.34588704E+04</pdfrwt>
<totfact> 0.42621053E-01</totfact>
</mgrwt>
</event>
<event>
 6    1  0.1568961E-005  0.1299427E+04  0.7818608E-02  0.9030020E-01
          2   -1    0    0  501    0  0.00000000000E+00  0.00000000000E+00  0.86489210875E+03  0.86489210875E+03  0.00000000000E+00 0.  1.
         -2   -1    0    0    0  501 -0.00000000000E+00 -0.00000000000E+00 -0.48806962722E+03  0.48806962722E+03  0.00000000000E+00 0. -1.
         23    2    1    2    0    0  0.89480602107E+02  0.51633435480E+03 -0.20489680632E+03  0.57001520270E+03  0.91250676534E+02 0.  0.
         13    1    3    3    0    0  0.53464704380E+02  0.16176629430E+03 -0.29898534397E+02  0.17297609934E+03  0.00000000000E+00 0. -1.
        -13    1    3    3    0    0  0.36015897728E+02  0.35456806051E+03 -0.17499827192E+03  0.39703910336E+03  0.00000000000E+00 0.  1.
         22    1    1    2    0    0 -0.89480602107E+02 -0.51633435480E+03  0.58171928785E+03  0.78294653327E+03  0.00000000000E+00 0.  1.
<mgrwt>
<rscale>  0 0.12994269E+04</rscale>
<asrwt>0</asrwt>
<pdfrwt beam="1">  1        2 0.13306032E+00 0.12994269E+04</pdfrwt>
<pdfrwt beam="2">  1       -2 0.75087635E-01 0.12994269E+04</pdfrwt>
<totfact> 0.48399727E+01</totfact>
</mgrwt>
</event>
<event>
 6    1  0.1568961E-005  0.3480948E+04  0.7818608E-02  0.8118320E-01
          1   -1    0    0  501    0  0.00000000000E+00  0.00000000000E+00  0.29000518518E+04  0.29000518518E+04  0.00000000000E+00 0. -1.
         -1   -1    0    0    0  501 -0.00000000000E+00 -0.00000000000E+00 -0.10445503978E+04  0.10445503978E+04  0.00000000000E+00 0.  1.
         23    2    1    2    0    0 -0.69368213680E+03  0.66850091698E+03  0.25693863082E+04  0.27455526393E+04  0.90691296890E+02 0.  0.
         11    1    3    3    0    0 -0.53191868518E+03  0.50249564060E+03  0.20538392219E+04  0.21802969765E+04  0.00000000000E+00 0. -1.
        -11    1    3    3    0    0 -0.16176345162E+03  0.16600527638E+03  0.51554708629E+03  0.56525566273E+03  0.00000000000E+00 0.  1.
         22    1    1    2    0    0  0.69368213680E+03 -0.66850091698E+03 -0.71388485415E+03  0.11990496103E+04  0.00000000000E+00 0.  1.
<mgrwt>
<rscale>  0 0.34809483E+04</rscale>
<asrwt>0</asrwt>
<pdfrwt beam="1">  1        1 0.44616182E+00 0.34809483E+04</pdfrwt>
<pdfrwt beam="2">  1       -1 0.16070006E+00 0.34809483E+04</pdfrwt>
<totfact> 0.16654230E-01</totfact>
</mgrwt>
</event>
<event>
 6    1  0.1568961E-005  0.2265142E+04  0.7818608E-02  0.8491793E-01
          1   -1    0    0  501    0  0.00000000000E+00  0.00000000000E+00  0.94030482574E+03  0.94030482574E+03  0.00000000000E+00 0. -1.
         -1   -1    0    0    0  501 -0.00000000000E+00 -0.00000000000E+00 -0.13641508243E+04  0.13641508243E+04  0.00000000000E+00 0.  1.
         23    2    1    2    0    0  0.57918424999E+03  0.62204607627E+03 -0.97132592257E+03  0.12934512071E+04  0.84535559931E+02 0.  0.
         13    1    3    3    0    0  0.34480050695E+03  0.38150469123E+03 -0.52508711704E+03  0.73494877339E+03  0.00000000000E+00 0. -1.
        -13    1    3    3    0    0  0.23438374304E+03  0.24054138504E+03 -0.44623880553E+03  0.55850243372E+03  0.00000000000E+00 0.  1.
         22    1    1    2    0    0 -0.57918424999E+03 -0.62204607627E+03  0.54747992401E+03  0.10110044429E+04  0.00000000000E+00 0. -1.
<mgrwt>
<rscale>  0 0.22651425E+04</rscale>
<asrwt>0</asrwt>
<pdfrwt beam="1">  1        1 0.14466228E+00 0.22651425E+04</pdfrwt>
<pdfrwt beam="2">  1       -1 0.20986936E+00 0.22651425E+04</pdfrwt>
<totfact> 0.19706745E+00</totfact>
</mgrwt>
</event>
<event>
 6    1  0.1568961E-005  0.4257475E+04  0.7818608E-02  0.7954528E-01
          2   -1    0    0  501    0  0.00000000000E+00  0.00000000000E+00  0.34498212090E+04  0.34498212090E+04  0.00000000000E+00 0. -1.
         -2   -1    0    0    0  501 -0.00000000000E+00 -0.00000000000E+00 -0.13135532789E+04  0.13135532789E+04  0.00000000000E+00 0.  1.
         23    2    1    2    0    0 -0.15510359934E+04 -0.24036246943E+03 -0.53879324557E+03  0.16618524321E+04  0.89266875340E+02 0.  0.
         11    1    3    3    0    0 -0.54917640971E+03 -0.11822689283E+03 -0.22188487530E+03  0.60399108028E+03  0.00000000000E+00 0.  1.
        -11    1    3    3    0    0 -0.10018595837E+04 -0.12213557660E+03 -0.31690837027E+03  0.10578613518E+04  0.00000000000E+00 0. -1.
         22    1    1    2    0    0  0.15510359934E+04  0.24036246943E+03  0.26750611757E+04  0.31015220559E+04  0.00000000000E+00 0. -1.
<mgrwt>
<rscale>  0 0.42574753E+04</rscale>
<asrwt>0</asrwt>
<pdfrwt beam="1">  1        2 0.53074172E+00 0.42574753E+04</pdfrwt>
<pdfrwt beam="2">  1       -2 0.20208512E+00 0.42574753E+04</pdfrwt>
<totfact> 0.87590094E-02</totfact>
</mgrwt>
</event>
<event>
 6    1  0.1568961E-005  0.3431837E+03  0.7818608E-02  0.1065448E+00
          1   -1    0    0  501    0  0.00000000000E+00  0.00000000000E+00  0.68168330180E+02  0.68168330180E+02  0.00000000000E+00 0. -1.
         -1   -1    0    0    0  501 -0.00000000000E+00 -0.00000000000E+00 -0.43192725362E+03  0.43192725362E+03  0.00000000000E+00 0.  1.
         23    2    1    2    0    0  0.11969408136E+03 -0.97578390708E+02 -0.13824313408E+03  0.22677235629E+03  0.92012618766E+02 0.  0.
         11    1    3    3    0    0  0.67024270015E+02 -0.41699824644E+02 -0.13200146198E+02  0.80033567995E+02  0.00000000000E+00 0. -1.
        -11    1    3    3    0    0  0.52669811342E+02 -0.55878566064E+02 -0.12504298788E+03  0.14673878829E+03  0.00000000000E+00 0.  1.
         22    1    1    2    0    0 -0.11969408136E+03  0.97578390708E+02 -0.22551578936E+03  0.27332322751E+03  0.00000000000E+00 0.  1.
<mgrwt>
<rscale>  0 0.34318368E+03</rscale>
<asrwt>0</asrwt>
<pdfrwt beam="1">  1        1 0.10487435E-01 0.34318368E+03</pdfrwt>
<pdfrwt beam="2">  1       -1 0.66450347E-01 0.34318368E+03</pdfrwt>
<totfact> 0.14356354E+03</totfact>
</mgrwt>
</event>
<event>
 6    1  0.1568961E-005  0.1365761E+04  0.7818608E-02  0.8978982E-01
          2   -1    0    0  501    0  0.00000000000E+00  0.00000000000E+00  0.73854887343E+03  0.73854887343E+03  0.00000000000E+00 0. -1.
         -2   -1    0    0    0  501 -0.00000000000E+00 -0.00000000000E+00 -0.63140843279E+03  0.63140843279E+03  0.00000000000E+00 0.  1.
         23    2    1    2    0    0  0.17497412487E+03 -0.11985773405E+03 -0.59411142153E+03  0.63733462367E+03  0.90803196863E+02 0.  0.
         11    1    3    3    0    0  0.16115751798E+03 -0.66737937051E+02 -0.42014069160E+03  0.45491086883E+03  0.00000000000E+00 0.  1.
        -11    1    3    3    0    0  0.13816606884E+02 -0.53119796999E+02 -0.17397072993E+03  0.18242375484E+03  0.00000000000E+00 0. -1.
         22    1    1    2    0    0 -0.17497412487E+03  0.11985773405E+03  0.70125186217E+03  0.73262268255E+03  0.00000000000E+00 0. -1.
<mgrwt>
<rscale>  0 0.13657613E+04</rscale>
<asrwt>0</asrwt>
<pdfrwt beam="1">  1        2 0.11362290E+00 0.13657613E+04</pdfrwt>
<pdfrwt beam="2">  1       -2 0.97139758E-01 0.13657613E+04</pdfrwt>
<totfact> 0.33025759E+01</totfact>
</mgrwt>
</event>
<event>
 6    1  0.1568961E-005  0.1139079E+04  0.7818608E-02  0.9167918E-01
          1   -1    0    0  501    0  0.00000000000E+00  0.00000000000E+00  0.10353042937E+04  0.10353042937E+04  0.00000000000E+00 0. -1.
         -1   -1    0    0    0  501 -0.00000000000E+00 -0.00000000000E+00 -0.31331380667E+03  0.31331380667E+03  0.00000000000E+00 0.  1.
         23    2    1    2    0    0 -0.49203175842E+03 -0.20360551370E+03  0.59054952329E+03  0.80014095092E+03  0.89030025158E+02 0.  0.
         11    1    3    3    0    0 -0.39950415904E+03 -0.16330846317E+03  0.52573444110E+03  0.68019844884E+03  0.00000000000E+00 0. -1.
        -11    1    3    3    0    0 -0.92527599374E+02 -0.40297050525E+02  0.64815082186E+02  0.11994250208E+03  0.00000000000E+00 0.  1.
         22    1    1    2    0    0  0.49203175842E+03  0.20360551370E+03  0.13144096370E+03  0.54847714942E+03  0.00000000000E+00 0.  1.
<mgrwt>
<rscale>  0 0.11390788E+04</rscale>
<asrwt>0</asrwt>
<pdfrwt beam="1">  1        1 0.15927758E+00 0.11390788E+04</pdfrwt>
<pdfrwt beam="2">  1       -1 0.48202125E-01 0.11390788E+04</pdfrwt>
<totfact> 0.60727066E+01</totfact>
</mgrwt>
</event>
<event>
 6    1  0.1568961E-005  0.2079103E+04  0.7818608E-02  0.8570505E-01
          2   -1    0    0  501    0  0.00000000000E+00  0.00000000000E+00  0.24528553073E+04  0.24528553073E+04  0.00000000000E+00 0. -1.
         -2   -1    0    0    0  501 -0.00000000000E+00 -0.00000000000E+00 -0.44057534266E+03  0.44057534266E+03  0.00000000000E+00 0.  1.
         23    2    1    2    0    0  0.42507761571E+03 -0.75443058904E+03  0.18028098638E+04  0.20025130240E+04  0.10039179962E+03 0.  0.
         13    1    3    3    0    0  0.17190392002E+03 -0.23179201900E+03  0.52974271777E+03  0.60324608977E+03  0.00000000000E+00 0. -1.
        -13    1    3    3    0    0  0.25317369569E+03 -0.52263857005E+03  0.12730671460E+04  0.13992669343E+04  0.00000000000E+00 0.  1.
         22    1    1    2    0    0 -0.42507761571E+03  0.75443058904E+03  0.20947010088E+03  0.89091762595E+03  0.00000000000E+00 0.  1.
<mgrwt>
<rscale>  0 0.20791032E+04</rscale>
<asrwt>0</asrwt>
<pdfrwt beam="1">  1        2 0.37736235E+00 0.20791032E+04</pdfrwt>
<pdfrwt beam="2">  1       -2 0.67780823E-01 0.20791032E+04</pdfrwt>
<totfact> 0.68251585E+00</totfact>
</mgrwt>
</event>
<event>
 6    1  0.1568961E-005  0.6097167E+03  0.7818608E-02  0.9885449E-01
          1   -1    0    0  501    0  0.00000000000E+00  0.00000000000E+00  0.15285576460E+04  0.15285576460E+04  0.00000000000E+00 0. -1.
         -1   -1    0    0    0  501 -0.00000000000E+00 -0.00000000000E+00 -0.60801517712E+02  0.60801517712E+02  0.00000000000E+00 0.  1.
         23    2    1    2    0    0  0.39512762222E+02  0.20654659244E+03  0.13014931506E+04  0.13212805727E+04  0.87608089862E+02 0.  0.
         13    1    3    3    0    0 -0.12585924710E+01  0.80845785420E+02  0.74203418672E+03  0.74642639245E+03  0.00000000000E+00 0. -1.
        -13    1    3    3    0    0  0.40771354693E+02  0.12570080702E+03  0.55945896388E+03  0.57485418022E+03  0.00000000000E+00 0.  1.
         22    1    1    2    0    0 -0.39512762222E+02 -0.20654659244E+03  0.16626297769E+03  0.26807859105E+03  0.00000000000E+00 0.  1.
<mgrwt>
<rscale>  0 0.60971674E+03</rscale>
<asrwt>0</asrwt>
<pdfrwt beam="1">  1        1 0.23516269E+00 0.60971674E+03</pdfrwt>
<pdfrwt beam="2">  1       -1 0.93540808E-02 0.60971674E+03</pdfrwt>
<totfact> 0.45012083E+02</totfact>
</mgrwt>
</event>
<event>
 6    1  0.1568961E-005  0.7900985E+03  0.7818608E-02  0.9574461E-01
         -1   -1    0    0    0  501 -0.00000000000E+00  0.00000000000E+00  0.33577804079E+03  0.33577804079E+03  0.00000000000E+00 0.  1.
          1   -1    0    0  501    0  0.00000000000E+00 -0.00000000000E+00 -0.46478300803E+03  0.46478300803E+03  0.00000000000E+00 0. -1.
         23    2    1    2    0    0  0.33916325771E+03 -0.22299597837E+02  0.12799803032E+03  0.37443955418E+03  0.91063145822E+02 0.  0.
         13    1    3    3    0    0  0.29004925319E+03 -0.35775089396E+02  0.13692590332E+03  0.32273383661E+03  0.00000000000E+00 0.  1.
        -13    1    3    3    0    0  0.49114004521E+02  0.13475491559E+02 -0.89278730007E+01  0.51705717567E+02  0.00000000000E+00 0. -1.
         22    1    1    2    0    0 -0.33916325771E+03  0.22299597837E+02 -0.25700299755E+03  0.42612149464E+03  0.00000000000E+00 0. -1.
<mgrwt>
<rscale>  0 0.79009855E+03</rscale>
<asrwt>0</asrwt>
<pdfrwt beam="1">  1        1 0.71505077E-01 0.79009855E+03</pdfrwt>
<pdfrwt beam="2">  1       -1 0.51658161E-01 0.79009855E+03</pdfrwt>
<totfact> 0.18699091E+02</totfact>
</mgrwt>
</event>
<event>
 6    1  0.1568961E-005  0.4117288E+04  0.7818608E-02  0.7981295E-01
          2   -1    0    0  501    0  0.00000000000E+00  0.00000000000E+00  0.26529375301E+04  0.26529375301E+04  0.00000000000E+00 0. -1.
         -2   -1    0    0    0  501 -0.00000000000E+00 -0.00000000000E+00 -0.15974803600E+04  0.15974803600E+04  0.00000000000E+00 0.  1.
         23    2    1    2    0    0  0.11677153067E+02 -0.20212209920E+04  0.13219295000E+03  0.20282820989E+04  0.10479810315E+03 0.  0.
         13    1    3    3    0    0 -0.28744212935E+02 -0.15516704241E+04  0.12465106803E+03  0.15569345598E+04  0.00000000000E+00 0.  1.
        -13    1    3    3    0    0  0.40421366002E+02 -0.46955056791E+03  0.75418819723E+01  0.47134753912E+03  0.00000000000E+00 0. -1.
         22    1    1    2    0    0 -0.11677153067E+02  0.20212209920E+04  0.92326422010E+03  0.22221357912E+04  0.00000000000E+00 0.  1.
<mgrwt>
<rscale>  0 0.41172882E+04</rscale>
<asrwt>0</asrwt>
<pdfrwt beam="1">  1        2 0.40814423E+00 0.41172882E+04</pdfrwt>
<pdfrwt beam="2">  1       -2 0.24576621E+00 0.41172882E+04</pdfrwt>
<totfact> 0.15101270E-01</totfact>
</mgrwt>
</event>
<event>
 6    1  0.1568961E-005  0.3329740E+04  0.7818608E-02  0.8155369E-01
          2   -1    0    0  501    0  0.00000000000E+00  0.00000000000E+00  0.32608527123E+04  0.32608527123E+04  0.00000000000E+00 0. -1.
         -2   -1    0    0    0  501 -0.00000000000E+00 -0.00000000000E+00 -0.85002077666E+03  0.85002077666E+03  0.00000000000E+00 0.  1.
         23    2    1    2    0    0  0.11258204070E+04 -0.48079129796E+03 -0.18474012188E+03  0.12410954197E+04  0.86931394036E+02 0.  0.
         13    1    3    3    0    0  0.23410239391E+03 -0.13384938526E+03 -0.22472469581E+02  0.27060044467E+03  0.00000000000E+00 0.  1.
        -13    1    3    3    0    0  0.89171801306E+03 -0.34694191270E+03 -0.16226765230E+03  0.97049497504E+03  0.00000000000E+00 0. -1.
         22    1    1    2    0    0 -0.11258204070E+04  0.48079129796E+03  0.25955720575E+04  0.28697780693E+04  0.00000000000E+00 0. -1.
<mgrwt>
<rscale>  0 0.33297403E+04</rscale>
<asrwt>0</asrwt>
<pdfrwt beam="1">  1        2 0.50166964E+00 0.33297403E+04</pdfrwt>
<pdfrwt beam="2">  1       -2 0.13077243E+00 0.33297403E+04</pdfrwt>
<totfact> 0.42109881E-01</totfact>
</mgrwt>
</event>
<event>
 6    1  0.1568961E-005  0.7762457E+03  0.7818608E-02  0.9595051E-01
         -2   -1    0    0    0  501 -0.00000000000E+00  0.00000000000E+00  0.11205297194E+03  0.11205297194E+03  0.00000000000E+00 0.  1.
          2   -1    0    0  501    0  0.00000000000E+00 -0.00000000000E+00 -0.13443584277E+04  0.13443584277E+04  0.00000000000E+00 0. -1.
         23    2    1    2    0    0 -0.30416311277E+03 -0.14274768818E+03 -0.96953418920E+03  0.10298661615E+04  0.87952628578E+02 0.  0.
         13    1    3    3    0    0 -0.24694405678E+03 -0.14606158855E+03 -0.85382169103E+03  0.90073682888E+03  0.00000000000E+00 0. -1.
        -13    1    3    3    0    0 -0.57219055991E+02  0.33139003623E+01 -0.11571249818E+03  0.12912933260E+03  0.00000000000E+00 0.  1.
         22    1    1    2    0    0  0.30416311277E+03  0.14274768818E+03 -0.26277126651E+03  0.42654523811E+03  0.00000000000E+00 0.  1.
<mgrwt>
<rscale>  0 0.77624573E+03</rscale>
<asrwt>0</asrwt>
<pdfrwt beam="1">  1        2 0.20682437E+00 0.77624573E+03</pdfrwt>
<pdfrwt beam="2">  1       -2 0.17238919E-01 0.77624573E+03</pdfrwt>
<totfact> 0.43411916E+02</totfact>
</mgrwt>
</event>
<event>
 6    1  0.1568961E-005  0.1385553E+04  0.7818608E-02  0.8964343E-01
          2   -1    0    0  501    0  0.00000000000E+00  0.00000000000E+00  0.14595320529E+04  0.14595320529E+04  0.00000000000E+00 0. -1.
         -2   -1    0    0    0  501 -0.00000000000E+00 -0.00000000000E+00 -0.32883070437E+03  0.32883070437E+03  0.00000000000E+00 0.  1.
         23    2    1    2    0    0  0.28395550952E+03 -0.62319894453E+03  0.46120601465E+03  0.83064063789E+03  0.90803224199E+02 0.  0.
         11    1    3    3    0    0  0.16373494406E+03 -0.27514547243E+03  0.24930624926E+03  0.40579276587E+03  0.00000000000E+00 0.  1.
        -11    1    3    3    0    0  0.12022056546E+03 -0.34805347209E+03  0.21189976539E+03  0.42484787203E+03  0.00000000000E+00 0. -1.
         22    1    1    2    0    0 -0.28395550952E+03  0.62319894453E+03  0.66949533390E+03  0.95772211939E+03  0.00000000000E+00 0. -1.
<mgrwt>
<rscale>  0 0.13855525E+04</rscale>
<asrwt>0</asrwt>
<pdfrwt beam="1">  1        2 0.22454339E+00 0.13855525E+04</pdfrwt>
<pdfrwt beam="2">  1       -2 0.50589340E-01 0.13855525E+04</pdfrwt>
<totfact> 0.48160719E+01</totfact>
</mgrwt>
</event>
<event>
 6    1  0.1568961E-005  0.3766089E+04  0.7818608E-02  0.8053471E-01
         -2   -1    0    0    0  501 -0.00000000000E+00  0.00000000000E+00  0.11307615428E+04  0.11307615428E+04  0.00000000000E+00 0.  1.
          2   -1    0    0  501    0  0.00000000000E+00 -0.00000000000E+00 -0.31358130075E+04  0.31358130075E+04  0.00000000000E+00 0. -1.
         23    2    1    2    0    0 -0.90830120788E+03 -0.28886722526E+03  0.83596016499E+03  0.12699427014E+04  0.73957483890E+02 0.  0.
         11    1    3    3    0    0 -0.54329918014E+03 -0.14144676202E+03  0.51890676556E+03  0.76449029881E+03  0.00000000000E+00 0. -1.
        -11    1    3    3    0    0 -0.36500202774E+03 -0.14742046324E+03  0.31705339943E+03  0.50545240263E+03  0.00000000000E+00 0.  1.
         22    1    1    2    0    0  0.90830120788E+03  0.28886722526E+03 -0.28410116297E+04  0.29966318489E+04  0.00000000000E+00 0. -1.
<mgrwt>
<rscale>  0 0.37660891E+04</rscale>
<asrwt>0</asrwt>
<pdfrwt beam="1">  1        2 0.48243276E+00 0.37660891E+04</pdfrwt>
<pdfrwt beam="2">  1       -2 0.17396332E+00 0.37660891E+04</pdfrwt>
<totfact> 0.22908495E-01</totfact>
</mgrwt>
</event>
<event>
 6    1  0.1752234E-005  0.4631241E+04  0.7818608E-02  0.7888055E-01
         -1   -1    0    0    0  501 -0.00000000000E+00  0.00000000000E+00  0.21594784076E+04  0.21594784076E+04  0.00000000000E+00 0.  1.
          1   -1    0    0  501    0  0.00000000000E+00 -0.00000000000E+00 -0.24830525688E+04  0.24830525688E+04  0.00000000000E+00 0. -1.
         23    2    1    2    0    0 -0.14479869506E+04  0.13830907330E+04 -0.13258249821E+04  0.24033094838E+04  0.92078264548E+02 0.  0.
         11    1    3    3    0    0 -0.33814576289E+03  0.37525403157E+03 -0.31862479319E+03  0.59722684468E+03  0.00000000000E+00 0. -1.
        -11    1    3    3    0    0 -0.11098411877E+04  0.10078367014E+04 -0.10072001889E+04  0.18060826391E+04  0.00000000000E+00 0.  1.
         22    1    1    2    0    0  0.14479869506E+04 -0.13830907330E+04  0.10022508209E+04  0.22392214926E+04  0.00000000000E+00 0.  1.
<mgrwt>
<rscale>  0 0.46312410E+04</rscale>
<asrwt>0</asrwt>
<pdfrwt beam="1">  1        1 0.38200809E+00 0.46312410E+04</pdfrwt>
<pdfrwt beam="2">  1       -1 0.33222745E+00 0.46312410E+04</pdfrwt>
<totfact> 0.21065372E-02</totfact>
</mgrwt>
</event>
<event>
 6    1  0.1568961E-005  0.1337792E+04  0.7818608E-02  0.9000121E-01
         -1   -1    0    0    0  501 -0.00000000000E+00  0.00000000000E+00  0.39670527597E+03  0.39670527597E+03  0.00000000000E+00 0.  1.
          1   -1    0    0  501    0  0.00000000000E+00 -0.00000000000E+00 -0.11278445134E+04  0.11278445134E+04  0.00000000000E+00 0. -1.
         23    2    1    2    0    0 -0.65191954885E+02  0.50121789632E+03  0.12430247330E+03  0.53094529509E+03  0.10479709412E+03 0.  0.
         11    1    3    3    0    0 -0.33375626637E+02  0.26871092582E+03  0.12667204446E+02  0.27107185795E+03  0.00000000000E+00 0. -1.
        -11    1    3    3    0    0 -0.31816328248E+02  0.23250697051E+03  0.11163526886E+03  0.25987343714E+03  0.00000000000E+00 0.  1.
         22    1    1    2    0    0  0.65191954885E+02 -0.50121789632E+03 -0.85544171073E+03  0.99360449427E+03  0.00000000000E+00 0. -1.
<mgrwt>
<rscale>  0 0.13377920E+04</rscale>
<asrwt>0</asrwt>
<pdfrwt beam="1">  1        1 0.17351454E+00 0.13377920E+04</pdfrwt>
<pdfrwt beam="2">  1       -1 0.61031582E-01 0.13377920E+04</pdfrwt>
<totfact> 0.32231775E+01</totfact>
</mgrwt>
</event>
<event>
 6    1  0.1969015E-005  0.2930648E+04  0.7818608E-02  0.8263817E-01
          1   -1    0    0  501    0  0.00000000000E+00  0.00000000000E+00  0.16260628178E+04  0.16260628178E+04  0.00000000000E+00 0. -1.
         -1   -1    0    0    0  501 -0.00000000000E+00 -0.00000000000E+00 -0.13204745718E+04  0.13204745718E+04  0.00000000000E+00 0.  1.
         23    2    1    2    0    0  0.11575174226E+04 -0.81292662775E+03  0.53160304336E+03  0.15141341732E+04  0.96458349695E+02 0.  0.
         11    1    3    3    0    0  0.50445882592E+03 -0.33669630722E+03  0.17944359644E+03  0.63248961623E+03  0.00000000000E+00 0.  1.
        -11    1    3    3    0    0  0.65305859665E+03 -0.47623032053E+03  0.35215944692E+03  0.88164455701E+03  0.00000000000E+00 0. -1.
         22    1    1    2    0    0 -0.11575174226E+04  0.81292662775E+03 -0.22601479734E+03  0.14324032164E+04  0.00000000000E+00 0. -1.
<mgrwt>
<rscale>  0 0.29306481E+04</rscale>
<asrwt>0</asrwt>
<pdfrwt beam="1">  1        1 0.25016351E+00 0.29306481E+04</pdfrwt>
<pdfrwt beam="2">  1       -1 0.20314993E+00 0.29306481E+04</pdfrwt>
<totfact> 0.65639510E-01</totfact>
</mgrwt>
</event>
<event>
 6    1  0.1568961E-005  0.2209180E+04  0.7818608E-02  0.8514617E-01
          1   -1    0    0  501    0  0.00000000000E+00  0.00000000000E+00  0.19324662730E+04  0.19324662730E+04  0.00000000000E+00 0.  1.
         -1   -1    0    0    0  501 -0.00000000000E+00 -0.00000000000E+00 -0.63137902391E+03  0.63137902391E+03  0.00000000000E+00 0. -1.
         23    2    1    2    0    0 -0.54485912160E+03  0.66203119436E+03 -0.15304812044E+03  0.87574979083E+03  0.91417745972E+02 0.  0.
         11    1    3    3    0    0 -0.22339244608E+03  0.34120283291E+03 -0.61404593804E+02  0.41242463832E+03  0.00000000000E+00 0. -1.
        -11    1    3    3    0    0 -0.32146667552E+03  0.32082836145E+03 -0.91643526633E+02  0.46332515252E+03  0.00000000000E+00 0.  1.
         22    1    1    2    0    0  0.54485912160E+03 -0.66203119436E+03  0.14541353695E+04  0.16880955060E+04  0.00000000000E+00 0.  1.
<mgrwt>
<rscale>  0 0.22091796E+04</rscale>
<asrwt>0</asrwt>
<pdfrwt beam="1">  1        1 0.29730250E+00 0.22091796E+04</pdfrwt>
<pdfrwt beam="2">  1       -1 0.97135235E-01 0.22091796E+04</pdfrwt>
<totfact> 0.30718209E+00</totfact>
</mgrwt>
</event>
<event>
 6    1  0.1568961E-005  0.4674220E+04  0.7818608E-02  0.7880826E-01
         -2   -1    0    0    0  501 -0.00000000000E+00  0.00000000000E+00  0.26163807824E+04  0.26163807824E+04  0.00000000000E+00 0.  1.
          2   -1    0    0  501    0  0.00000000000E+00 -0.00000000000E+00 -0.20876487540E+04  0.20876487540E+04  0.00000000000E+00 0. -1.
         23    2    1    2    0    0 -0.16459067448E+04 -0.52830458171E+03 -0.13171706833E+04  0.21751025773E+04  0.89542555812E+02 0.  0.
         11    1    3    3    0    0 -0.13985287332E+04 -0.47992833995E+03 -0.11112452113E+04  0.18496161085E+04  0.00000000000E+00 0.  1.
        -11    1    3    3    0    0 -0.24737801162E+03 -0.48376241761E+02 -0.20592547193E+03  0.32548646883E+03  0.00000000000E+00 0. -1.
         22    1    1    2    0    0  0.16459067448E+04  0.52830458171E+03  0.18459027117E+04  0.25289269591E+04  0.00000000000E+00 0.  1.
<mgrwt>
<rscale>  0 0.46742204E+04</rscale>
<asrwt>0</asrwt>
<pdfrwt beam="1">  1        2 0.32117673E+00 0.46742204E+04</pdfrwt>
<pdfrwt beam="2">  1       -2 0.40252012E+00 0.46742204E+04</pdfrwt>
<totfact> 0.31884565E-02</totfact>
</mgrwt>
</event>
<event>
 6    1  0.1568961E-005  0.3200192E+04  0.7818608E-02  0.8188766E-01
          2   -1    0    0  501    0  0.00000000000E+00  0.00000000000E+00  0.15027384929E+04  0.15027384929E+04  0.00000000000E+00 0.  1.
         -2   -1    0    0    0  501 -0.00000000000E+00 -0.00000000000E+00 -0.17037611356E+04  0.17037611356E+04  0.00000000000E+00 0. -1.
         23    2    1    2    0    0  0.13299481307E+04  0.75189519309E+03 -0.57341859850E+03  0.16339898003E+04  0.83698067839E+02 0.  0.
         13    1    3    3    0    0  0.57848101178E+03  0.37320885592E+03 -0.24637724849E+03  0.73118183765E+03  0.00000000000E+00 0. -1.
        -13    1    3    3    0    0  0.75146711896E+03  0.37868633718E+03 -0.32704135001E+03  0.90280796267E+03  0.00000000000E+00 0.  1.
         22    1    1    2    0    0 -0.13299481307E+04 -0.75189519309E+03  0.37239595575E+03  0.15725098282E+04  0.00000000000E+00 0. -1.
<mgrwt>
<rscale>  0 0.32001921E+04</rscale>
<asrwt>0</asrwt>
<pdfrwt beam="1">  1        2 0.23119054E+00 0.32001921E+04</pdfrwt>
<pdfrwt beam="2">  1       -2 0.26211710E+00 0.32001921E+04</pdfrwt>
<totfact> 0.57677767E-01</totfact>
</mgrwt>
</event>
<event>
 6    1  0.1568961E-005  0.3333714E+04  0.7818608E-02  0.8154370E-01
          2   -1    0    0  501    0  0.00000000000E+00  0.00000000000E+00  0.16020679666E+04  0.16020679666E+04  0.00000000000E+00 0.  1.
         -2   -1    0    0    0  501 -0.00000000000E+00 -0.00000000000E+00 -0.17342658396E+04  0.17342658396E+04  0.00000000000E+00 0. -1.
         23    2    1    2    0    0  0.10857532516E+04  0.80031878252E+03 -0.10441415102E+04  0.17081411043E+04  0.90245564032E+02 0.  0.
         13    1    3    3    0    0  0.60385149886E+03  0.38917357558E+03 -0.55359060947E+03  0.90694832681E+03  0.00000000000E+00 0. -1.
        -13    1    3    3    0    0  0.48190175276E+03  0.41114520694E+03 -0.49055090075E+03  0.80119277751E+03  0.00000000000E+00 0.  1.
         22    1    1    2    0    0 -0.10857532516E+04 -0.80031878252E+03  0.91194363726E+03  0.16281927019E+04  0.00000000000E+00 0.  1.
<mgrwt>
<rscale>  0 0.33337137E+04</rscale>
<asrwt>0</asrwt>
<pdfrwt beam="1">  1        2 0.24647199E+00 0.33337137E+04</pdfrwt>
<pdfrwt beam="2">  1       -2 0.26681013E+00 0.33337137E+04</pdfrwt>
<totfact> 0.46960668E-01</totfact>
</mgrwt>
</event>
<event>
 6    1  0.1568961E-005  0.8759364E+03  0.7818608E-02  0.9456172E-01
          1   -1    0    0  501    0  0.00000000000E+00  0.00000000000E+00  0.10951394712E+04  0.10951394712E+04  0.00000000000E+00 0. -1.
         -1   -1    0    0    0  501 -0.00000000000E+00 -0.00000000000E+00 -0.17515223680E+03  0.17515223680E+03  0.00000000000E+00 0.  1.
         23    2    1    2    0    0  0.15086327987E+03 -0.27008069650E+03  0.90485847639E+03  0.96056248572E+03  0.90598647062E+02 0.  0.
         13    1    3    3    0    0  0.60262326536E+02 -0.98065169423E+02  0.21549024115E+03  0.24430384665E+03  0.00000000000E+00 0.  1.
        -13    1    3    3    0    0  0.90600953336E+02 -0.17201552708E+03  0.68936823523E+03  0.71625863907E+03  0.00000000000E+00 0. -1.
         22    1    1    2    0    0 -0.15086327987E+03  0.27008069650E+03  0.15128758044E+02  0.30972922231E+03  0.00000000000E+00 0.  1.
<mgrwt>
<rscale>  0 0.87593636E+03</rscale>
<asrwt>0</asrwt>
<pdfrwt beam="1">  1        1 0.16848299E+00 0.87593636E+03</pdfrwt>
<pdfrwt beam="2">  1       -1 0.26946499E-01 0.87593636E+03</pdfrwt>
<totfact> 0.15851504E+02</totfact>
</mgrwt>
</event>
<event>
 6    1  0.1568961E-005  0.3010053E+03  0.7818608E-02  0.1084739E+00
         -1   -1    0    0    0  501 -0.00000000000E+00  0.00000000000E+00  0.27826501436E+02  0.27826501436E+02  0.00000000000E+00 0. -1.
          1   -1    0    0  501    0  0.00000000000E+00 -0.00000000000E+00 -0.81400982984E+03  0.81400982984E+03  0.00000000000E+00 0.  1.
         23    2    1    2    0    0  0.10047463415E+03 -0.82069054348E+02 -0.30492471172E+03  0.34339843351E+03  0.90071763252E+02 0.  0.
         13    1    3    3    0    0  0.98715347225E+02 -0.81569242687E+02 -0.19396407841E+03  0.23242272876E+03  0.00000000000E+00 0. -1.
        -13    1    3    3    0    0  0.17592869233E+01 -0.49981166116E+00 -0.11096063330E+03  0.11097570475E+03  0.00000000000E+00 0.  1.
         22    1    1    2    0    0 -0.10047463415E+03  0.82069054348E+02 -0.48125861669E+03  0.49843789776E+03  0.00000000000E+00 0. -1.
<mgrwt>
<rscale>  0 0.30100529E+03</rscale>
<asrwt>0</asrwt>
<pdfrwt beam="1">  1        1 0.12523226E+00 0.30100529E+03</pdfrwt>
<pdfrwt beam="2">  1       -1 0.42810010E-02 0.30100529E+03</pdfrwt>
<totfact> 0.49872288E+03</totfact>
</mgrwt>
</event>
<event>
 6    1  0.1568961E-005  0.3886339E+04  0.7818608E-02  0.8027876E-01
          1   -1    0    0  501    0  0.00000000000E+00  0.00000000000E+00  0.23987480662E+04  0.23987480662E+04  0.00000000000E+00 0. -1.
         -1   -1    0    0    0  501 -0.00000000000E+00 -0.00000000000E+00 -0.15741161439E+04  0.15741161439E+04  0.00000000000E+00 0.  1.
         23    2    1    2    0    0 -0.18135121619E+04  0.36093820673E+03  0.10196627821E+04  0.21135256753E+04  0.90420355841E+02 0.  0.
         13    1    3    3    0    0 -0.77859695988E+03  0.20043975675E+03  0.44782390799E+03  0.92029102711E+03  0.00000000000E+00 0. -1.
        -13    1    3    3    0    0 -0.10349152020E+04  0.16049844998E+03  0.57183887407E+03  0.11932346482E+04  0.00000000000E+00 0.  1.
         22    1    1    2    0    0  0.18135121619E+04 -0.36093820673E+03 -0.19503085972E+03  0.18593385347E+04  0.00000000000E+00 0.  1.
<mgrwt>
<rscale>  0 0.38863392E+04</rscale>
<asrwt>0</asrwt>
<pdfrwt beam="1">  1        1 0.36903817E+00 0.38863392E+04</pdfrwt>
<pdfrwt beam="2">  1       -1 0.24217171E+00 0.38863392E+04</pdfrwt>
<totfact> 0.98661177E-02</totfact>
</mgrwt>
</event>
<event>
 6    1  0.1568961E-005  0.1986452E+04  0.7818608E-02  0.8612981E-01
         -2   -1    0    0    0  501 -0.00000000000E+00  0.00000000000E+00  0.69883320703E+03  0.69883320703E+03  0.00000000000E+00 0.  1.
          2   -1    0    0  501    0  0.00000000000E+00 -0.00000000000E+00 -0.14116357582E+04  0.14116357582E+04  0.00000000000E+00 0. -1.
         23    2    1    2    0    0 -0.50470473117E+02 -0.50559447934E+03  0.54713707621E+03  0.75193265330E+03  0.88716902199E+02 0.  0.
         13    1    3    3    0    0 -0.13859569243E+02 -0.17040553200E+03  0.12567246359E+03  0.21218789103E+03  0.00000000000E+00 0.  1.
        -13    1    3    3    0    0 -0.36610903874E+02 -0.33518894734E+03  0.42146461262E+03  0.53974476227E+03  0.00000000000E+00 0. -1.
         22    1    1    2    0    0  0.50470473117E+02  0.50559447934E+03 -0.12599396274E+04  0.13585363119E+04  0.00000000000E+00 0. -1.
<mgrwt>
<rscale>  0 0.19864521E+04</rscale>
<asrwt>0</asrwt>
<pdfrwt beam="1">  1        2 0.21717473E+00 0.19864521E+04</pdfrwt>
<pdfrwt beam="2">  1       -2 0.10751280E+00 0.19864521E+04</pdfrwt>
<totfact> 0.92048216E+00</totfact>
</mgrwt>
</event>
<event>
 6    1  0.1568961E-005  0.7245694E+03  0.7818608E-02  0.9676114E-01
         -2   -1    0    0    0  501 -0.00000000000E+00  0.00000000000E+00  0.20376777231E+03  0.20376777231E+03  0.00000000000E+00 0.  1.
          2   -1    0    0  501    0  0.00000000000E+00 -0.00000000000E+00 -0.64411658522E+03  0.64411658522E+03  0.00000000000E+00 0. -1.
         23    2    1    2    0    0  0.34195298038E+03 -0.85094822656E+02 -0.15635171554E+03  0.39530583291E+03  0.87452118011E+02 0.  0.
         13    1    3    3    0    0  0.10760815904E+02  0.70523030013E+01 -0.23431551654E+02  0.26731400066E+02  0.00000000000E+00 0.  1.
        -13    1    3    3    0    0  0.33119216448E+03 -0.92147125657E+02 -0.13292016388E+03  0.36857443284E+03  0.00000000000E+00 0. -1.
         22    1    1    2    0    0 -0.34195298038E+03  0.85094822656E+02 -0.28399709737E+03  0.45257852463E+03  0.00000000000E+00 0.  1.
<mgrwt>
<rscale>  0 0.72456939E+03</rscale>
<asrwt>0</asrwt>
<pdfrwt beam="1">  1        2 0.99094859E-01 0.72456939E+03</pdfrwt>
<pdfrwt beam="2">  1       -2 0.31348888E-01 0.72456939E+03</pdfrwt>
<totfact> 0.43197242E+02</totfact>
</mgrwt>
</event>
<event>
 6    1  0.1568961E-005  0.8570083E+03  0.7818608E-02  0.9480979E-01
         -1   -1    0    0    0  501 -0.00000000000E+00  0.00000000000E+00  0.59289225295E+03  0.59289225295E+03  0.00000000000E+00 0.  1.
          1   -1    0    0  501    0  0.00000000000E+00 -0.00000000000E+00 -0.30969508119E+03  0.30969508119E+03  0.00000000000E+00 0. -1.
         23    2    1    2    0    0 -0.23277696272E+03  0.28463863962E+03  0.36497745670E+03  0.52590141119E+03  0.90329844740E+02 0.  0.
         13    1    3    3    0    0 -0.25822362022E+02  0.93209931392E+02  0.93167890236E+02  0.13429497929E+03  0.00000000000E+00 0. -1.
        -13    1    3    3    0    0 -0.20695460070E+03  0.19142870823E+03  0.27180956647E+03  0.39160643191E+03  0.00000000000E+00 0.  1.
         22    1    1    2    0    0  0.23277696272E+03 -0.28463863962E+03 -0.81780284949E+02  0.37668592295E+03  0.00000000000E+00 0. -1.
<mgrwt>
<rscale>  0 0.85700832E+03</rscale>
<asrwt>0</asrwt>
<pdfrwt beam="1">  1        1 0.47645397E-01 0.85700832E+03</pdfrwt>
<pdfrwt beam="2">  1       -1 0.91214192E-01 0.85700832E+03</pdfrwt>
<totfact> 0.99650122E+01</totfact>
</mgrwt>
</event>
<event>
 6    1  0.1568961E-005  0.1761694E+04  0.7818608E-02  0.8726939E-01
          1   -1    0    0  501    0  0.00000000000E+00  0.00000000000E+00  0.39855962664E+04  0.39855962664E+04  0.00000000000E+00 0. -1.
         -1   -1    0    0    0  501 -0.00000000000E+00 -0.00000000000E+00 -0.19467392486E+03  0.19467392486E+03  0.00000000000E+00 0.  1.
         23    2    1    2    0    0 -0.38297915879E+03  0.59581885224E+03  0.31335330434E+04  0.32139194112E+04  0.92604033391E+02 0.  0.
         11    1    3    3    0    0 -0.25995562872E+03  0.41713962622E+03  0.23538723054E+04  0.24046407688E+04  0.00000000000E+00 0. -1.
        -11    1    3    3    0    0 -0.12302353007E+03  0.17867922602E+03  0.77966073797E+03  0.80927864243E+03  0.00000000000E+00 0.  1.
         22    1    1    2    0    0  0.38297915879E+03 -0.59581885224E+03  0.65738929813E+03  0.96635078002E+03  0.00000000000E+00 0.  1.
<mgrwt>
<rscale>  0 0.17616943E+04</rscale>
<asrwt>0</asrwt>
<pdfrwt beam="1">  1        1 0.61316860E+00 0.17616943E+04</pdfrwt>
<pdfrwt beam="2">  1       -1 0.29949837E-01 0.17616943E+04</pdfrwt>
<totfact> 0.96892758E-01</totfact>
</mgrwt>
</event>
<event>
 6    1  0.1568961E-005  0.1955595E+04  0.7818608E-02  0.8627668E-01
          2   -1    0    0  501    0  0.00000000000E+00  0.00000000000E+00  0.31946738348E+04  0.31946738348E+04  0.00000000000E+00 0. -1.
         -2   -1    0    0    0  501 -0.00000000000E+00 -0.00000000000E+00 -0.29927559928E+03  0.29927559928E+03  0.00000000000E+00 0.  1.
         23    2    1    2    0    0  0.47329279451E+03 -0.85166756898E+03  0.13651600974E+04  0.16798456672E+04  0.94210704917E+02 0.  0.
         13    1    3    3    0    0  0.26248811378E+03 -0.38965809098E+03  0.61398239910E+03  0.77311566026E+03  0.00000000000E+00 0. -1.
        -13    1    3    3    0    0  0.21080468073E+03 -0.46200947800E+03  0.75117769827E+03  0.90673000698E+03  0.00000000000E+00 0.  1.
         22    1    1    2    0    0 -0.47329279451E+03  0.85166756898E+03  0.15302381381E+04  0.18141037668E+04  0.00000000000E+00 0. -1.
<mgrwt>
<rscale>  0 0.19555950E+04</rscale>
<asrwt>0</asrwt>
<pdfrwt beam="1">  1        2 0.49148826E+00 0.19555950E+04</pdfrwt>
<pdfrwt beam="2">  1       -2 0.46042402E-01 0.19555950E+04</pdfrwt>
<totfact> 0.54725457E+00</totfact>
</mgrwt>
</event>
<event>
 6    1  0.1568961E-005  0.3545251E+04  0.7818608E-02  0.8103149E-01
          2   -1    0    0  501    0  0.00000000000E+00  0.00000000000E+00  0.24337399662E+04  0.24337399662E+04  0.00000000000E+00 0. -1.
         -2   -1    0    0    0  501 -0.00000000000E+00 -0.00000000000E+00 -0.12910997243E+04  0.12910997243E+04  0.00000000000E+00 0.  1.
         23    2    1    2    0    0  0.17104424273E+04 -0.19616278911E+03  0.13397546266E+03  0.17294706083E+04  0.95005385266E+02 0.  0.
         13    1    3    3    0    0  0.14196303976E+04 -0.13854321855E+03  0.13747844508E+03  0.14329846517E+04  0.00000000000E+00 0. -1.
        -13    1    3    3    0    0  0.29081202977E+03 -0.57619570552E+02 -0.35029824181E+01  0.29648595659E+03  0.00000000000E+00 0.  1.
         22    1    1    2    0    0 -0.17104424273E+04  0.19616278911E+03  0.10086647793E+04  0.19953690822E+04  0.00000000000E+00 0.  1.
<mgrwt>
<rscale>  0 0.35452509E+04</rscale>
<asrwt>0</asrwt>
<pdfrwt beam="1">  1        2 0.37442153E+00 0.35452509E+04</pdfrwt>
<pdfrwt beam="2">  1       -2 0.19863073E+00 0.35452509E+04</pdfrwt>
<totfact> 0.42263039E-01</totfact>
</mgrwt>
</event>
<event>
 6    1  0.1568961E-005  0.1706665E+04  0.7818608E-02  0.8757572E-01
          2   -1    0    0  501    0  0.00000000000E+00  0.00000000000E+00  0.17053312457E+04  0.17053312457E+04  0.00000000000E+00 0. -1.
         -2   -1    0    0    0  501 -0.00000000000E+00 -0.00000000000E+00 -0.42699989322E+03  0.42699989322E+03  0.00000000000E+00 0.  1.
         23    2    1    2    0    0  0.70751494564E+03 -0.47294137679E+03  0.64363721653E+03  0.10706873237E+04  0.88608884724E+02 0.  0.
         13    1    3    3    0    0  0.39838995939E+03 -0.23589618111E+03  0.39461984753E+03  0.60834726273E+03  0.00000000000E+00 0. -1.
        -13    1    3    3    0    0  0.30912498625E+03 -0.23704519568E+03  0.24901736901E+03  0.46234006098E+03  0.00000000000E+00 0.  1.
         22    1    1    2    0    0 -0.70751494564E+03  0.47294137679E+03  0.63469413596E+03  0.10616438152E+04  0.00000000000E+00 0.  1.
<mgrwt>
<rscale>  0 0.17066649E+04</rscale>
<asrwt>0</asrwt>
<pdfrwt beam="1">  1        2 0.26235865E+00 0.17066649E+04</pdfrwt>
<pdfrwt beam="2">  1       -2 0.65692292E-01 0.17066649E+04</pdfrwt>
<totfact> 0.19764730E+01</totfact>
</mgrwt>
</event>
<event>
 6    1  0.1568961E-005  0.2639828E+04  0.7818608E-02  0.8354797E-01
          2   -1    0    0  501    0  0.00000000000E+00  0.00000000000E+00  0.90489703918E+03  0.90489703918E+03  0.00000000000E+00 0. -1.
         -2   -1    0    0    0  501 -0.00000000000E+00 -0.00000000000E+00 -0.19252721736E+04  0.19252721736E+04  0.00000000000E+00 0.  1.
         23    2    1    2    0    0 -0.16766957626E+03  0.28831057723E+03 -0.18781671078E+04  0.19098197437E+04  0.93078961423E+02 0.  0.
         13    1    3    3    0    0 -0.80706640904E+02  0.21169838948E+03 -0.13697355442E+04  0.13883462216E+04  0.00000000000E+00 0. -1.
        -13    1    3    3    0    0 -0.86962935355E+02  0.76612187748E+02 -0.50843156351E+03  0.52147352206E+03  0.00000000000E+00 0.  1.
         22    1    1    2    0    0  0.16766957626E+03 -0.28831057723E+03  0.85779197332E+03  0.92034946908E+03  0.00000000000E+00 0. -1.
<mgrwt>
<rscale>  0 0.26398281E+04</rscale>
<asrwt>0</asrwt>
<pdfrwt beam="1">  1        2 0.13921493E+00 0.26398281E+04</pdfrwt>
<pdfrwt beam="2">  1       -2 0.29619571E+00 0.26398281E+04</pdfrwt>
<totfact> 0.86035557E-01</totfact>
</mgrwt>
</event>
<event>
 6    1  0.1568961E-005  0.3286153E+04  0.7818608E-02  0.8166428E-01
         -2   -1    0    0    0  501 -0.00000000000E+00  0.00000000000E+00  0.12554366752E+04  0.12554366752E+04  0.00000000000E+00 0.  1.
          2   -1    0    0  501    0  0.00000000000E+00 -0.00000000000E+00 -0.21504068160E+04  0.21504068160E+04  0.00000000000E+00 0. -1.
         23    2    1    2    0    0  0.15952111382E+04  0.13417586338E+03 -0.82545376960E+03  0.18034907636E+04  0.92213181425E+02 0.  0.
         13    1    3    3    0    0  0.89553651887E+03  0.29715169951E+02 -0.45504151248E+03  0.10049534447E+04  0.00000000000E+00 0. -1.
        -13    1    3    3    0    0  0.69967461932E+03  0.10446069343E+03 -0.37041225712E+03  0.79853731886E+03  0.00000000000E+00 0.  1.
         22    1    1    2    0    0 -0.15952111382E+04 -0.13417586338E+03 -0.69516371191E+02  0.16023527276E+04  0.00000000000E+00 0. -1.
<mgrwt>
<rscale>  0 0.32861525E+04</rscale>
<asrwt>0</asrwt>
<pdfrwt beam="1">  1        2 0.33083182E+00 0.32861525E+04</pdfrwt>
<pdfrwt beam="2">  1       -2 0.19314410E+00 0.32861525E+04</pdfrwt>
<totfact> 0.67985549E-01</totfact>
</mgrwt>
</event>
<event>
 6    1  0.1568961E-005  0.1279103E+04  0.7818608E-02  0.9046302E-01
         -1   -1    0    0    0  501 -0.00000000000E+00  0.00000000000E+00  0.57540682168E+03  0.57540682168E+03  0.00000000000E+00 0.  1.
          1   -1    0    0  501    0  0.00000000000E+00 -0.00000000000E+00 -0.71084738171E+03  0.71084738171E+03  0.00000000000E+00 0. -1.
         23    2    1    2    0    0  0.21476698471E+03  0.43075935296E+03  0.35071288389E+03  0.60213166400E+03  0.88794909650E+02 0.  0.
         11    1    3    3    0    0  0.26248471072E+02  0.13932076506E+03  0.88537894319E+02  0.16714728996E+03  0.00000000000E+00 0. -1.
        -11    1    3    3    0    0  0.18851851364E+03  0.29143858790E+03  0.26217498957E+03  0.43498437403E+03  0.00000000000E+00 0.  1.
         22    1    1    2    0    0 -0.21476698471E+03 -0.43075935296E+03 -0.48615344391E+03  0.68412253940E+03  0.00000000000E+00 0.  1.
<mgrwt>
<rscale>  0 0.12791035E+04</rscale>
<asrwt>0</asrwt>
<pdfrwt beam="1">  1        1 0.10936114E+00 0.12791035E+04</pdfrwt>
<pdfrwt beam="2">  1       -1 0.88524126E-01 0.12791035E+04</pdfrwt>
<totfact> 0.32823345E+01</totfact>
</mgrwt>
</event>
<event>
 6    1  0.1568961E-005  0.8650939E+03  0.7818608E-02  0.9470299E-01
          2   -1    0    0  501    0  0.00000000000E+00  0.00000000000E+00  0.22150960117E+04  0.22150960117E+04  0.00000000000E+00 0. -1.
         -2   -1    0    0    0  501 -0.00000000000E+00 -0.00000000000E+00 -0.84464448599E+02  0.84464448599E+02  0.00000000000E+00 0.  1.
         23    2    1    2    0    0  0.78972592574E+02 -0.27523409183E+03  0.19220537953E+04  0.19453074986E+04  0.89106656595E+02 0.  0.
         13    1    3    3    0    0  0.93543227879E+02 -0.17971558259E+03  0.13601321806E+04  0.13751391111E+04  0.00000000000E+00 0.  1.
        -13    1    3    3    0    0 -0.14570635305E+02 -0.95518509242E+02  0.56192161470E+03  0.57016838749E+03  0.00000000000E+00 0. -1.
         22    1    1    2    0    0 -0.78972592574E+02  0.27523409183E+03  0.20857776782E+03  0.35425296175E+03  0.00000000000E+00 0.  1.
<mgrwt>
<rscale>  0 0.86509390E+03</rscale>
<asrwt>0</asrwt>
<pdfrwt beam="1">  1        2 0.34078396E+00 0.86509390E+03</pdfrwt>
<pdfrwt beam="2">  1       -2 0.12994532E-01 0.86509390E+03</pdfrwt>
<totfact> 0.23014979E+02</totfact>
</mgrwt>
</event>
<event>
 6    1  0.1568961E-005  0.5454313E+03  0.7818608E-02  0.1002557E+00
         -1   -1    0    0    0  501 -0.00000000000E+00  0.00000000000E+00  0.23162112715E+03  0.23162112715E+03  0.00000000000E+00 0.  1.
          1   -1    0    0  501    0  0.00000000000E+00 -0.00000000000E+00 -0.32110122417E+03  0.32110122417E+03  0.00000000000E+00 0. -1.
         23    2    1    2    0    0 -0.71060469845E+02 -0.65859232857E+02  0.20440274390E+03  0.24328067165E+03  0.89543143573E+02 0.  0.
         11    1    3    3    0    0 -0.58767738808E+01  0.21666172732E+02  0.41882200725E+02  0.47519240837E+02  0.00000000000E+00 0.  1.
        -11    1    3    3    0    0 -0.65183695964E+02 -0.87525405589E+02  0.16252054317E+03  0.19576143082E+03  0.00000000000E+00 0. -1.
         22    1    1    2    0    0  0.71060469845E+02  0.65859232857E+02 -0.29388284092E+03  0.30944167967E+03  0.00000000000E+00 0. -1.
<mgrwt>
<rscale>  0 0.54543131E+03</rscale>
<asrwt>0</asrwt>
<pdfrwt beam="1">  1        1 0.49400188E-01 0.54543131E+03</pdfrwt>
<pdfrwt beam="2">  1       -1 0.35634020E-01 0.54543131E+03</pdfrwt>
<totfact> 0.60815195E+02</totfact>
</mgrwt>
</event>
<event>
 6    1  0.1568961E-005  0.6668403E+04  0.7818608E-02  0.7612635E-01
          1   -1    0    0  501    0  0.00000000000E+00  0.00000000000E+00  0.48680347393E+04  0.48680347393E+04  0.00000000000E+00 0. -1.
         -1   -1    0    0    0  501 -0.00000000000E+00 -0.00000000000E+00 -0.22836522278E+04  0.22836522278E+04  0.00000000000E+00 0.  1.
         23    2    1    2    0    0  0.19796245302E+04  0.26780220833E+04  0.14516922626E+04  0.36340595338E+04  0.90899454498E+02 0.  0.
         13    1    3    3    0    0  0.78595085473E+03  0.10018342672E+04  0.52781377882E+03  0.13783969059E+04  0.00000000000E+00 0.  1.
        -13    1    3    3    0    0  0.11936736755E+04  0.16761878161E+04  0.92387848376E+03  0.22556626279E+04  0.00000000000E+00 0. -1.
         22    1    1    2    0    0 -0.19796245302E+04 -0.26780220833E+04  0.11326902490E+04  0.35176274333E+04  0.00000000000E+00 0. -1.
<mgrwt>
<rscale>  0 0.66684026E+04</rscale>
<asrwt>0</asrwt>
<pdfrwt beam="1">  1        1 0.74892842E+00 0.66684026E+04</pdfrwt>
<pdfrwt beam="2">  1       -1 0.35133111E+00 0.66684026E+04</pdfrwt>
<totfact> 0.11991885E-04</totfact>
</mgrwt>
</event>
<event>
 6    1  0.1568961E-005  0.5363545E+04  0.7818608E-02  0.7774750E-01
          2   -1    0    0  501    0  0.00000000000E+00  0.00000000000E+00  0.34719184063E+04  0.34719184063E+04  0.00000000000E+00 0.  1.
         -2   -1    0    0    0  501 -0.00000000000E+00 -0.00000000000E+00 -0.20714496108E+04  0.20714496108E+04  0.00000000000E+00 0. -1.
         23    2    1    2    0    0  0.40737669719E+02  0.22386064762E+04 -0.82375346802E+03  0.23873922266E+04  0.89740485091E+02 0.  0.
         13    1    3    3    0    0  0.47363906460E+02  0.12003263097E+04 -0.48098363972E+03  0.12939752127E+04  0.00000000000E+00 0.  1.
        -13    1    3    3    0    0 -0.66262367414E+01  0.10382801665E+04 -0.34276982829E+03  0.10934170139E+04  0.00000000000E+00 0. -1.
         22    1    1    2    0    0 -0.40737669719E+02 -0.22386064762E+04  0.22242222635E+04  0.31559757905E+04  0.00000000000E+00 0.  1.
<mgrwt>
<rscale>  0 0.53635451E+04</rscale>
<asrwt>0</asrwt>
<pdfrwt beam="1">  1        2 0.53414129E+00 0.53635451E+04</pdfrwt>
<pdfrwt beam="2">  1       -2 0.31868455E+00 0.53635451E+04</pdfrwt>
<totfact> 0.14649767E-02</totfact>
</mgrwt>
</event>
<event>
 6    1  0.1568961E-005  0.2894070E+04  0.7818608E-02  0.8274644E-01
          1   -1    0    0  501    0  0.00000000000E+00  0.00000000000E+00  0.11245693066E+04  0.11245693066E+04  0.00000000000E+00 0. -1.
         -1   -1    0    0    0  501 -0.00000000000E+00 -0.00000000000E+00 -0.18619666209E+04  0.18619666209E+04  0.00000000000E+00 0.  1.
         23    2    1    2    0    0  0.10358455776E+04 -0.18250910721E+03 -0.13927328675E+04  0.17472819898E+04  0.83689166141E+02 0.  0.
         13    1    3    3    0    0  0.29943513860E+03 -0.89445406800E+02 -0.43333882638E+03  0.53426998931E+03  0.00000000000E+00 0. -1.
        -13    1    3    3    0    0  0.73641043904E+03 -0.93063700409E+02 -0.95939404115E+03  0.12130120005E+04  0.00000000000E+00 0.  1.
         22    1    1    2    0    0 -0.10358455776E+04  0.18250910721E+03  0.65533555316E+03  0.12392539377E+04  0.00000000000E+00 0. -1.
<mgrwt>
<rscale>  0 0.28940702E+04</rscale>
<asrwt>0</asrwt>
<pdfrwt beam="1">  1        1 0.17301066E+00 0.28940702E+04</pdfrwt>
<pdfrwt beam="2">  1       -1 0.28645640E+00 0.28940702E+04</pdfrwt>
<totfact> 0.42178586E-01</totfact>
</mgrwt>
</event>
<event>
 6    1  0.1568961E-005  0.1690015E+04  0.7818608E-02  0.8767080E-01
         -1   -1    0    0    0  501 -0.00000000000E+00  0.00000000000E+00  0.58915710910E+03  0.58915710910E+03  0.00000000000E+00 0.  1.
          1   -1    0    0  501    0  0.00000000000E+00 -0.00000000000E+00 -0.12119642176E+04  0.12119642176E+04  0.00000000000E+00 0. -1.
         23    2    1    2    0    0 -0.66634670110E+03  0.47730123563E+03 -0.52003847728E+03  0.97504881949E+03  0.91900962605E+02 0.  0.
         13    1    3    3    0    0 -0.18149393636E+03  0.15679070117E+03 -0.19508737498E+03  0.30916412597E+03  0.00000000000E+00 0. -1.
        -13    1    3    3    0    0 -0.48485276474E+03  0.32051053446E+03 -0.32495110230E+03  0.66588469352E+03  0.00000000000E+00 0.  1.
         22    1    1    2    0    0  0.66634670110E+03 -0.47730123563E+03 -0.10276863122E+03  0.82607250721E+03  0.00000000000E+00 0.  1.
<mgrwt>
<rscale>  0 0.16900146E+04</rscale>
<asrwt>0</asrwt>
<pdfrwt beam="1">  1        1 0.18645603E+00 0.16900146E+04</pdfrwt>
<pdfrwt beam="2">  1       -1 0.90639555E-01 0.16900146E+04</pdfrwt>
<totfact> 0.11862083E+01</totfact>
</mgrwt>
</event>
<event>
 6    1  0.1568961E-005  0.1928993E+04  0.7818608E-02  0.8640558E-01
         -1   -1    0    0    0  501 -0.00000000000E+00  0.00000000000E+00  0.96844915484E+03  0.96844915484E+03  0.00000000000E+00 0.  1.
          1   -1    0    0  501    0  0.00000000000E+00 -0.00000000000E+00 -0.96056036922E+03  0.96056036922E+03  0.00000000000E+00 0. -1.
         23    2    1    2    0    0 -0.34366849924E+03 -0.29371274774E+02 -0.89445983842E+03  0.96298480986E+03  0.91162669544E+02 0.  0.
         13    1    3    3    0    0 -0.33344589019E+02  0.17343166934E+02 -0.15877101785E+03  0.16315907320E+03  0.00000000000E+00 0. -1.
        -13    1    3    3    0    0 -0.31032391022E+03 -0.46714441708E+02 -0.73568882057E+03  0.79982573666E+03  0.00000000000E+00 0.  1.
         22    1    1    2    0    0  0.34366849924E+03  0.29371274774E+02  0.90234862403E+03  0.96602471420E+03  0.00000000000E+00 0.  1.
<mgrwt>
<rscale>  0 0.19289934E+04</rscale>
<asrwt>0</asrwt>
<pdfrwt beam="1">  1        1 0.14777852E+00 0.19289934E+04</pdfrwt>
<pdfrwt beam="2">  1       -1 0.14899218E+00 0.19289934E+04</pdfrwt>
<totfact> 0.53909971E+00</totfact>
</mgrwt>
</event>
<event>
 6    1  0.1568961E-005  0.5652559E+04  0.7818608E-02  0.7735039E-01
         -2   -1    0    0    0  501 -0.00000000000E+00  0.00000000000E+00  0.52043980521E+04  0.52043980521E+04  0.00000000000E+00 0. -1.
          2   -1    0    0  501    0  0.00000000000E+00 -0.00000000000E+00 -0.15348278040E+04  0.15348278040E+04  0.00000000000E+00 0.  1.
         23    2    1    2    0    0  0.19622004808E+04 -0.26408674401E+02 -0.58836278256E+03  0.20508442761E+04  0.94145291213E+02 0.  0.
         11    1    3    3    0    0  0.58369158206E+03  0.29442844015E+02 -0.19756171186E+03  0.61692250244E+03  0.00000000000E+00 0. -1.
        -11    1    3    3    0    0  0.13785088988E+04 -0.55851518416E+02 -0.39080107069E+03  0.14339217737E+04  0.00000000000E+00 0.  1.
         22    1    1    2    0    0 -0.19622004808E+04  0.26408674401E+02  0.42579330307E+04  0.46883815799E+04  0.00000000000E+00 0. -1.
<mgrwt>
<rscale>  0 0.56525587E+04</rscale>
<asrwt>0</asrwt>
<pdfrwt beam="1">  1        2 0.23612736E+00 0.56525587E+04</pdfrwt>
<pdfrwt beam="2">  1       -2 0.80067661E+00 0.56525587E+04</pdfrwt>
<totfact> 0.65257001E-04</totfact>
</mgrwt>
</event>
<event>
 6    1  0.1568961E-005  0.1822432E+04  0.7818608E-02  0.8694461E-01
         -2   -1    0    0    0  501 -0.00000000000E+00  0.00000000000E+00  0.17812893545E+03  0.17812893545E+03  0.00000000000E+00 0.  1.
          2   -1    0    0  501    0  0.00000000000E+00 -0.00000000000E+00 -0.46613111787E+04  0.46613111787E+04  0.00000000000E+00 0. -1.
         23    2    1    2    0    0  0.89202577522E+03  0.22665851448E+01 -0.27100363801E+04  0.28545569002E+04  0.92102083618E+02 0.  0.
         13    1    3    3    0    0  0.35354739396E+03  0.35932530116E+01 -0.93390495525E+03  0.99859257792E+03  0.00000000000E+00 0. -1.
        -13    1    3    3    0    0  0.53847838127E+03 -0.13266678668E+01 -0.17761314249E+04  0.18559643223E+04  0.00000000000E+00 0.  1.
         22    1    1    2    0    0 -0.89202577522E+03 -0.22665851448E+01 -0.17731458631E+04  0.19848832139E+04  0.00000000000E+00 0. -1.
<mgrwt>
<rscale>  0 0.18224318E+04</rscale>
<asrwt>0</asrwt>
<pdfrwt beam="1">  1        2 0.71712479E+00 0.18224318E+04</pdfrwt>
<pdfrwt beam="2">  1       -2 0.27404452E-01 0.18224318E+04</pdfrwt>
<totfact> 0.98879628E-01</totfact>
</mgrwt>
</event>
<event>
 6    1  0.1568961E-005  0.1866082E+04  0.7818608E-02  0.8671926E-01
         -1   -1    0    0    0  501 -0.00000000000E+00  0.00000000000E+00  0.56972121316E+03  0.56972121316E+03  0.00000000000E+00 0.  1.
          1   -1    0    0  501    0  0.00000000000E+00 -0.00000000000E+00 -0.15280560510E+04  0.15280560510E+04  0.00000000000E+00 0. -1.
         23    2    1    2    0    0 -0.52592887097E+03  0.19082514974E+03 -0.13165221346E+04  0.14334629149E+04  0.92574200041E+02 0.  0.
         11    1    3    3    0    0 -0.46523509296E+03  0.14874101048E+03 -0.10719684377E+04  0.11779999624E+04  0.00000000000E+00 0. -1.
        -11    1    3    3    0    0 -0.60693778013E+02  0.42084139265E+02 -0.24455369689E+03  0.25546295256E+03  0.00000000000E+00 0.  1.
         22    1    1    2    0    0  0.52592887097E+03 -0.19082514974E+03  0.35818729673E+03  0.66431434926E+03  0.00000000000E+00 0.  1.
<mgrwt>
<rscale>  0 0.18660825E+04</rscale>
<asrwt>0</asrwt>
<pdfrwt beam="1">  1        1 0.23508555E+00 0.18660825E+04</pdfrwt>
<pdfrwt beam="2">  1       -1 0.87649417E-01 0.18660825E+04</pdfrwt>
<totfact> 0.75148418E+00</totfact>
</mgrwt>
</event>
<event>
 6    1  0.1568961E-005  0.2132461E+04  0.7818608E-02  0.8547077E-01
         -2   -1    0    0    0  501 -0.00000000000E+00  0.00000000000E+00  0.11953965096E+04  0.11953965096E+04  0.00000000000E+00 0. -1.
          2   -1    0    0  501    0  0.00000000000E+00 -0.00000000000E+00 -0.95102121490E+03  0.95102121490E+03  0.00000000000E+00 0.  1.
         23    2    1    2    0    0 -0.55149679617E+03 -0.80745153585E+03 -0.30048016809E+03  0.10270455012E+04  0.91692045381E+02 0.  0.
         11    1    3    3    0    0 -0.32942871190E+03 -0.40262665462E+03 -0.16818616812E+03  0.54673401795E+03  0.00000000000E+00 0.  1.
        -11    1    3    3    0    0 -0.22206808427E+03 -0.40482488124E+03 -0.13229399997E+03  0.48031148326E+03  0.00000000000E+00 0. -1.
         22    1    1    2    0    0  0.55149679617E+03  0.80745153585E+03  0.54485546277E+03  0.11193722233E+04  0.00000000000E+00 0.  1.
<mgrwt>
<rscale>  0 0.21324610E+04</rscale>
<asrwt>0</asrwt>
<pdfrwt beam="1">  1        2 0.14631096E+00 0.21324610E+04</pdfrwt>
<pdfrwt beam="2">  1       -2 0.18390716E+00 0.21324610E+04</pdfrwt>
<totfact> 0.42456714E+00</totfact>
</mgrwt>
</event>
<event>
 6    1  0.1714030E-005  0.3068814E+04  0.7818608E-02  0.8224349E-01
          2   -1    0    0  501    0  0.00000000000E+00  0.00000000000E+00  0.16142745341E+04  0.16142745341E+04  0.00000000000E+00 0.  1.
         -2   -1    0    0    0  501 -0.00000000000E+00 -0.00000000000E+00 -0.14584905905E+04  0.14584905905E+04  0.00000000000E+00 0. -1.
         23    2    1    2    0    0  0.80926239181E+03  0.97023622121E+02  0.13781631950E+04  0.16035713878E+04  0.88250789110E+02 0.  0.
         11    1    3    3    0    0  0.27226983511E+03  0.74729211064E+02  0.46842747097E+03  0.54693657187E+03  0.00000000000E+00 0. -1.
        -11    1    3    3    0    0  0.53699255670E+03  0.22294411057E+02  0.90973572401E+03  0.10566348159E+04  0.00000000000E+00 0.  1.
         22    1    1    2    0    0 -0.80926239181E+03 -0.97023622121E+02 -0.12223792513E+04  0.14691937368E+04  0.00000000000E+00 0. -1.
<mgrwt>
<rscale>  0 0.30688136E+04</rscale>
<asrwt>0</asrwt>
<pdfrwt beam="1">  1        2 0.24834993E+00 0.30688136E+04</pdfrwt>
<pdfrwt beam="2">  1       -2 0.22438317E+00 0.30688136E+04</pdfrwt>
<totfact> 0.86424903E-01</totfact>
</mgrwt>
</event>
<event>
 6    1  0.1568961E-005  0.2621800E+04  0.7818608E-02  0.8360834E-01
         -2   -1    0    0    0  501 -0.00000000000E+00  0.00000000000E+00  0.15882288382E+04  0.15882288382E+04  0.00000000000E+00 0. -1.
          2   -1    0    0  501    0  0.00000000000E+00 -0.00000000000E+00 -0.10819967124E+04  0.10819967124E+04  0.00000000000E+00 0.  1.
         23    2    1    2    0    0  0.33371801874E+03  0.24810299764E+03  0.15178034979E+04  0.15765165151E+04  0.93563083255E+02 0.  0.
         13    1    3    3    0    0  0.10420713583E+03  0.31526139191E+02  0.32915886992E+03  0.34669667760E+03  0.00000000000E+00 0.  1.
        -13    1    3    3    0    0  0.22951088291E+03  0.21657685845E+03  0.11886446280E+04  0.12298198375E+04  0.00000000000E+00 0. -1.
         22    1    1    2    0    0 -0.33371801874E+03 -0.24810299764E+03 -0.10115713721E+04  0.10937090355E+04  0.00000000000E+00 0.  1.
<mgrwt>
<rscale>  0 0.26217997E+04</rscale>
<asrwt>0</asrwt>
<pdfrwt beam="1">  1        2 0.16646103E+00 0.26217997E+04</pdfrwt>
<pdfrwt beam="2">  1       -2 0.24434290E+00 0.26217997E+04</pdfrwt>
<totfact> 0.13742828E+00</totfact>
</mgrwt>
</event>
<event>
 6    1  0.1568961E-005  0.1702204E+04  0.7818608E-02  0.8760109E-01
         -2   -1    0    0    0  501 -0.00000000000E+00  0.00000000000E+00  0.46754635578E+03  0.46754635578E+03  0.00000000000E+00 0.  1.
          2   -1    0    0  501    0  0.00000000000E+00 -0.00000000000E+00 -0.15493099823E+04  0.15493099823E+04  0.00000000000E+00 0. -1.
         23    2    1    2    0    0 -0.12996368668E+03 -0.16626439016E+03 -0.15165160936E+04  0.15335923161E+04  0.86890290639E+02 0.  0.
         11    1    3    3    0    0 -0.60145864135E+02 -0.56003754172E+02 -0.88036003953E+03  0.88418761847E+03  0.00000000000E+00 0.  1.
        -11    1    3    3    0    0 -0.69817822542E+02 -0.11026063599E+03 -0.63615605406E+03  0.64940469763E+03  0.00000000000E+00 0. -1.
         22    1    1    2    0    0  0.12996368668E+03  0.16626439016E+03  0.43475246708E+03  0.48326402196E+03  0.00000000000E+00 0.  1.
<mgrwt>
<rscale>  0 0.17022036E+04</rscale>
<asrwt>0</asrwt>
<pdfrwt beam="1">  1        2 0.23835538E+00 0.17022036E+04</pdfrwt>
<pdfrwt beam="2">  1       -2 0.71930208E-01 0.17022036E+04</pdfrwt>
<totfact> 0.19836872E+01</totfact>
</mgrwt>
</event>
<event>
 6    1  0.1568961E-005  0.1667701E+04  0.7818608E-02  0.8780003E-01
          2   -1    0    0  501    0  0.00000000000E+00  0.00000000000E+00  0.96575246540E+03  0.96575246540E+03  0.00000000000E+00 0.  1.
         -2   -1    0    0    0  501 -0.00000000000E+00 -0.00000000000E+00 -0.71996325354E+03  0.71996325354E+03  0.00000000000E+00 0. -1.
         23    2    1    2    0    0  0.46613578025E+03  0.58817069410E+03 -0.23767228427E+03  0.79298824134E+03  0.95472012509E+02 0.  0.
         13    1    3    3    0    0  0.39842816429E+03  0.44915834363E+03 -0.16854570339E+03  0.62361516490E+03  0.00000000000E+00 0. -1.
        -13    1    3    3    0    0  0.67707615952E+02  0.13901235047E+03 -0.69126580880E+02  0.16937307645E+03  0.00000000000E+00 0.  1.
         22    1    1    2    0    0 -0.46613578025E+03 -0.58817069410E+03  0.48346149613E+03  0.89272747760E+03  0.00000000000E+00 0. -1.
<mgrwt>
<rscale>  0 0.16677006E+04</rscale>
<asrwt>0</asrwt>
<pdfrwt beam="1">  1        2 0.14857730E+00 0.16677006E+04</pdfrwt>
<pdfrwt beam="2">  1       -2 0.11076358E+00 0.16677006E+04</pdfrwt>
<totfact> 0.16341412E+01</totfact>
</mgrwt>
</event>
<event>
 6    1  0.1568961E-005  0.2671757E+04  0.7818608E-02  0.8344227E-01
          2   -1    0    0  501    0  0.00000000000E+00  0.00000000000E+00  0.19627279819E+04  0.19627279819E+04  0.00000000000E+00 0.  1.
         -2   -1    0    0    0  501 -0.00000000000E+00 -0.00000000000E+00 -0.90923038744E+03  0.90923038744E+03  0.00000000000E+00 0. -1.
         23    2    1    2    0    0  0.82526005156E+03 -0.28837377855E+03  0.16109374537E+04  0.18351590708E+04  0.92063816464E+02 0.  0.
         11    1    3    3    0    0  0.27569643836E+03 -0.51684674903E+02  0.53068987196E+03  0.60025958713E+03  0.00000000000E+00 0. -1.
        -11    1    3    3    0    0  0.54956361320E+03 -0.23668910365E+03  0.10802475818E+04  0.12348994836E+04  0.00000000000E+00 0.  1.
         22    1    1    2    0    0 -0.82526005156E+03  0.28837377855E+03 -0.55743985927E+03  0.10367992986E+04  0.00000000000E+00 0. -1.
<mgrwt>
<rscale>  0 0.26717574E+04</rscale>
<asrwt>0</asrwt>
<pdfrwt beam="1">  1        2 0.30195815E+00 0.26717574E+04</pdfrwt>
<pdfrwt beam="2">  1       -2 0.13988160E+00 0.26717574E+04</pdfrwt>
<totfact> 0.22182866E+00</totfact>
</mgrwt>
</event>
<event>
 6    1  0.1568961E-005  0.1815657E+04  0.7818608E-02  0.8698017E-01
          1   -1    0    0  501    0  0.00000000000E+00  0.00000000000E+00  0.96403753499E+03  0.96403753499E+03  0.00000000000E+00 0. -1.
         -1   -1    0    0    0  501 -0.00000000000E+00 -0.00000000000E+00 -0.85489644283E+03  0.85489644283E+03  0.00000000000E+00 0.  1.
         23    2    1    2    0    0  0.60283122814E+03 -0.66891516425E+03 -0.41369629528E+02  0.90596822605E+03  0.90631086165E+02 0.  0.
         13    1    3    3    0    0  0.37589940442E+03 -0.40860444520E+03 -0.69214499964E+02  0.55950746366E+03  0.00000000000E+00 0.  1.
        -13    1    3    3    0    0  0.22693182372E+03 -0.26031071905E+03  0.27844870436E+02  0.34646076239E+03  0.00000000000E+00 0. -1.
         22    1    1    2    0    0 -0.60283122814E+03  0.66891516425E+03  0.15051072169E+03  0.91296575178E+03  0.00000000000E+00 0. -1.
<mgrwt>
<rscale>  0 0.18156566E+04</rscale>
<asrwt>0</asrwt>
<pdfrwt beam="1">  1        1 0.14831347E+00 0.18156566E+04</pdfrwt>
<pdfrwt beam="2">  1       -1 0.13152253E+00 0.18156566E+04</pdfrwt>
<totfact> 0.74960591E+00</totfact>
</mgrwt>
</event>
<event>
 6    1  0.1568961E-005  0.1931417E+04  0.7818608E-02  0.8639374E-01
          1   -1    0    0  501    0  0.00000000000E+00  0.00000000000E+00  0.42063213554E+04  0.42063213554E+04  0.00000000000E+00 0. -1.
         -1   -1    0    0    0  501 -0.00000000000E+00 -0.00000000000E+00 -0.22171231830E+03  0.22171231830E+03  0.00000000000E+00 0.  1.
         23    2    1    2    0    0  0.81209840417E+03 -0.23041096868E+03  0.93205548186E+03  0.12609093882E+04  0.92585265114E+02 0.  0.
         13    1    3    3    0    0  0.17568567021E+03 -0.83118670099E+02  0.18190138898E+03  0.26619970577E+03  0.00000000000E+00 0. -1.
        -13    1    3    3    0    0  0.63641273396E+03 -0.14729229858E+03  0.75015409288E+03  0.99470968239E+03  0.00000000000E+00 0.  1.
         22    1    1    2    0    0 -0.81209840417E+03  0.23041096868E+03  0.30525535553E+04  0.31671242856E+04  0.00000000000E+00 0. -1.
<mgrwt>
<rscale>  0 0.19314174E+04</rscale>
<asrwt>0</asrwt>
<pdfrwt beam="1">  1        1 0.64712631E+00 0.19314174E+04</pdfrwt>
<pdfrwt beam="2">  1       -1 0.34109590E-01 0.19314174E+04</pdfrwt>
<totfact> 0.47863718E-01</totfact>
</mgrwt>
</event>
<event>
 6    1  0.1568961E-005  0.3103175E+04  0.7818608E-02  0.8214867E-01
         -2   -1    0    0    0  501 -0.00000000000E+00  0.00000000000E+00  0.16524507354E+04  0.16524507354E+04  0.00000000000E+00 0.  1.
          2   -1    0    0  501    0  0.00000000000E+00 -0.00000000000E+00 -0.14568810526E+04  0.14568810526E+04  0.00000000000E+00 0. -1.
         23    2    1    2    0    0 -0.11301871446E+04  0.41870629107E+03  0.10748809943E+04  0.16174114407E+04  0.89513555377E+02 0.  0.
         11    1    3    3    0    0 -0.72171754430E+03  0.27860685282E+03  0.74473883048E+03  0.10738407321E+04  0.00000000000E+00 0. -1.
        -11    1    3    3    0    0 -0.40846960034E+03  0.14009943824E+03  0.33014216385E+03  0.54357070869E+03  0.00000000000E+00 0.  1.
         22    1    1    2    0    0  0.11301871446E+04 -0.41870629107E+03 -0.87931131152E+03  0.14919203473E+04  0.00000000000E+00 0. -1.
<mgrwt>
<rscale>  0 0.31031753E+04</rscale>
<asrwt>0</asrwt>
<pdfrwt beam="1">  1        2 0.22413555E+00 0.31031753E+04</pdfrwt>
<pdfrwt beam="2">  1       -2 0.25422319E+00 0.31031753E+04</pdfrwt>
<totfact> 0.68996912E-01</totfact>
</mgrwt>
</event>
<event>
 6    1  0.1568961E-005  0.1950910E+04  0.7818608E-02  0.8629922E-01
          2   -1    0    0  501    0  0.00000000000E+00  0.00000000000E+00  0.80126773553E+03  0.80126773553E+03  0.00000000000E+00 0. -1.
         -2   -1    0    0    0  501 -0.00000000000E+00 -0.00000000000E+00 -0.11875084218E+04  0.11875084218E+04  0.00000000000E+00 0.  1.
         23    2    1    2    0    0  0.61636543311E+03 -0.74985942994E+03 -0.12077257138E+03  0.98246167776E+03  0.91920740068E+02 0.  0.
         13    1    3    3    0    0  0.27830958574E+03 -0.40859984126E+03 -0.72980507491E+02  0.49973614064E+03  0.00000000000E+00 0.  1.
        -13    1    3    3    0    0  0.33805584737E+03 -0.34125958869E+03 -0.47792063892E+02  0.48272553712E+03  0.00000000000E+00 0. -1.
         22    1    1    2    0    0 -0.61636543311E+03  0.74985942994E+03 -0.26546811490E+03  0.10063144796E+04  0.00000000000E+00 0.  1.
<mgrwt>
<rscale>  0 0.19509097E+04</rscale>
<asrwt>0</asrwt>
<pdfrwt beam="1">  1        2 0.12327196E+00 0.19509097E+04</pdfrwt>
<pdfrwt beam="2">  1       -2 0.18269360E+00 0.19509097E+04</pdfrwt>
<totfact> 0.55676748E+00</totfact>
</mgrwt>
</event>
<event>
 6    1  0.1568961E-005  0.1485205E+04  0.7818608E-02  0.8894352E-01
          2   -1    0    0  501    0  0.00000000000E+00  0.00000000000E+00  0.10579724581E+04  0.10579724581E+04  0.00000000000E+00 0.  1.
         -2   -1    0    0    0  501 -0.00000000000E+00 -0.00000000000E+00 -0.52124069664E+03  0.52124069664E+03  0.00000000000E+00 0. -1.
         23    2    1    2    0    0  0.53129462870E+02 -0.65410286277E+03  0.63261967672E+03  0.91598786327E+03  0.90292942058E+02 0.  0.
         11    1    3    3    0    0  0.43567704104E+02 -0.61768416438E+03  0.56329670678E+03  0.83709918865E+03  0.00000000000E+00 0.  1.
        -11    1    3    3    0    0  0.95617587665E+01 -0.36418698386E+02  0.69322969933E+02  0.78888674620E+02  0.00000000000E+00 0. -1.
         22    1    1    2    0    0 -0.53129462870E+02  0.65410286277E+03 -0.95887915290E+02  0.66322529144E+03  0.00000000000E+00 0. -1.
<mgrwt>
<rscale>  0 0.14852048E+04</rscale>
<asrwt>0</asrwt>
<pdfrwt beam="1">  1        2 0.16276499E+00 0.14852048E+04</pdfrwt>
<pdfrwt beam="2">  1       -2 0.80190877E-01 0.14852048E+04</pdfrwt>
<totfact> 0.30779786E+01</totfact>
</mgrwt>
</event>
<event>
 6    1  0.1568961E-005  0.1816171E+04  0.7818608E-02  0.8697747E-01
          1   -1    0    0  501    0  0.00000000000E+00  0.00000000000E+00  0.28161585460E+04  0.28161585460E+04  0.00000000000E+00 0. -1.
         -1   -1    0    0    0  501 -0.00000000000E+00 -0.00000000000E+00 -0.29281721658E+03  0.29281721658E+03  0.00000000000E+00 0.  1.
         23    2    1    2    0    0 -0.87592694139E+02  0.55479435150E+03  0.48308442078E+02  0.57101259383E+03  0.90842854492E+02 0.  0.
         13    1    3    3    0    0  0.40158902455E+01  0.24260437502E+03  0.41222347556E+01  0.24267262510E+03  0.00000000000E+00 0. -1.
        -13    1    3    3    0    0 -0.91608584384E+02  0.31218997648E+03  0.44186207322E+02  0.32833996873E+03  0.00000000000E+00 0.  1.
         22    1    1    2    0    0  0.87592694139E+02 -0.55479435150E+03  0.24750328874E+04  0.25379631688E+04  0.00000000000E+00 0. -1.
<mgrwt>
<rscale>  0 0.18161715E+04</rscale>
<asrwt>0</asrwt>
<pdfrwt beam="1">  1        1 0.43325514E+00 0.18161715E+04</pdfrwt>
<pdfrwt beam="2">  1       -1 0.45048805E-01 0.18161715E+04</pdfrwt>
<totfact> 0.37456349E+00</totfact>
</mgrwt>
</event>
<event>
 6    1  0.1568961E-005  0.6585053E+03  0.7818608E-02  0.9790949E-01
          2   -1    0    0  501    0  0.00000000000E+00  0.00000000000E+00  0.15768542273E+03  0.15768542273E+03  0.00000000000E+00 0. -1.
         -2   -1    0    0    0  501 -0.00000000000E+00 -0.00000000000E+00 -0.68749103487E+03  0.68749103487E+03  0.00000000000E+00 0.  1.
         23    2    1    2    0    0 -0.23502162346E+03 -0.51490069791E+02 -0.21412907264E+01  0.26524885274E+03  0.11165114407E+03 0.  0.
         13    1    3    3    0    0 -0.22341350875E+03 -0.16458144858E+02 -0.18702352122E+02  0.22479823042E+03  0.00000000000E+00 0.  1.
        -13    1    3    3    0    0 -0.11608114710E+02 -0.35031924934E+02  0.16561061395E+02  0.40450622322E+02  0.00000000000E+00 0. -1.
         22    1    1    2    0    0  0.23502162346E+03  0.51490069791E+02 -0.52766432142E+03  0.57992760486E+03  0.00000000000E+00 0.  1.
<mgrwt>
<rscale>  0 0.65850532E+03</rscale>
<asrwt>0</asrwt>
<pdfrwt beam="1">  1        2 0.24259295E-01 0.65850532E+03</pdfrwt>
<pdfrwt beam="2">  1       -2 0.10576785E+00 0.65850532E+03</pdfrwt>
<totfact> 0.16577153E+02</totfact>
</mgrwt>
</event>
<event>
 6    1  0.1568961E-005  0.3529786E+04  0.7818608E-02  0.8106767E-01
          2   -1    0    0  501    0  0.00000000000E+00  0.00000000000E+00  0.17079013662E+04  0.17079013662E+04  0.00000000000E+00 0. -1.
         -2   -1    0    0    0  501 -0.00000000000E+00 -0.00000000000E+00 -0.18237867175E+04  0.18237867175E+04  0.00000000000E+00 0.  1.
         23    2    1    2    0    0 -0.10367505756E+02  0.15535207753E+04 -0.89326371566E+03  0.17944916625E+04  0.93519927168E+02 0.  0.
         13    1    3    3    0    0 -0.51123097500E+02  0.10051095000E+04 -0.57185228220E+03  0.11575291403E+04  0.00000000000E+00 0.  1.
        -13    1    3    3    0    0  0.40755591743E+02  0.54841127530E+03 -0.32141143346E+03  0.63696252220E+03  0.00000000000E+00 0. -1.
         22    1    1    2    0    0  0.10367505756E+02 -0.15535207753E+04  0.77737836439E+03  0.17371964212E+04  0.00000000000E+00 0. -1.
<mgrwt>
<rscale>  0 0.35297863E+04</rscale>
<asrwt>0</asrwt>
<pdfrwt beam="1">  1        2 0.26275406E+00 0.35297863E+04</pdfrwt>
<pdfrwt beam="2">  1       -2 0.28058257E+00 0.35297863E+04</pdfrwt>
<totfact> 0.33239219E-01</totfact>
</mgrwt>
</event>
<event>
 6    1  0.1568961E-005  0.1085966E+04  0.7818608E-02  0.9218979E-01
         -2   -1    0    0    0  501 -0.00000000000E+00  0.00000000000E+00  0.64222709950E+03  0.64222709950E+03  0.00000000000E+00 0.  1.
          2   -1    0    0  501    0  0.00000000000E+00 -0.00000000000E+00 -0.45907533440E+03  0.45907533440E+03  0.00000000000E+00 0. -1.
         23    2    1    2    0    0  0.13721431669E+03 -0.50796128398E+03 -0.27737559367E+02  0.53444553671E+03  0.89499859111E+02 0.  0.
         13    1    3    3    0    0 -0.11127517460E+02 -0.77036145253E+02 -0.84727122559E+01  0.78295441587E+02  0.00000000000E+00 0.  1.
        -13    1    3    3    0    0  0.14834183415E+03 -0.43092513872E+03 -0.19264847111E+02  0.45615009512E+03  0.00000000000E+00 0. -1.
         22    1    1    2    0    0 -0.13721431669E+03  0.50796128398E+03  0.21088932446E+03  0.56685689719E+03  0.00000000000E+00 0. -1.
<mgrwt>
<rscale>  0 0.10859662E+04</rscale>
<asrwt>0</asrwt>
<pdfrwt beam="1">  1        2 0.70626974E-01 0.10859662E+04</pdfrwt>
<pdfrwt beam="2">  1       -2 0.98804170E-01 0.10859662E+04</pdfrwt>
<totfact> 0.57418223E+01</totfact>
</mgrwt>
</event>
<event>
 6    1  0.1568961E-005  0.1352009E+04  0.7818608E-02  0.8989309E-01
          1   -1    0    0  501    0  0.00000000000E+00  0.00000000000E+00  0.24585159536E+04  0.24585159536E+04  0.00000000000E+00 0. -1.
         -1   -1    0    0    0  501 -0.00000000000E+00 -0.00000000000E+00 -0.18587715947E+03  0.18587715947E+03  0.00000000000E+00 0.  1.
         23    2    1    2    0    0  0.16260746567E+02  0.21905488935E+03  0.23856158708E+04  0.23973844568E+04  0.89664340485E+02 0.  0.
         11    1    3    3    0    0 -0.15033256072E+02  0.13617871922E+03  0.10609257077E+04  0.10697354811E+04  0.00000000000E+00 0. -1.
        -11    1    3    3    0    0  0.31294002639E+02  0.82876170128E+02  0.13246901632E+04  0.13276489757E+04  0.00000000000E+00 0.  1.
         22    1    1    2    0    0 -0.16260746567E+02 -0.21905488935E+03 -0.11297707670E+03  0.24700865630E+03  0.00000000000E+00 0.  1.
<mgrwt>
<rscale>  0 0.13520088E+04</rscale>
<asrwt>0</asrwt>
<pdfrwt beam="1">  1        1 0.37823320E+00 0.13520088E+04</pdfrwt>
<pdfrwt beam="2">  1       -1 0.28596488E-01 0.13520088E+04</pdfrwt>
<totfact> 0.15779714E+01</totfact>
</mgrwt>
</event>
<event>
 6    1  0.1568961E-005  0.2461353E+04  0.7818608E-02  0.8416884E-01
         -2   -1    0    0    0  501 -0.00000000000E+00  0.00000000000E+00  0.73073832798E+03  0.73073832798E+03  0.00000000000E+00 0.  1.
          2   -1    0    0  501    0  0.00000000000E+00 -0.00000000000E+00 -0.20726499619E+04  0.20726499619E+04  0.00000000000E+00 0. -1.
         23    2    1    2    0    0  0.11597292876E+04  0.14664507410E+03 -0.24000160372E+03  0.11969380066E+04  0.92644608843E+02 0.  0.
         11    1    3    3    0    0  0.75191818074E+03  0.50370811138E+02 -0.15590685950E+03  0.76956164014E+03  0.00000000000E+00 0. -1.
        -11    1    3    3    0    0  0.40781110683E+03  0.96274262965E+02 -0.84094744219E+02  0.42737636641E+03  0.00000000000E+00 0.  1.
         22    1    1    2    0    0 -0.11597292876E+04 -0.14664507410E+03 -0.11019100302E+04  0.16064502834E+04  0.00000000000E+00 0. -1.
<mgrwt>
<rscale>  0 0.24613531E+04</rscale>
<asrwt>0</asrwt>
<pdfrwt beam="1">  1        2 0.31886922E+00 0.24613531E+04</pdfrwt>
<pdfrwt beam="2">  1       -2 0.11242128E+00 0.24613531E+04</pdfrwt>
<totfact> 0.33933472E+00</totfact>
</mgrwt>
</event>
<event>
 6    1  0.1568961E-005  0.1997315E+04  0.7818608E-02  0.8607877E-01
         -2   -1    0    0    0  501 -0.00000000000E+00  0.00000000000E+00  0.47585483799E+03  0.47585483799E+03  0.00000000000E+00 0.  1.
          2   -1    0    0  501    0  0.00000000000E+00 -0.00000000000E+00 -0.20958416996E+04  0.20958416996E+04  0.00000000000E+00 0. -1.
         23    2    1    2    0    0 -0.54852965204E+03  0.39615848175E+03  0.13130020341E+03  0.69424275495E+03  0.83107987343E+02 0.  0.
         13    1    3    3    0    0 -0.13393236761E+03  0.78773303437E+02  0.62973728874E+02  0.16765680110E+03  0.00000000000E+00 0. -1.
        -13    1    3    3    0    0 -0.41459728443E+03  0.31738517831E+03  0.68326474536E+02  0.52658595385E+03  0.00000000000E+00 0.  1.
         22    1    1    2    0    0  0.54852965204E+03 -0.39615848175E+03 -0.17512870650E+04  0.18774537827E+04  0.00000000000E+00 0. -1.
<mgrwt>
<rscale>  0 0.19973146E+04</rscale>
<asrwt>0</asrwt>
<pdfrwt beam="1">  1        2 0.32243718E+00 0.19973146E+04</pdfrwt>
<pdfrwt beam="2">  1       -2 0.73208437E-01 0.19973146E+04</pdfrwt>
<totfact> 0.92472003E+00</totfact>
</mgrwt>
</event>
<event>
 6    1  0.1568961E-005  0.4000276E+04  0.7818608E-02  0.8004491E-01
         -2   -1    0    0    0  501 -0.00000000000E+00  0.00000000000E+00  0.36597165353E+04  0.36597165353E+04  0.00000000000E+00 0.  1.
          2   -1    0    0  501    0  0.00000000000E+00 -0.00000000000E+00 -0.10931315423E+04  0.10931315423E+04  0.00000000000E+00 0. -1.
         23    2    1    2    0    0  0.17215688232E+04 -0.21233070609E+02  0.76858185334E+02  0.17258050265E+04  0.90806125974E+02 0.  0.
         11    1    3    3    0    0  0.45582955816E+03 -0.32331963964E+01  0.60447384006E+02  0.45983141028E+03  0.00000000000E+00 0.  1.
        -11    1    3    3    0    0  0.12657392650E+04 -0.17999874212E+02  0.16410801328E+02  0.12659736162E+04  0.00000000000E+00 0. -1.
         22    1    1    2    0    0 -0.17215688232E+04  0.21233070609E+02  0.24897268077E+04  0.30270430511E+04  0.00000000000E+00 0.  1.
<mgrwt>
<rscale>  0 0.40002758E+04</rscale>
<asrwt>0</asrwt>
<pdfrwt beam="1">  1        2 0.16817409E+00 0.40002758E+04</pdfrwt>
<pdfrwt beam="2">  1       -2 0.56303331E+00 0.40002758E+04</pdfrwt>
<totfact> 0.12765094E-02</totfact>
</mgrwt>
</event>
<event>
 6    1  0.1568961E-005  0.3697421E+04  0.7818608E-02  0.8068534E-01
          1   -1    0    0  501    0  0.00000000000E+00  0.00000000000E+00  0.39253654624E+04  0.39253654624E+04  0.00000000000E+00 0. -1.
         -1   -1    0    0    0  501 -0.00000000000E+00 -0.00000000000E+00 -0.87067815831E+03  0.87067815831E+03  0.00000000000E+00 0.  1.
         23    2    1    2    0    0  0.13438034374E+04  0.89652555573E+03  0.26904230169E+04  0.31400683125E+04  0.10994201611E+03 0.  0.
         11    1    3    3    0    0  0.83781644913E+03  0.49726259886E+03  0.16505121834E+04  0.19166108009E+04  0.00000000000E+00 0. -1.
        -11    1    3    3    0    0  0.50598698828E+03  0.39926295687E+03  0.10399108335E+04  0.12234575116E+04  0.00000000000E+00 0.  1.
         22    1    1    2    0    0 -0.13438034374E+04 -0.89652555573E+03  0.36426428719E+03  0.16559753082E+04  0.00000000000E+00 0.  1.
<mgrwt>
<rscale>  0 0.36974207E+04</rscale>
<asrwt>0</asrwt>
<pdfrwt beam="1">  1        1 0.60390237E+00 0.36974207E+04</pdfrwt>
<pdfrwt beam="2">  1       -1 0.13395049E+00 0.36974207E+04</pdfrwt>
<totfact> 0.41927321E-02</totfact>
</mgrwt>
</event>
<event>
 6    1  0.1568961E-005  0.9169474E+03  0.7818608E-02  0.9404641E-01
          2   -1    0    0  501    0  0.00000000000E+00  0.00000000000E+00  0.20634281954E+04  0.20634281954E+04  0.00000000000E+00 0. -1.
         -2   -1    0    0    0  501 -0.00000000000E+00 -0.00000000000E+00 -0.10186840249E+03  0.10186840249E+03  0.00000000000E+00 0.  1.
         23    2    1    2    0    0 -0.18673798272E+03 -0.36567292890E+03  0.14483143753E+04  0.15080229686E+04  0.89056043338E+02 0.  0.
         11    1    3    3    0    0 -0.86409113392E+02 -0.96637758380E+02  0.36648638291E+03  0.38873854977E+03  0.00000000000E+00 0. -1.
        -11    1    3    3    0    0 -0.10032886933E+03 -0.26903517052E+03  0.10818279924E+04  0.11192844188E+04  0.00000000000E+00 0.  1.
         22    1    1    2    0    0  0.18673798272E+03  0.36567292890E+03  0.51324541764E+03  0.65727362936E+03  0.00000000000E+00 0.  1.
<mgrwt>
<rscale>  0 0.91694740E+03</rscale>
<asrwt>0</asrwt>
<pdfrwt beam="1">  1        2 0.31745046E+00 0.91694740E+03</pdfrwt>
<pdfrwt beam="2">  1       -2 0.15672063E-01 0.91694740E+03</pdfrwt>
<totfact> 0.20262945E+02</totfact>
</mgrwt>
</event>
<event>
 6    1  0.1568961E-005  0.1421176E+04  0.7818608E-02  0.8938631E-01
         -1   -1    0    0    0  501 -0.00000000000E+00  0.00000000000E+00  0.31681904492E+03  0.31681904492E+03  0.00000000000E+00 0.  1.
          1   -1    0    0  501    0  0.00000000000E+00 -0.00000000000E+00 -0.15937658348E+04  0.15937658348E+04  0.00000000000E+00 0. -1.
         23    2    1    2    0    0  0.31520832680E+03  0.39619958190E+03  0.23677072956E+02  0.51489407207E+03  0.90691254707E+02 0.  0.
         11    1    3    3    0    0  0.11858560859E+03  0.20706235696E+03  0.38337354935E+02  0.24167564837E+03  0.00000000000E+00 0.  1.
        -11    1    3    3    0    0  0.19662271821E+03  0.18913722494E+03 -0.14660281979E+02  0.27321842369E+03  0.00000000000E+00 0. -1.
         22    1    1    2    0    0 -0.31520832680E+03 -0.39619958190E+03 -0.13006238628E+04  0.13956908077E+04  0.00000000000E+00 0. -1.
<mgrwt>
<rscale>  0 0.14211761E+04</rscale>
<asrwt>0</asrwt>
<pdfrwt beam="1">  1        1 0.24519475E+00 0.14211761E+04</pdfrwt>
<pdfrwt beam="2">  1       -1 0.48741391E-01 0.14211761E+04</pdfrwt>
<totfact> 0.23113411E+01</totfact>
</mgrwt>
</event>
<event>
 6    1  0.1568961E-005  0.2324989E+04  0.7818608E-02  0.8468133E-01
         -2   -1    0    0    0  501 -0.00000000000E+00  0.00000000000E+00  0.39379678412E+03  0.39379678412E+03  0.00000000000E+00 0.  1.
          2   -1    0    0  501    0  0.00000000000E+00 -0.00000000000E+00 -0.34317023880E+04  0.34317023880E+04  0.00000000000E+00 0. -1.
         23    2    1    2    0    0 -0.73625547854E+03 -0.82837151141E+03 -0.20887618504E+04  0.23663400460E+04  0.91474887337E+02 0.  0.
         13    1    3    3    0    0 -0.13522889446E+03 -0.20940044229E+03 -0.46380831318E+03  0.52654871618E+03  0.00000000000E+00 0.  1.
        -13    1    3    3    0    0 -0.60102658408E+03 -0.61897106912E+03 -0.16249535372E+04  0.18397913298E+04  0.00000000000E+00 0. -1.
         22    1    1    2    0    0  0.73625547854E+03  0.82837151141E+03 -0.94914375349E+03  0.14591591261E+04  0.00000000000E+00 0. -1.
<mgrwt>
<rscale>  0 0.23249889E+04</rscale>
<asrwt>0</asrwt>
<pdfrwt beam="1">  1        2 0.52795419E+00 0.23249889E+04</pdfrwt>
<pdfrwt beam="2">  1       -2 0.60584124E-01 0.23249889E+04</pdfrwt>
<totfact> 0.20863371E+00</totfact>
</mgrwt>
</event>
<event>
 6    1  0.1568961E-005  0.1803651E+04  0.7818608E-02  0.8704360E-01
         -1   -1    0    0    0  501 -0.00000000000E+00  0.00000000000E+00  0.14041540329E+04  0.14041540329E+04  0.00000000000E+00 0.  1.
          1   -1    0    0  501    0  0.00000000000E+00 -0.00000000000E+00 -0.57920229025E+03  0.57920229025E+03  0.00000000000E+00 0. -1.
         23    2    1    2    0    0 -0.56815053717E+03 -0.38032135300E+03 -0.22914930283E+03  0.72694541165E+03  0.92200130713E+02 0.  0.
         13    1    3    3    0    0 -0.42554949579E+03 -0.32758782162E+03 -0.19305498102E+03  0.57068062867E+03  0.00000000000E+00 0.  1.
        -13    1    3    3    0    0 -0.14260104138E+03 -0.52733531374E+02 -0.36094321810E+02  0.15626478298E+03  0.00000000000E+00 0. -1.
         22    1    1    2    0    0  0.56815053717E+03  0.38032135300E+03  0.10541010455E+04  0.12564109115E+04  0.00000000000E+00 0.  1.
<mgrwt>
<rscale>  0 0.18036510E+04</rscale>
<asrwt>0</asrwt>
<pdfrwt beam="1">  1        1 0.89108045E-01 0.18036510E+04</pdfrwt>
<pdfrwt beam="2">  1       -1 0.21602370E+00 0.18036510E+04</pdfrwt>
<totfact> 0.39777002E+00</totfact>
</mgrwt>
</event>
<event>
 6    1  0.1568961E-005  0.5117826E+04  0.7818608E-02  0.7810584E-01
         -2   -1    0    0    0  501 -0.00000000000E+00  0.00000000000E+00  0.21360849319E+04  0.21360849319E+04  0.00000000000E+00 0. -1.
          2   -1    0    0  501    0  0.00000000000E+00 -0.00000000000E+00 -0.30654382164E+04  0.30654382164E+04  0.00000000000E+00 0.  1.
         23    2    1    2    0    0 -0.13244754118E+04  0.30977909139E+03 -0.26667277366E+04  0.29950172706E+04  0.92159799008E+02 0.  0.
         11    1    3    3    0    0 -0.25390875323E+03  0.96362473394E+02 -0.51506453824E+03  0.58227730490E+03  0.00000000000E+00 0. -1.
        -11    1    3    3    0    0 -0.10705666585E+04  0.21341661800E+03 -0.21516631983E+04  0.24127399657E+04  0.00000000000E+00 0.  1.
         22    1    1    2    0    0  0.13244754118E+04 -0.30977909139E+03  0.17373744521E+04  0.22065058778E+04  0.00000000000E+00 0. -1.
<mgrwt>
<rscale>  0 0.51178263E+04</rscale>
<asrwt>0</asrwt>
<pdfrwt beam="1">  1        2 0.47160588E+00 0.51178263E+04</pdfrwt>
<pdfrwt beam="2">  1       -2 0.32862845E+00 0.51178263E+04</pdfrwt>
<totfact> 0.24159235E-02</totfact>
</mgrwt>
</event>
<event>
 6    1  0.1568961E-005  0.2274676E+04  0.7818608E-02  0.8487974E-01
         -2   -1    0    0    0  501 -0.00000000000E+00  0.00000000000E+00  0.28179014032E+03  0.28179014032E+03  0.00000000000E+00 0.  1.
          2   -1    0    0  501    0  0.00000000000E+00 -0.00000000000E+00 -0.45904286072E+04  0.45904286072E+04  0.00000000000E+00 0. -1.
         23    2    1    2    0    0  0.36217622282E+03 -0.67528561196E+03 -0.36278161067E+03  0.85264556075E+03  0.90618326732E+02 0.  0.
         13    1    3    3    0    0  0.48909872310E+02 -0.12496257455E+03 -0.30889681524E+02  0.13770255288E+03  0.00000000000E+00 0. -1.
        -13    1    3    3    0    0  0.31326635051E+03 -0.55032303741E+03 -0.33189192914E+03  0.71494300787E+03  0.00000000000E+00 0.  1.
         22    1    1    2    0    0 -0.36217622282E+03  0.67528561196E+03 -0.39458568562E+04  0.40195731867E+04  0.00000000000E+00 0. -1.
<mgrwt>
<rscale>  0 0.22746758E+04</rscale>
<asrwt>0</asrwt>
<pdfrwt beam="1">  1        2 0.70621975E+00 0.22746758E+04</pdfrwt>
<pdfrwt beam="2">  1       -2 0.43352331E-01 0.22746758E+04</pdfrwt>
<totfact> 0.46316069E-01</totfact>
</mgrwt>
</event>
<event>
 6    1  0.1568961E-005  0.3262493E+04  0.7818608E-02  0.8172505E-01
         -2   -1    0    0    0  501 -0.00000000000E+00  0.00000000000E+00  0.15392233415E+04  0.15392233415E+04  0.00000000000E+00 0.  1.
          2   -1    0    0  501    0  0.00000000000E+00 -0.00000000000E+00 -0.17287715022E+04  0.17287715022E+04  0.00000000000E+00 0. -1.
         23    2    1    2    0    0 -0.10191641034E+04  0.62144118749E+03 -0.12069188212E+04  0.16995791844E+04  0.83855495105E+02 0.  0.
         11    1    3    3    0    0 -0.63003542460E+03  0.37351068292E+03 -0.79636496888E+03  0.10819667417E+04  0.00000000000E+00 0. -1.
        -11    1    3    3    0    0 -0.38912867884E+03  0.24793050458E+03 -0.41055385228E+03  0.61761244273E+03  0.00000000000E+00 0.  1.
         22    1    1    2    0    0  0.10191641034E+04 -0.62144118749E+03  0.10173706605E+04  0.15684156592E+04  0.00000000000E+00 0.  1.
<mgrwt>
<rscale>  0 0.32624932E+04</rscale>
<asrwt>0</asrwt>
<pdfrwt beam="1">  1        2 0.26596485E+00 0.32624932E+04</pdfrwt>
<pdfrwt beam="2">  1       -2 0.23680359E+00 0.32624932E+04</pdfrwt>
<totfact> 0.61401796E-01</totfact>
</mgrwt>
</event>
<event>
 6    1  0.1568961E-005  0.1446357E+04  0.7818608E-02  0.8920930E-01
         -1   -1    0    0    0  501 -0.00000000000E+00  0.00000000000E+00  0.12336496967E+04  0.12336496967E+04  0.00000000000E+00 0.  1.
          1   -1    0    0  501    0  0.00000000000E+00 -0.00000000000E+00 -0.42393509577E+03  0.42393509577E+03  0.00000000000E+00 0. -1.
         23    2    1    2    0    0  0.34296356981E+03  0.62900887860E+03  0.31984831475E+03  0.78968781822E+03  0.89597579364E+02 0.  0.
         13    1    3    3    0    0  0.26712034066E+03  0.50413782930E+03  0.29216001238E+03  0.64098806553E+03  0.00000000000E+00 0. -1.
        -13    1    3    3    0    0  0.75843229148E+02  0.12487104930E+03  0.27688302369E+02  0.14869975269E+03  0.00000000000E+00 0.  1.
         22    1    1    2    0    0 -0.34296356981E+03 -0.62900887860E+03  0.48986628621E+03  0.86789697426E+03  0.00000000000E+00 0. -1.
<mgrwt>
<rscale>  0 0.14463574E+04</rscale>
<asrwt>0</asrwt>
<pdfrwt beam="1">  1        1 0.65220784E-01 0.14463574E+04</pdfrwt>
<pdfrwt beam="2">  1       -1 0.18979226E+00 0.14463574E+04</pdfrwt>
<totfact> 0.95584464E+00</totfact>
</mgrwt>
</event>
<event>
 6    1  0.1568961E-005  0.2629018E+04  0.7818608E-02  0.8358411E-01
         -1   -1    0    0    0  501 -0.00000000000E+00  0.00000000000E+00  0.96172310799E+03  0.96172310799E+03  0.00000000000E+00 0.  1.
          1   -1    0    0  501    0  0.00000000000E+00 -0.00000000000E+00 -0.17967057705E+04  0.17967057705E+04  0.00000000000E+00 0. -1.
         23    2    1    2    0    0  0.24613319400E+03  0.13701682000E+03 -0.17634763341E+04  0.17881425000E+04  0.90827647152E+02 0.  0.
         11    1    3    3    0    0  0.19573836353E+03  0.11035770699E+03 -0.15831800392E+04  0.15990470183E+04  0.00000000000E+00 0. -1.
        -11    1    3    3    0    0  0.50394830468E+02  0.26659113007E+02 -0.18029629489E+03  0.18909548169E+03  0.00000000000E+00 0.  1.
         22    1    1    2    0    0 -0.24613319400E+03 -0.13701682000E+03  0.92849367154E+03  0.97028637847E+03  0.00000000000E+00 0.  1.
<mgrwt>
<rscale>  0 0.26290177E+04</rscale>
<asrwt>0</asrwt>
<pdfrwt beam="1">  1        1 0.27641627E+00 0.26290177E+04</pdfrwt>
<pdfrwt beam="2">  1       -1 0.14795740E+00 0.26290177E+04</pdfrwt>
<totfact> 0.13023633E+00</totfact>
</mgrwt>
</event>
<event>
 6    1  0.1568961E-005  0.4438655E+04  0.7818608E-02  0.7921465E-01
         -2   -1    0    0    0  501 -0.00000000000E+00  0.00000000000E+00  0.17617793917E+04  0.17617793917E+04  0.00000000000E+00 0.  1.
          2   -1    0    0  501    0  0.00000000000E+00 -0.00000000000E+00 -0.27957039427E+04  0.27957039427E+04  0.00000000000E+00 0. -1.
         23    2    1    2    0    0 -0.18691347319E+04 -0.54407770759E+03  0.57507841227E+03  0.20318990983E+04  0.90628734355E+02 0.  0.
         11    1    3    3    0    0 -0.61327667263E+03 -0.20683135903E+03  0.15691558834E+03  0.66596545716E+03  0.00000000000E+00 0.  1.
        -11    1    3    3    0    0 -0.12558580593E+04 -0.33724634856E+03  0.41816282394E+03  0.13659336412E+04  0.00000000000E+00 0. -1.
         22    1    1    2    0    0  0.18691347319E+04  0.54407770759E+03 -0.16090029633E+04  0.25255842361E+04  0.00000000000E+00 0. -1.
<mgrwt>
<rscale>  0 0.44386546E+04</rscale>
<asrwt>0</asrwt>
<pdfrwt beam="1">  1        2 0.43010830E+00 0.44386546E+04</pdfrwt>
<pdfrwt beam="2">  1       -2 0.27104298E+00 0.44386546E+04</pdfrwt>
<totfact> 0.84585735E-02</totfact>
</mgrwt>
</event>
<event>
 6    1  0.1568961E-005  0.2212625E+04  0.7818608E-02  0.8513192E-01
         -1   -1    0    0    0  501 -0.00000000000E+00  0.00000000000E+00  0.44191480285E+03  0.44191480285E+03  0.00000000000E+00 0.  1.
          1   -1    0    0  501    0  0.00000000000E+00 -0.00000000000E+00 -0.27696004927E+04  0.27696004927E+04  0.00000000000E+00 0. -1.
         23    2    1    2    0    0  0.38051516656E+03  0.89303159945E+03 -0.40118523000E+03  0.10542713939E+04  0.90781900869E+02 0.  0.
         13    1    3    3    0    0  0.28353704680E+03  0.60038222514E+03 -0.23713656937E+03  0.70504313748E+03  0.00000000000E+00 0. -1.
        -13    1    3    3    0    0  0.96978119762E+02  0.29264937432E+03 -0.16404866062E+03  0.34922825638E+03  0.00000000000E+00 0.  1.
         22    1    1    2    0    0 -0.38051516656E+03 -0.89303159945E+03 -0.19265004599E+04  0.21572439017E+04  0.00000000000E+00 0. -1.
<mgrwt>
<rscale>  0 0.22126251E+04</rscale>
<asrwt>0</asrwt>
<pdfrwt beam="1">  1        1 0.42609239E+00 0.22126251E+04</pdfrwt>
<pdfrwt beam="2">  1       -1 0.67986892E-01 0.22126251E+04</pdfrwt>
<totfact> 0.17481404E+00</totfact>
</mgrwt>
</event>
<event>
 6    1  0.1568961E-005  0.3721429E+04  0.7818608E-02  0.8063229E-01
         -2   -1    0    0    0  501 -0.00000000000E+00  0.00000000000E+00  0.13920669913E+04  0.13920669913E+04  0.00000000000E+00 0.  1.
          2   -1    0    0  501    0  0.00000000000E+00 -0.00000000000E+00 -0.24871351049E+04  0.24871351049E+04  0.00000000000E+00 0. -1.
         23    2    1    2    0    0 -0.14306195229E+04  0.44762246152E+03 -0.16949950028E+04  0.22645967699E+04  0.91391375199E+02 0.  0.
         11    1    3    3    0    0 -0.13372030164E+04  0.41618728466E+03 -0.16150437792E+04  0.21376833656E+04  0.00000000000E+00 0. -1.
        -11    1    3    3    0    0 -0.93416506548E+02  0.31435176861E+02 -0.79951223598E+02  0.12691340431E+03  0.00000000000E+00 0.  1.
         22    1    1    2    0    0  0.14306195229E+04 -0.44762246152E+03  0.59992688921E+03  0.16146053263E+04  0.00000000000E+00 0.  1.
<mgrwt>
<rscale>  0 0.37214291E+04</rscale>
<asrwt>0</asrwt>
<pdfrwt beam="1">  1        2 0.38263617E+00 0.37214291E+04</pdfrwt>
<pdfrwt beam="2">  1       -2 0.21416415E+00 0.37214291E+04</pdfrwt>
<totfact> 0.30768662E-01</totfact>
</mgrwt>
</event>
<event>
 6    1  0.1568961E-005  0.4787948E+04  0.7818608E-02  0.7862077E-01
          1   -1    0    0  501    0  0.00000000000E+00  0.00000000000E+00  0.24510188071E+04  0.24510188071E+04  0.00000000000E+00 0. -1.
         -1   -1    0    0    0  501 -0.00000000000E+00 -0.00000000000E+00 -0.23382573145E+04  0.23382573145E+04  0.00000000000E+00 0.  1.
         23    2    1    2    0    0 -0.83034424004E+03 -0.11627086637E+03  0.22984261419E+04  0.24483104169E+04  0.92036386755E+02 0.  0.
         11    1    3    3    0    0 -0.42906948979E+03 -0.70201662539E+02  0.13213003142E+04  0.13909936811E+04  0.00000000000E+00 0.  1.
        -11    1    3    3    0    0 -0.40127475025E+03 -0.46069203832E+02  0.97712582769E+03  0.10573167358E+04  0.00000000000E+00 0. -1.
         22    1    1    2    0    0  0.83034424004E+03  0.11627086637E+03 -0.21856646493E+04  0.23409657047E+04  0.00000000000E+00 0.  1.
<mgrwt>
<rscale>  0 0.47879485E+04</rscale>
<asrwt>0</asrwt>
<pdfrwt beam="1">  1        1 0.37707982E+00 0.47879485E+04</pdfrwt>
<pdfrwt beam="2">  1       -1 0.35973190E+00 0.47879485E+04</pdfrwt>
<totfact> 0.14397622E-02</totfact>
</mgrwt>
</event>
<event>
 6    1  0.1568961E-005  0.9635665E+03  0.7818608E-02  0.9349433E-01
          1   -1    0    0  501    0  0.00000000000E+00  0.00000000000E+00  0.11732571650E+04  0.11732571650E+04  0.00000000000E+00 0. -1.
         -1   -1    0    0    0  501 -0.00000000000E+00 -0.00000000000E+00 -0.19783820264E+03  0.19783820264E+03  0.00000000000E+00 0.  1.
         23    2    1    2    0    0 -0.29208827447E+03  0.37647272868E+03  0.53621904792E+03  0.72306462734E+03  0.90798196258E+02 0.  0.
         13    1    3    3    0    0 -0.79402573717E+02  0.14664088808E+03  0.23824333934E+03  0.29080613389E+03  0.00000000000E+00 0.  1.
        -13    1    3    3    0    0 -0.21268570075E+03  0.22983184060E+03  0.29797570858E+03  0.43225849345E+03  0.00000000000E+00 0. -1.
         22    1    1    2    0    0  0.29208827447E+03 -0.37647272868E+03  0.43919991442E+03  0.64803074028E+03  0.00000000000E+00 0.  1.
<mgrwt>
<rscale>  0 0.96356648E+03</rscale>
<asrwt>0</asrwt>
<pdfrwt beam="1">  1        1 0.18050110E+00 0.96356648E+03</pdfrwt>
<pdfrwt beam="2">  1       -1 0.30436647E-01 0.96356648E+03</pdfrwt>
<totfact> 0.11159951E+02</totfact>
</mgrwt>
</event>
<event>
 6    1  0.1568961E-005  0.1324478E+04  0.7818608E-02  0.9010376E-01
         -1   -1    0    0    0  501 -0.00000000000E+00  0.00000000000E+00  0.19931183055E+03  0.19931183055E+03  0.00000000000E+00 0.  1.
          1   -1    0    0  501    0  0.00000000000E+00 -0.00000000000E+00 -0.22003728309E+04  0.22003728309E+04  0.00000000000E+00 0. -1.
         23    2    1    2    0    0 -0.30070242773E+03 -0.58561409311E+03 -0.10635863683E+04  0.12541609813E+04  0.91312584216E+02 0.  0.
         13    1    3    3    0    0 -0.22409129781E+03 -0.50955171882E+03 -0.89123238691E+03  0.10507878146E+04  0.00000000000E+00 0. -1.
        -13    1    3    3    0    0 -0.76611129915E+02 -0.76062374289E+02 -0.17235398142E+03  0.20337316667E+03  0.00000000000E+00 0.  1.
         22    1    1    2    0    0  0.30070242773E+03  0.58561409311E+03 -0.93747463204E+03  0.11455236802E+04  0.00000000000E+00 0. -1.
<mgrwt>
<rscale>  0 0.13244778E+04</rscale>
<asrwt>0</asrwt>
<pdfrwt beam="1">  1        1 0.33851888E+00 0.13244778E+04</pdfrwt>
<pdfrwt beam="2">  1       -1 0.30663360E-01 0.13244778E+04</pdfrwt>
<totfact> 0.21012019E+01</totfact>
</mgrwt>
</event>
<event>
 6    1  0.1568961E-005  0.1289346E+04  0.7818608E-02  0.9038057E-01
          2   -1    0    0  501    0  0.00000000000E+00  0.00000000000E+00  0.44553140252E+03  0.44553140252E+03  0.00000000000E+00 0. -1.
         -2   -1    0    0    0  501 -0.00000000000E+00 -0.00000000000E+00 -0.93282527856E+03  0.93282527856E+03  0.00000000000E+00 0.  1.
         23    2    1    2    0    0 -0.18431688317E+03  0.33249428781E+03  0.30762965608E+03  0.49720482881E+03  0.89729992985E+02 0.  0.
         13    1    3    3    0    0 -0.50230814751E+02  0.15469212824E+03  0.90259411198E+02  0.18600954437E+03  0.00000000000E+00 0. -1.
        -13    1    3    3    0    0 -0.13408606841E+03  0.17780215958E+03  0.21737024488E+03  0.31119528443E+03  0.00000000000E+00 0.  1.
         22    1    1    2    0    0  0.18431688317E+03 -0.33249428781E+03 -0.79492353212E+03  0.88115185227E+03  0.00000000000E+00 0.  1.
<mgrwt>
<rscale>  0 0.12893455E+04</rscale>
<asrwt>0</asrwt>
<pdfrwt beam="1">  1        2 0.68543293E-01 0.12893455E+04</pdfrwt>
<pdfrwt beam="2">  1       -2 0.14351158E+00 0.12893455E+04</pdfrwt>
<totfact> 0.23210847E+01</totfact>
</mgrwt>
</event>
<event>
 6    1  0.1568961E-005  0.5421398E+03  0.7818608E-02  0.1003330E+00
         -1   -1    0    0    0  501 -0.00000000000E+00  0.00000000000E+00  0.76140166417E+02  0.76140166417E+02  0.00000000000E+00 0.  1.
          1   -1    0    0  501    0  0.00000000000E+00 -0.00000000000E+00 -0.96504780387E+03  0.96504780387E+03  0.00000000000E+00 0. -1.
         23    2    1    2    0    0 -0.13021994096E+03 -0.11690821587E+03 -0.79612968862E+02  0.21318880086E+03  0.92122071411E+02 0.  0.
         13    1    3    3    0    0  0.50403790477E+01 -0.43419246481E+02 -0.20713908831E+02  0.48370470382E+02  0.00000000000E+00 0. -1.
        -13    1    3    3    0    0 -0.13526032000E+03 -0.73488969389E+02 -0.58899060031E+02  0.16481833048E+03  0.00000000000E+00 0.  1.
         22    1    1    2    0    0  0.13021994096E+03  0.11690821587E+03 -0.80929466860E+03  0.82799916943E+03  0.00000000000E+00 0. -1.
<mgrwt>
<rscale>  0 0.54213984E+03</rscale>
<asrwt>0</asrwt>
<pdfrwt beam="1">  1        1 0.14846890E+00 0.54213984E+03</pdfrwt>
<pdfrwt beam="2">  1       -1 0.11713871E-01 0.54213984E+03</pdfrwt>
<totfact> 0.80176853E+02</totfact>
</mgrwt>
</event>
<event>
 6    1  0.1568961E-005  0.1291309E+04  0.7818608E-02  0.9036486E-01
          2   -1    0    0  501    0  0.00000000000E+00  0.00000000000E+00  0.17977308919E+04  0.17977308919E+04  0.00000000000E+00 0. -1.
         -2   -1    0    0    0  501 -0.00000000000E+00 -0.00000000000E+00 -0.23188662238E+03  0.23188662238E+03  0.00000000000E+00 0.  1.
         23    2    1    2    0    0 -0.15783873635E+03  0.46876527961E+03  0.14311847554E+04  0.15169898338E+04  0.91183318491E+02 0.  0.
         11    1    3    3    0    0 -0.12917660688E+03  0.34407689390E+03  0.11660775962E+04  0.12226252349E+04  0.00000000000E+00 0. -1.
        -11    1    3    3    0    0 -0.28662129473E+02  0.12468838571E+03  0.26510715928E+03  0.29436459892E+03  0.00000000000E+00 0.  1.
         22    1    1    2    0    0  0.15783873635E+03 -0.46876527961E+03  0.13465951408E+03  0.51262768048E+03  0.00000000000E+00 0.  1.
<mgrwt>
<rscale>  0 0.12913090E+04</rscale>
<asrwt>0</asrwt>
<pdfrwt beam="1">  1        2 0.27657397E+00 0.12913090E+04</pdfrwt>
<pdfrwt beam="2">  1       -2 0.35674866E-01 0.12913090E+04</pdfrwt>
<totfact> 0.62686027E+01</totfact>
</mgrwt>
</event>
<event>
 6    1  0.1568961E-005  0.2657333E+04  0.7818608E-02  0.8348983E-01
         -2   -1    0    0    0  501 -0.00000000000E+00  0.00000000000E+00  0.57094422426E+03  0.57094422426E+03  0.00000000000E+00 0.  1.
          2   -1    0    0  501    0  0.00000000000E+00 -0.00000000000E+00 -0.30919921256E+04  0.30919921256E+04  0.00000000000E+00 0. -1.
         23    2    1    2    0    0  0.10678595699E+03 -0.12381679189E+04 -0.62053179048E+03  0.13921601558E+04  0.92666933083E+02 0.  0.
         13    1    3    3    0    0  0.83903798191E+02 -0.88335210290E+03 -0.39629135118E+03  0.97180122457E+03  0.00000000000E+00 0. -1.
        -13    1    3    3    0    0  0.22882158802E+02 -0.35481581595E+03 -0.22424043931E+03  0.42035893123E+03  0.00000000000E+00 0.  1.
         22    1    1    2    0    0 -0.10678595699E+03  0.12381679189E+04 -0.19005161109E+04  0.22707761941E+04  0.00000000000E+00 0.  1.
<mgrwt>
<rscale>  0 0.26573333E+04</rscale>
<asrwt>0</asrwt>
<pdfrwt beam="1">  1        2 0.47569110E+00 0.26573333E+04</pdfrwt>
<pdfrwt beam="2">  1       -2 0.87837572E-01 0.26573333E+04</pdfrwt>
<totfact> 0.14981055E+00</totfact>
</mgrwt>
</event>
<event>
 6    1  0.1568961E-005  0.3023401E+04  0.7818608E-02  0.8237080E-01
          2   -1    0    0  501    0  0.00000000000E+00  0.00000000000E+00  0.13314123234E+04  0.13314123234E+04  0.00000000000E+00 0. -1.
         -2   -1    0    0    0  501 -0.00000000000E+00 -0.00000000000E+00 -0.17164014188E+04  0.17164014188E+04  0.00000000000E+00 0.  1.
         23    2    1    2    0    0  0.44634258912E+03  0.10255218371E+04  0.83055489632E+03  0.13960074760E+04  0.89992734148E+02 0.  0.
         13    1    3    3    0    0  0.39591823971E+03  0.90508296085E+03  0.76760087538E+03  0.12510545641E+04  0.00000000000E+00 0.  1.
        -13    1    3    3    0    0  0.50424349414E+02  0.12043887622E+03  0.62954020938E+02  0.14495291191E+03  0.00000000000E+00 0. -1.
         22    1    1    2    0    0 -0.44634258912E+03 -0.10255218371E+04 -0.12155439918E+04  0.16518062662E+04  0.00000000000E+00 0.  1.
<mgrwt>
<rscale>  0 0.30234007E+04</rscale>
<asrwt>0</asrwt>
<pdfrwt beam="1">  1        2 0.20483267E+00 0.30234007E+04</pdfrwt>
<pdfrwt beam="2">  1       -2 0.26406176E+00 0.30234007E+04</pdfrwt>
<totfact> 0.71352604E-01</totfact>
</mgrwt>
</event>
<event>
 6    1  0.1568961E-005  0.2497357E+04  0.7818608E-02  0.8403928E-01
          2   -1    0    0  501    0  0.00000000000E+00  0.00000000000E+00  0.18298506688E+04  0.18298506688E+04  0.00000000000E+00 0.  1.
         -2   -1    0    0    0  501 -0.00000000000E+00 -0.00000000000E+00 -0.85209049400E+03  0.85209049400E+03  0.00000000000E+00 0. -1.
         23    2    1    2    0    0 -0.46174785763E+03 -0.10045955692E+04  0.11090397734E+04  0.15685420094E+04  0.89058826480E+02 0.  0.
         11    1    3    3    0    0 -0.36100366253E+03 -0.73729442588E+03  0.86873166321E+03  0.11952495210E+04  0.00000000000E+00 0. -1.
        -11    1    3    3    0    0 -0.10074419510E+03 -0.26730114335E+03  0.24030811020E+03  0.37329248842E+03  0.00000000000E+00 0.  1.
         22    1    1    2    0    0  0.46174785763E+03  0.10045955692E+04 -0.13127959860E+03  0.11133991534E+04  0.00000000000E+00 0. -1.
<mgrwt>
<rscale>  0 0.24973573E+04</rscale>
<asrwt>0</asrwt>
<pdfrwt beam="1">  1        2 0.28151549E+00 0.24973573E+04</pdfrwt>
<pdfrwt beam="2">  1       -2 0.13109085E+00 0.24973573E+04</pdfrwt>
<totfact> 0.31506951E+00</totfact>
</mgrwt>
</event>
<event>
 6    1  0.1568961E-005  0.1668372E+04  0.7818608E-02  0.8779611E-01
          2   -1    0    0  501    0  0.00000000000E+00  0.00000000000E+00  0.88410128972E+03  0.88410128972E+03  0.00000000000E+00 0. -1.
         -2   -1    0    0    0  501 -0.00000000000E+00 -0.00000000000E+00 -0.78708931637E+03  0.78708931637E+03  0.00000000000E+00 0.  1.
         23    2    1    2    0    0 -0.81681083629E+03 -0.15489125554E+03  0.67114747789E+02  0.83928611192E+03  0.93410625549E+02 0.  0.
         13    1    3    3    0    0 -0.32547775371E+03 -0.10824368991E+03  0.32068373884E+02  0.34450086382E+03  0.00000000000E+00 0. -1.
        -13    1    3    3    0    0 -0.49133308258E+03 -0.46647565624E+02  0.35046373905E+02  0.49478524810E+03  0.00000000000E+00 0.  1.
         22    1    1    2    0    0  0.81681083629E+03  0.15489125554E+03  0.29897225561E+02  0.83190449417E+03  0.00000000000E+00 0. -1.
<mgrwt>
<rscale>  0 0.16683725E+04</rscale>
<asrwt>0</asrwt>
<pdfrwt beam="1">  1        2 0.13601558E+00 0.16683725E+04</pdfrwt>
<pdfrwt beam="2">  1       -2 0.12109066E+00 0.16683725E+04</pdfrwt>
<totfact> 0.14887284E+01</totfact>
</mgrwt>
</event>
<event>
 6    1  0.1568961E-005  0.4334153E+04  0.7818608E-02  0.7940333E-01
          2   -1    0    0  501    0  0.00000000000E+00  0.00000000000E+00  0.10718142644E+04  0.10718142644E+04  0.00000000000E+00 0. -1.
         -2   -1    0    0    0  501 -0.00000000000E+00 -0.00000000000E+00 -0.43815620697E+04  0.43815620697E+04  0.00000000000E+00 0.  1.
         23    2    1    2    0    0  0.10956844182E+04  0.64499020608E+03  0.55102245126E+03  0.13886397271E+04  0.90320759824E+02 0.  0.
         13    1    3    3    0    0  0.67671468080E+03  0.43077970540E+03  0.38355539217E+03  0.88917301616E+03  0.00000000000E+00 0.  1.
        -13    1    3    3    0    0  0.41896973742E+03  0.21421050067E+03  0.16746705909E+03  0.49946671096E+03  0.00000000000E+00 0. -1.
         22    1    1    2    0    0 -0.10956844182E+04 -0.64499020608E+03 -0.38607702566E+04  0.40647366070E+04  0.00000000000E+00 0.  1.
<mgrwt>
<rscale>  0 0.43341531E+04</rscale>
<asrwt>0</asrwt>
<pdfrwt beam="1">  1        2 0.16489450E+00 0.43341531E+04</pdfrwt>
<pdfrwt beam="2">  1       -2 0.67408646E+00 0.43341531E+04</pdfrwt>
<totfact> 0.48775051E-03</totfact>
</mgrwt>
</event>
<event>
 6    1  0.1568961E-005  0.1181126E+04  0.7818608E-02  0.9129539E-01
          2   -1    0    0  501    0  0.00000000000E+00  0.00000000000E+00  0.19089856768E+04  0.19089856768E+04  0.00000000000E+00 0. -1.
         -2   -1    0    0    0  501 -0.00000000000E+00 -0.00000000000E+00 -0.18269642958E+03  0.18269642958E+03  0.00000000000E+00 0.  1.
         23    2    1    2    0    0  0.23754473936E+03 -0.45916780236E+03  0.13607887673E+04  0.14585524398E+04  0.91468991337E+02 0.  0.
         13    1    3    3    0    0  0.94391803018E+02 -0.96524180801E+02  0.33643698002E+03  0.36251423624E+03  0.00000000000E+00 0. -1.
        -13    1    3    3    0    0  0.14315293634E+03 -0.36264362156E+03  0.10243517873E+04  0.10960382035E+04  0.00000000000E+00 0.  1.
         22    1    1    2    0    0 -0.23754473936E+03  0.45916780236E+03  0.36550047987E+03  0.63312966659E+03  0.00000000000E+00 0.  1.
<mgrwt>
<rscale>  0 0.11811264E+04</rscale>
<asrwt>0</asrwt>
<pdfrwt beam="1">  1        2 0.29369009E+00 0.11811264E+04</pdfrwt>
<pdfrwt beam="2">  1       -2 0.28107144E-01 0.11811264E+04</pdfrwt>
<totfact> 0.85917139E+01</totfact>
</mgrwt>
</event>
<event>
 6    1  0.1568961E-005  0.4395631E+04  0.7818608E-02  0.7929168E-01
          1   -1    0    0  501    0  0.00000000000E+00  0.00000000000E+00  0.26488837075E+04  0.26488837075E+04  0.00000000000E+00 0. -1.
         -1   -1    0    0    0  501 -0.00000000000E+00 -0.00000000000E+00 -0.18235579440E+04  0.18235579440E+04  0.00000000000E+00 0.  1.
         23    2    1    2    0    0  0.61223108587E+03  0.18183966427E+04 -0.67587249494E+03  0.20362582710E+04  0.90282136550E+02 0.  0.
         13    1    3    3    0    0  0.48799875196E+02  0.15644475625E+03 -0.84859846124E+02  0.18454696709E+03  0.00000000000E+00 0.  1.
        -13    1    3    3    0    0  0.56343121068E+03  0.16619518864E+04 -0.59101264881E+03  0.18517113039E+04  0.00000000000E+00 0. -1.
         22    1    1    2    0    0 -0.61223108587E+03 -0.18183966427E+04  0.15011982584E+04  0.24361833806E+04  0.00000000000E+00 0. -1.
<mgrwt>
<rscale>  0 0.43956310E+04</rscale>
<asrwt>0</asrwt>
<pdfrwt beam="1">  1        1 0.40752057E+00 0.43956310E+04</pdfrwt>
<pdfrwt beam="2">  1       -1 0.28054738E+00 0.43956310E+04</pdfrwt>
<totfact> 0.35671626E-02</totfact>
</mgrwt>
</event>
<event>
 6    1  0.1568961E-005  0.4552678E+04  0.7818608E-02  0.7901479E-01
          2   -1    0    0  501    0  0.00000000000E+00  0.00000000000E+00  0.21866673757E+04  0.21866673757E+04  0.00000000000E+00 0.  1.
         -2   -1    0    0    0  501 -0.00000000000E+00 -0.00000000000E+00 -0.23696883391E+04  0.23696883391E+04  0.00000000000E+00 0. -1.
         23    2    1    2    0    0  0.43438687301E+03  0.19483928036E+04 -0.11845497254E+04  0.23229756903E+04  0.90175015362E+02 0.  0.
         13    1    3    3    0    0  0.22670164940E+03  0.81835394779E+03 -0.49061182149E+03  0.98071238448E+03  0.00000000000E+00 0.  1.
        -13    1    3    3    0    0  0.20768522361E+03  0.11300388558E+04 -0.69393790396E+03  0.13422633058E+04  0.00000000000E+00 0. -1.
         22    1    1    2    0    0 -0.43438687301E+03 -0.19483928036E+04  0.10015287621E+04  0.22333800245E+04  0.00000000000E+00 0.  1.
<mgrwt>
<rscale>  0 0.45526784E+04</rscale>
<asrwt>0</asrwt>
<pdfrwt beam="1">  1        2 0.33641037E+00 0.45526784E+04</pdfrwt>
<pdfrwt beam="2">  1       -2 0.36456744E+00 0.45526784E+04</pdfrwt>
<totfact> 0.49852401E-02</totfact>
</mgrwt>
</event>
<event>
 6    1  0.1568961E-005  0.4161421E+04  0.7818608E-02  0.7972752E-01
         -1   -1    0    0    0  501 -0.00000000000E+00  0.00000000000E+00  0.17820946643E+04  0.17820946643E+04  0.00000000000E+00 0.  1.
          1   -1    0    0  501    0  0.00000000000E+00 -0.00000000000E+00 -0.24293633015E+04  0.24293633015E+04  0.00000000000E+00 0. -1.
         23    2    1    2    0    0 -0.15555768209E+03 -0.19242023507E+04 -0.11063705960E+04  0.22271375563E+04  0.96607038573E+02 0.  0.
         11    1    3    3    0    0 -0.84760079768E+02 -0.13491615369E+04 -0.81675783596E+03  0.15794032058E+04  0.00000000000E+00 0. -1.
        -11    1    3    3    0    0 -0.70797602321E+02 -0.57504081384E+03 -0.28961276003E+03  0.64773435053E+03  0.00000000000E+00 0.  1.
         22    1    1    2    0    0  0.15555768209E+03  0.19242023507E+04  0.45910195887E+03  0.19843204095E+04  0.00000000000E+00 0.  1.
<mgrwt>
<rscale>  0 0.41614206E+04</rscale>
<asrwt>0</asrwt>
<pdfrwt beam="1">  1        1 0.37374820E+00 0.41614206E+04</pdfrwt>
<pdfrwt beam="2">  1       -1 0.27416841E+00 0.41614206E+04</pdfrwt>
<totfact> 0.56865317E-02</totfact>
</mgrwt>
</event>
<event>
 6    1  0.1568961E-005  0.1226089E+04  0.7818608E-02  0.9090322E-01
          2   -1    0    0  501    0  0.00000000000E+00  0.00000000000E+00  0.61766467643E+03  0.61766467643E+03  0.00000000000E+00 0. -1.
         -2   -1    0    0    0  501 -0.00000000000E+00 -0.00000000000E+00 -0.60845894745E+03  0.60845894745E+03  0.00000000000E+00 0.  1.
         23    2    1    2    0    0 -0.10964831159E+01 -0.52636112420E+03  0.31225892435E+03  0.61875349410E+03  0.91065994105E+02 0.  0.
         13    1    3    3    0    0 -0.11005115006E+02 -0.19609800806E+03  0.67947826903E+02  0.20782793004E+03  0.00000000000E+00 0.  1.
        -13    1    3    3    0    0  0.99086318899E+01 -0.33026311613E+03  0.24431109744E+03  0.41092556406E+03  0.00000000000E+00 0. -1.
         22    1    1    2    0    0  0.10964831159E+01  0.52636112420E+03 -0.30305319536E+03  0.60737012979E+03  0.00000000000E+00 0.  1.
<mgrwt>
<rscale>  0 0.12260891E+04</rscale>
<asrwt>0</asrwt>
<pdfrwt beam="1">  1        2 0.95025336E-01 0.12260891E+04</pdfrwt>
<pdfrwt beam="2">  1       -2 0.93609068E-01 0.12260891E+04</pdfrwt>
<totfact> 0.45511071E+01</totfact>
</mgrwt>
</event>
<event>
 6    1  0.1568961E-005  0.3626110E+04  0.7818608E-02  0.8084537E-01
         -1   -1    0    0    0  501 -0.00000000000E+00  0.00000000000E+00  0.22151056330E+04  0.22151056330E+04  0.00000000000E+00 0.  1.
          1   -1    0    0  501    0  0.00000000000E+00 -0.00000000000E+00 -0.14839783523E+04  0.14839783523E+04  0.00000000000E+00 0. -1.
         23    2    1    2    0    0 -0.77865688396E+03 -0.88516486572E+01 -0.13031601652E+04  0.15208483904E+04  0.91479592886E+02 0.  0.
         11    1    3    3    0    0 -0.55810694750E+03 -0.38908245665E+01 -0.10100952226E+04  0.11540324355E+04  0.00000000000E+00 0. -1.
        -11    1    3    3    0    0 -0.22054993646E+03 -0.49608240907E+01 -0.29306494258E+03  0.36681595497E+03  0.00000000000E+00 0.  1.
         22    1    1    2    0    0  0.77865688396E+03  0.88516486572E+01  0.20342874458E+04  0.21782355949E+04  0.00000000000E+00 0.  1.
<mgrwt>
<rscale>  0 0.36261102E+04</rscale>
<asrwt>0</asrwt>
<pdfrwt beam="1">  1        1 0.22830436E+00 0.36261102E+04</pdfrwt>
<pdfrwt beam="2">  1       -1 0.34078548E+00 0.36261102E+04</pdfrwt>
<totfact> 0.96834714E-02</totfact>
</mgrwt>
</event>
<event>
 6    1  0.1568961E-005  0.3684936E+04  0.7818608E-02  0.8071308E-01
         -1   -1    0    0    0  501 -0.00000000000E+00  0.00000000000E+00  0.13061192415E+04  0.13061192415E+04  0.00000000000E+00 0. -1.
          1   -1    0    0  501    0  0.00000000000E+00 -0.00000000000E+00 -0.25990651202E+04  0.25990651202E+04  0.00000000000E+00 0.  1.
         23    2    1    2    0    0  0.17301161438E+04  0.33304404802E+03 -0.12140646975E+04  0.21415397122E+04  0.89549094872E+02 0.  0.
         11    1    3    3    0    0  0.72860580819E+03  0.18531399050E+03 -0.51954345875E+03  0.91385617267E+03  0.00000000000E+00 0. -1.
        -11    1    3    3    0    0  0.10015103356E+04  0.14773005751E+03 -0.69452123878E+03  0.12276835395E+04  0.00000000000E+00 0.  1.
         22    1    1    2    0    0 -0.17301161438E+04 -0.33304404802E+03 -0.78881181139E+02  0.17636446494E+04  0.00000000000E+00 0. -1.
<mgrwt>
<rscale>  0 0.36849363E+04</rscale>
<asrwt>0</asrwt>
<pdfrwt beam="1">  1        1 0.39985617E+00 0.36849363E+04</pdfrwt>
<pdfrwt beam="2">  1       -1 0.20094142E+00 0.36849363E+04</pdfrwt>
<totfact> 0.13761981E-01</totfact>
</mgrwt>
</event>
<event>
 6    1  0.1568961E-005  0.2137888E+04  0.7818608E-02  0.8544735E-01
          2   -1    0    0  501    0  0.00000000000E+00  0.00000000000E+00  0.18611164764E+04  0.18611164764E+04  0.00000000000E+00 0. -1.
         -2   -1    0    0    0  501 -0.00000000000E+00 -0.00000000000E+00 -0.61395468401E+03  0.61395468401E+03  0.00000000000E+00 0.  1.
         23    2    1    2    0    0  0.45915888449E+03  0.54276032721E+03  0.15457870353E+04  0.17039727946E+04  0.93005764615E+02 0.  0.
         11    1    3    3    0    0  0.14340669088E+03  0.18209363034E+03  0.61009846827E+03  0.65264363184E+03  0.00000000000E+00 0. -1.
        -11    1    3    3    0    0  0.31575219362E+03  0.36066669687E+03  0.93568856701E+03  0.10513291627E+04  0.00000000000E+00 0.  1.
         22    1    1    2    0    0 -0.45915888449E+03 -0.54276032721E+03 -0.29862524292E+03  0.77109836578E+03  0.00000000000E+00 0.  1.
<mgrwt>
<rscale>  0 0.21378879E+04</rscale>
<asrwt>0</asrwt>
<pdfrwt beam="1">  1        2 0.28632561E+00 0.21378879E+04</pdfrwt>
<pdfrwt beam="2">  1       -2 0.94454568E-01 0.21378879E+04</pdfrwt>
<totfact> 0.69254691E+00</totfact>
</mgrwt>
</event>
<event>
 6    1  0.1568961E-005  0.8702387E+03  0.7818608E-02  0.9463569E-01
         -1   -1    0    0    0  501 -0.00000000000E+00  0.00000000000E+00  0.17444416757E+03  0.17444416757E+03  0.00000000000E+00 0.  1.
          1   -1    0    0  501    0  0.00000000000E+00 -0.00000000000E+00 -0.10853264107E+04  0.10853264107E+04  0.00000000000E+00 0. -1.
         23    2    1    2    0    0  0.17401760004E+03  0.33181941860E+03 -0.76671282195E+03  0.85830940498E+03  0.91979517606E+02 0.  0.
         13    1    3    3    0    0  0.50834704499E+02  0.19011128642E+03 -0.35775873502E+03  0.40831088754E+03  0.00000000000E+00 0.  1.
        -13    1    3    3    0    0  0.12318289554E+03  0.14170813218E+03 -0.40895408693E+03  0.44999851744E+03  0.00000000000E+00 0. -1.
         22    1    1    2    0    0 -0.17401760004E+03 -0.33181941860E+03 -0.14416942122E+03  0.40146117334E+03  0.00000000000E+00 0.  1.
<mgrwt>
<rscale>  0 0.87023873E+03</rscale>
<asrwt>0</asrwt>
<pdfrwt beam="1">  1        1 0.16697329E+00 0.87023873E+03</pdfrwt>
<pdfrwt beam="2">  1       -1 0.26837565E-01 0.87023873E+03</pdfrwt>
<totfact> 0.16241786E+02</totfact>
</mgrwt>
</event>
<event>
 6    1  0.1568961E-005  0.5065721E+04  0.7818608E-02  0.7818448E-01
         -2   -1    0    0    0  501 -0.00000000000E+00  0.00000000000E+00  0.16700646546E+04  0.16700646546E+04  0.00000000000E+00 0.  1.
          2   -1    0    0  501    0  0.00000000000E+00 -0.00000000000E+00 -0.38413970356E+04  0.38413970356E+04  0.00000000000E+00 0. -1.
         23    2    1    2    0    0  0.95240926764E+03  0.93408183927E+03  0.12554855713E+04  0.18341428879E+04  0.90795471994E+02 0.  0.
         13    1    3    3    0    0  0.51616466783E+03  0.51710225204E+03  0.74837669447E+03  0.10458911895E+04  0.00000000000E+00 0.  1.
        -13    1    3    3    0    0  0.43624459981E+03  0.41697958723E+03  0.50710887686E+03  0.78825169840E+03  0.00000000000E+00 0. -1.
         22    1    1    2    0    0 -0.95240926764E+03 -0.93408183927E+03 -0.34268179523E+04  0.36773188023E+04  0.00000000000E+00 0. -1.
<mgrwt>
<rscale>  0 0.50657206E+04</rscale>
<asrwt>0</asrwt>
<pdfrwt beam="1">  1        2 0.59098415E+00 0.50657206E+04</pdfrwt>
<pdfrwt beam="2">  1       -2 0.25693303E+00 0.50657206E+04</pdfrwt>
<totfact> 0.19192731E-02</totfact>
</mgrwt>
</event>
<event>
 6    1  0.1568961E-005  0.9265219E+03  0.7818608E-02  0.9393022E-01
         -2   -1    0    0    0  501 -0.00000000000E+00  0.00000000000E+00  0.61618624928E+02  0.61618624928E+02  0.00000000000E+00 0.  1.
          2   -1    0    0  501    0  0.00000000000E+00 -0.00000000000E+00 -0.34828870159E+04  0.34828870159E+04  0.00000000000E+00 0. -1.
         23    2    1    2    0    0 -0.69231515032E+02  0.43730963297E+03 -0.21835612447E+04  0.22299898754E+04  0.94246575829E+02 0.  0.
         13    1    3    3    0    0 -0.89820543637E+02  0.28099772793E+03 -0.14162001858E+04  0.14465996058E+04  0.00000000000E+00 0. -1.
        -13    1    3    3    0    0  0.20589028605E+02  0.15631190504E+03 -0.76736105893E+03  0.78339026961E+03  0.00000000000E+00 0.  1.
         22    1    1    2    0    0  0.69231515032E+02 -0.43730963297E+03 -0.12377071463E+04  0.13145157655E+04  0.00000000000E+00 0.  1.
<mgrwt>
<rscale>  0 0.92652190E+03</rscale>
<asrwt>0</asrwt>
<pdfrwt beam="1">  1        2 0.53582904E+00 0.92652190E+03</pdfrwt>
<pdfrwt beam="2">  1       -2 0.94797836E-02 0.92652190E+03</pdfrwt>
<totfact> 0.65713475E+01</totfact>
</mgrwt>
</event>
<event>
 6    1  0.1568961E-005  0.2433560E+04  0.7818608E-02  0.8427045E-01
         -2   -1    0    0    0  501 -0.00000000000E+00  0.00000000000E+00  0.20247485518E+04  0.20247485518E+04  0.00000000000E+00 0.  1.
          2   -1    0    0  501    0  0.00000000000E+00 -0.00000000000E+00 -0.73122864403E+03  0.73122864403E+03  0.00000000000E+00 0. -1.
         23    2    1    2    0    0 -0.28971996950E+03 -0.56008165493E+03  0.18239968442E+04  0.19319414557E+04  0.88341268189E+02 0.  0.
         11    1    3    3    0    0 -0.12445393588E+03 -0.15614964013E+03  0.61294116343E+03  0.64464591994E+03  0.00000000000E+00 0. -1.
        -11    1    3    3    0    0 -0.16526603362E+03 -0.40393201480E+03  0.12110556808E+04  0.12872955358E+04  0.00000000000E+00 0.  1.
         22    1    1    2    0    0  0.28971996950E+03  0.56008165493E+03 -0.53047693644E+03  0.82403574013E+03  0.00000000000E+00 0. -1.
<mgrwt>
<rscale>  0 0.24335605E+04</rscale>
<asrwt>0</asrwt>
<pdfrwt beam="1">  1        2 0.11249672E+00 0.24335605E+04</pdfrwt>
<pdfrwt beam="2">  1       -2 0.31149977E+00 0.24335605E+04</pdfrwt>
<totfact> 0.93909576E-01</totfact>
</mgrwt>
</event>
<event>
 6    1  0.1568961E-005  0.5425596E+04  0.7818608E-02  0.7766011E-01
         -2   -1    0    0    0  501 -0.00000000000E+00  0.00000000000E+00  0.27746402083E+04  0.27746402083E+04  0.00000000000E+00 0. -1.
          2   -1    0    0  501    0  0.00000000000E+00 -0.00000000000E+00 -0.26523340248E+04  0.26523340248E+04  0.00000000000E+00 0.  1.
         23    2    1    2    0    0 -0.21549455017E+04 -0.94522218453E+03  0.14097745663E+04  0.27446599469E+04  0.91971751212E+02 0.  0.
         11    1    3    3    0    0 -0.12974466848E+04 -0.61313749469E+03  0.83623790686E+03  0.16609031652E+04  0.00000000000E+00 0. -1.
        -11    1    3    3    0    0 -0.85749881687E+03 -0.33208468984E+03  0.57353665942E+03  0.10837567817E+04  0.00000000000E+00 0.  1.
         22    1    1    2    0    0  0.21549455017E+04  0.94522218453E+03 -0.12874683827E+04  0.26823142862E+04  0.00000000000E+00 0.  1.
<mgrwt>
<rscale>  0 0.54255959E+04</rscale>
<asrwt>0</asrwt>
<pdfrwt beam="1">  1        2 0.40805139E+00 0.54255959E+04</pdfrwt>
<pdfrwt beam="2">  1       -2 0.42686773E+00 0.54255959E+04</pdfrwt>
<totfact> 0.98749392E-03</totfact>
</mgrwt>
</event>
<event>
 6    1  0.1568961E-005  0.6145713E+03  0.7818608E-02  0.9875628E-01
         -1   -1    0    0    0  501 -0.00000000000E+00  0.00000000000E+00  0.17201557100E+03  0.17201557100E+03  0.00000000000E+00 0.  1.
          1   -1    0    0  501    0  0.00000000000E+00 -0.00000000000E+00 -0.54892979362E+03  0.54892979362E+03  0.00000000000E+00 0. -1.
         23    2    1    2    0    0 -0.17446635999E+03 -0.23706919840E+03 -0.12340486469E+03  0.33247746356E+03  0.93124580792E+02 0.  0.
         13    1    3    3    0    0 -0.12763479691E+03 -0.22756205113E+03 -0.10266566951E+03  0.28038432230E+03  0.00000000000E+00 0. -1.
        -13    1    3    3    0    0 -0.46831563078E+02 -0.95071472742E+01 -0.20739195176E+02  0.52093141259E+02  0.00000000000E+00 0.  1.
         22    1    1    2    0    0  0.17446635999E+03  0.23706919840E+03 -0.25350935792E+03  0.38846790106E+03  0.00000000000E+00 0. -1.
<mgrwt>
<rscale>  0 0.61457130E+03</rscale>
<asrwt>0</asrwt>
<pdfrwt beam="1">  1        1 0.84450736E-01 0.61457130E+03</pdfrwt>
<pdfrwt beam="2">  1       -1 0.26463935E-01 0.61457130E+03</pdfrwt>
<totfact> 0.49901473E+02</totfact>
</mgrwt>
</event>
<event>
 6    1  0.1765196E-005  0.2252444E+04  0.7818608E-02  0.8496912E-01
          1   -1    0    0  501    0  0.00000000000E+00  0.00000000000E+00  0.12845493640E+04  0.12845493640E+04  0.00000000000E+00 0. -1.
         -1   -1    0    0    0  501 -0.00000000000E+00 -0.00000000000E+00 -0.98740897222E+03  0.98740897222E+03  0.00000000000E+00 0.  1.
         23    2    1    2    0    0 -0.84708892771E+03 -0.29485894886E+03  0.83281894284E+03  0.12272320749E+04  0.89497055507E+02 0.  0.
         13    1    3    3    0    0 -0.18281246673E+03 -0.91586967339E+02  0.15422710817E+03  0.25611437187E+03  0.00000000000E+00 0. -1.
        -13    1    3    3    0    0 -0.66427646098E+03 -0.20327198152E+03  0.67859183467E+03  0.97111770304E+03  0.00000000000E+00 0.  1.
         22    1    1    2    0    0  0.84708892771E+03  0.29485894886E+03 -0.53567855102E+03  0.10447262614E+04  0.00000000000E+00 0.  1.
<mgrwt>
<rscale>  0 0.22524436E+04</rscale>
<asrwt>0</asrwt>
<pdfrwt beam="1">  1        1 0.19762298E+00 0.22524436E+04</pdfrwt>
<pdfrwt beam="2">  1       -1 0.15190907E+00 0.22524436E+04</pdfrwt>
<totfact> 0.28396820E+00</totfact>
</mgrwt>
</event>
<event>
 6    1  0.1568961E-005  0.3971459E+04  0.7818608E-02  0.8010329E-01
         -2   -1    0    0    0  501 -0.00000000000E+00  0.00000000000E+00  0.23391319257E+04  0.23391319257E+04  0.00000000000E+00 0. -1.
          2   -1    0    0  501    0  0.00000000000E+00 -0.00000000000E+00 -0.16857201603E+04  0.16857201603E+04  0.00000000000E+00 0.  1.
         23    2    1    2    0    0 -0.14002173898E+04 -0.52291812092E+03  0.16501650224E+04  0.22283084168E+04  0.90893889889E+02 0.  0.
         13    1    3    3    0    0 -0.91215107672E+03 -0.36323512929E+03  0.10267613215E+04  0.14206330129E+04  0.00000000000E+00 0.  1.
        -13    1    3    3    0    0 -0.48806631306E+03 -0.15968299163E+03  0.62340370092E+03  0.80767540391E+03  0.00000000000E+00 0. -1.
         22    1    1    2    0    0  0.14002173898E+04  0.52291812092E+03 -0.99675325700E+03  0.17965436691E+04  0.00000000000E+00 0.  1.
<mgrwt>
<rscale>  0 0.39714591E+04</rscale>
<asrwt>0</asrwt>
<pdfrwt beam="1">  1        2 0.25934156E+00 0.39714591E+04</pdfrwt>
<pdfrwt beam="2">  1       -2 0.35986645E+00 0.39714591E+04</pdfrwt>
<totfact> 0.10637585E-01</totfact>
</mgrwt>
</event>
<event>
 6    1  0.1615858E-005  0.2367805E+04  0.7818608E-02  0.8451656E-01
          2   -1    0    0  501    0  0.00000000000E+00  0.00000000000E+00  0.22472650092E+04  0.22472650092E+04  0.00000000000E+00 0. -1.
         -2   -1    0    0    0  501 -0.00000000000E+00 -0.00000000000E+00 -0.62370282021E+03  0.62370282021E+03  0.00000000000E+00 0.  1.
         23    2    1    2    0    0 -0.10796672089E+04 -0.48028538111E+03  0.77801751266E+03  0.14179361268E+04  0.94214013926E+02 0.  0.
         13    1    3    3    0    0 -0.39754651683E+03 -0.21288986785E+03  0.25871498972E+03  0.51990265895E+03  0.00000000000E+00 0.  1.
        -13    1    3    3    0    0 -0.68212069203E+03 -0.26739551326E+03  0.51930252294E+03  0.89803346783E+03  0.00000000000E+00 0. -1.
         22    1    1    2    0    0  0.10796672089E+04  0.48028538111E+03  0.84554467632E+03  0.14530317026E+04  0.00000000000E+00 0.  1.
<mgrwt>
<rscale>  0 0.23678053E+04</rscale>
<asrwt>0</asrwt>
<pdfrwt beam="1">  1        2 0.34573307E+00 0.23678053E+04</pdfrwt>
<pdfrwt beam="2">  1       -2 0.95954281E-01 0.23678053E+04</pdfrwt>
<totfact> 0.39858711E+00</totfact>
</mgrwt>
</event>
<event>
 6    1  0.1568961E-005  0.2918227E+04  0.7818608E-02  0.8267475E-01
         -2   -1    0    0    0  501 -0.00000000000E+00  0.00000000000E+00  0.20504980509E+04  0.20504980509E+04  0.00000000000E+00 0. -1.
          2   -1    0    0  501    0  0.00000000000E+00 -0.00000000000E+00 -0.10382905546E+04  0.10382905546E+04  0.00000000000E+00 0.  1.
         23    2    1    2    0    0  0.74307844139E+03 -0.61056583493E+03  0.16660156082E+04  0.19258521257E+04  0.91335613192E+02 0.  0.
         11    1    3    3    0    0  0.68998980512E+03 -0.54101254686E+03  0.15459708654E+04  0.17773031322E+04  0.00000000000E+00 0. -1.
        -11    1    3    3    0    0  0.53088636278E+02 -0.69553288066E+02  0.12004474281E+03  0.14854899346E+03  0.00000000000E+00 0.  1.
         22    1    1    2    0    0 -0.74307844139E+03  0.61056583493E+03 -0.65380811200E+03  0.11629364798E+04  0.00000000000E+00 0.  1.
<mgrwt>
<rscale>  0 0.29182274E+04</rscale>
<asrwt>0</asrwt>
<pdfrwt beam="1">  1        2 0.15973701E+00 0.29182274E+04</pdfrwt>
<pdfrwt beam="2">  1       -2 0.31546124E+00 0.29182274E+04</pdfrwt>
<totfact> 0.52400665E-01</totfact>
</mgrwt>
</event>
<event>
 6    1  0.1568961E-005  0.2033218E+04  0.7818608E-02  0.8591246E-01
          2   -1    0    0  501    0  0.00000000000E+00  0.00000000000E+00  0.15928334918E+04  0.15928334918E+04  0.00000000000E+00 0. -1.
         -2   -1    0    0    0  501 -0.00000000000E+00 -0.00000000000E+00 -0.64883956767E+03  0.64883956767E+03  0.00000000000E+00 0.  1.
         23    2    1    2    0    0 -0.51929736110E+03 -0.84534331564E+03  0.70702811040E+03  0.12216593990E+04  0.91037727441E+02 0.  0.
         11    1    3    3    0    0 -0.36737198260E+03 -0.57246838531E+03  0.43435847905E+03  0.80706227399E+03  0.00000000000E+00 0.  1.
        -11    1    3    3    0    0 -0.15192537850E+03 -0.27287493033E+03  0.27266963135E+03  0.41459712505E+03  0.00000000000E+00 0. -1.
         22    1    1    2    0    0  0.51929736110E+03  0.84534331564E+03  0.23696581371E+03  0.10200136604E+04  0.00000000000E+00 0.  1.
<mgrwt>
<rscale>  0 0.20332175E+04</rscale>
<asrwt>0</asrwt>
<pdfrwt beam="1">  1        2 0.24505130E+00 0.20332175E+04</pdfrwt>
<pdfrwt beam="2">  1       -2 0.99821473E-01 0.20332175E+04</pdfrwt>
<totfact> 0.86516900E+00</totfact>
</mgrwt>
</event>
<event>
 6    1  0.1568961E-005  0.3810309E+04  0.7818608E-02  0.8043946E-01
         -2   -1    0    0    0  501 -0.00000000000E+00  0.00000000000E+00  0.45113536418E+04  0.45113536418E+04  0.00000000000E+00 0.  1.
          2   -1    0    0  501    0  0.00000000000E+00 -0.00000000000E+00 -0.80455083303E+03  0.80455083303E+03  0.00000000000E+00 0. -1.
         23    2    1    2    0    0  0.12499858261E+04  0.78563585387E+03  0.17663472168E+03  0.14894472383E+04  0.86976953384E+02 0.  0.
         11    1    3    3    0    0  0.61521163347E+03  0.34676768807E+03  0.56897822340E+02  0.70849879720E+03  0.00000000000E+00 0.  1.
        -11    1    3    3    0    0  0.63477419258E+03  0.43886816580E+03  0.11973689934E+03  0.78094844105E+03  0.00000000000E+00 0. -1.
         22    1    1    2    0    0 -0.12499858261E+04 -0.78563585387E+03  0.35301680871E+04  0.38264572366E+04  0.00000000000E+00 0.  1.
<mgrwt>
<rscale>  0 0.38103088E+04</rscale>
<asrwt>0</asrwt>
<pdfrwt beam="1">  1        2 0.12377705E+00 0.38103088E+04</pdfrwt>
<pdfrwt beam="2">  1       -2 0.69405439E+00 0.38103088E+04</pdfrwt>
<totfact> 0.65250446E-03</totfact>
</mgrwt>
</event>
<event>
 6    1  0.1568961E-005  0.9595048E+03  0.7818608E-02  0.9354109E-01
          2   -1    0    0  501    0  0.00000000000E+00  0.00000000000E+00  0.19569728160E+04  0.19569728160E+04  0.00000000000E+00 0. -1.
         -2   -1    0    0    0  501 -0.00000000000E+00 -0.00000000000E+00 -0.11761143070E+03  0.11761143070E+03  0.00000000000E+00 0.  1.
         23    2    1    2    0    0  0.26489122687E+03  0.17789727911E+03  0.16898906327E+04  0.17222260343E+04  0.92289536783E+02 0.  0.
         11    1    3    3    0    0  0.19596230498E+03  0.17524970565E+03  0.13669142842E+04  0.13919656406E+04  0.00000000000E+00 0. -1.
        -11    1    3    3    0    0  0.68928921887E+02  0.26475734544E+01  0.32297634856E+03  0.33026039370E+03  0.00000000000E+00 0.  1.
         22    1    1    2    0    0 -0.26489122687E+03 -0.17789727911E+03  0.14947075257E+03  0.35235821242E+03  0.00000000000E+00 0.  1.
<mgrwt>
<rscale>  0 0.95950482E+03</rscale>
<asrwt>0</asrwt>
<pdfrwt beam="1">  1        2 0.30107272E+00 0.95950482E+03</pdfrwt>
<pdfrwt beam="2">  1       -2 0.18094068E-01 0.95950482E+03</pdfrwt>
<totfact> 0.18054154E+02</totfact>
</mgrwt>
</event>
<event>
 6    1  0.1568961E-005  0.1325316E+04  0.7818608E-02  0.9009727E-01
          2   -1    0    0  501    0  0.00000000000E+00  0.00000000000E+00  0.11225068013E+04  0.11225068013E+04  0.00000000000E+00 0. -1.
         -2   -1    0    0    0  501 -0.00000000000E+00 -0.00000000000E+00 -0.39119184414E+03  0.39119184414E+03  0.00000000000E+00 0.  1.
         23    2    1    2    0    0 -0.57644730739E+02  0.45798576404E+03  0.90515587117E+03  0.10204496836E+04  0.94533224408E+02 0.  0.
         13    1    3    3    0    0 -0.56118416570E+02  0.19454888408E+03  0.31930849421E+03  0.37809583369E+03  0.00000000000E+00 0.  1.
        -13    1    3    3    0    0 -0.15263141687E+01  0.26343687996E+03  0.58584737696E+03  0.64235384987E+03  0.00000000000E+00 0. -1.
         22    1    1    2    0    0  0.57644730739E+02 -0.45798576404E+03 -0.17384091399E+03  0.49324896190E+03  0.00000000000E+00 0.  1.
<mgrwt>
<rscale>  0 0.13253158E+04</rscale>
<asrwt>0</asrwt>
<pdfrwt beam="1">  1        2 0.17269335E+00 0.13253158E+04</pdfrwt>
<pdfrwt beam="2">  1       -2 0.60183361E-01 0.13253158E+04</pdfrwt>
<totfact> 0.53133711E+01</totfact>
</mgrwt>
</event>
<event>
 6    1  0.1568961E-005  0.7328240E+03  0.7818608E-02  0.9662689E-01
         -2   -1    0    0    0  501 -0.00000000000E+00  0.00000000000E+00  0.23382096097E+03  0.23382096097E+03  0.00000000000E+00 0. -1.
          2   -1    0    0  501    0  0.00000000000E+00 -0.00000000000E+00 -0.57419046736E+03  0.57419046736E+03  0.00000000000E+00 0.  1.
         23    2    1    2    0    0 -0.21062466539E+03 -0.13224676323E+03  0.11463364508E+03  0.28947519633E+03  0.93824627095E+02 0.  0.
         13    1    3    3    0    0 -0.17161616828E+03 -0.13475029613E+03  0.67831967806E+02  0.22849710584E+03  0.00000000000E+00 0.  1.
        -13    1    3    3    0    0 -0.39008497118E+02  0.25035328998E+01  0.46801677272E+02  0.60978090491E+02  0.00000000000E+00 0. -1.
         22    1    1    2    0    0  0.21062466539E+03  0.13224676323E+03 -0.45500315146E+03  0.51853623200E+03  0.00000000000E+00 0.  1.
<mgrwt>
<rscale>  0 0.73282404E+03</rscale>
<asrwt>0</asrwt>
<pdfrwt beam="1">  1        2 0.88336994E-01 0.73282404E+03</pdfrwt>
<pdfrwt beam="2">  1       -2 0.35972456E-01 0.73282404E+03</pdfrwt>
<totfact> 0.38268730E+02</totfact>
</mgrwt>
</event>
<event>
 6    1  0.1568961E-005  0.5453115E+04  0.7818608E-02  0.7762174E-01
          1   -1    0    0  501    0  0.00000000000E+00  0.00000000000E+00  0.28134135661E+04  0.28134135661E+04  0.00000000000E+00 0. -1.
         -1   -1    0    0    0  501 -0.00000000000E+00 -0.00000000000E+00 -0.26423826535E+04  0.26423826535E+04  0.00000000000E+00 0.  1.
         23    2    1    2    0    0 -0.56071431842E+03 -0.26310457497E+04  0.52502919075E+03  0.27424740742E+04  0.93306551304E+02 0.  0.
         11    1    3    3    0    0 -0.21726574694E+03 -0.11907338680E+04  0.26639046466E+03  0.12393608953E+04  0.00000000000E+00 0. -1.
        -11    1    3    3    0    0 -0.34344857149E+03 -0.14403118817E+04  0.25863872608E+03  0.15031131789E+04  0.00000000000E+00 0.  1.
         22    1    1    2    0    0  0.56071431842E+03  0.26310457497E+04 -0.35399827811E+03  0.27133221454E+04  0.00000000000E+00 0. -1.
<mgrwt>
<rscale>  0 0.54531148E+04</rscale>
<asrwt>0</asrwt>
<pdfrwt beam="1">  1        1 0.43283286E+00 0.54531148E+04</pdfrwt>
<pdfrwt beam="2">  1       -1 0.40652040E+00 0.54531148E+04</pdfrwt>
<totfact> 0.36694371E-03</totfact>
</mgrwt>
</event>
<event>
 6    1  0.1568961E-005  0.4430227E+03  0.7818608E-02  0.1029823E+00
          4   -1    0    0  501    0  0.00000000000E+00  0.00000000000E+00  0.12239250286E+03  0.12239250286E+03  0.00000000000E+00 0. -1.
         -4   -1    0    0    0  501 -0.00000000000E+00 -0.00000000000E+00 -0.40090102204E+03  0.40090102204E+03  0.00000000000E+00 0.  1.
         23    2    1    2    0    0 -0.48270563702E+02  0.20535489463E+03 -0.17170219128E+03  0.28684422432E+03  0.91089442119E+02 0.  0.
         11    1    3    3    0    0  0.11981600486E+01  0.63777841283E+02 -0.10466687765E+03  0.12257325933E+03  0.00000000000E+00 0.  1.
        -11    1    3    3    0    0 -0.49468723750E+02  0.14157705335E+03 -0.67035313631E+02  0.16427096499E+03  0.00000000000E+00 0. -1.
         22    1    1    2    0    0  0.48270563702E+02 -0.20535489463E+03 -0.10680632790E+03  0.23644930058E+03  0.00000000000E+00 0. -1.
<mgrwt>
<rscale>  0 0.44302271E+03</rscale>
<asrwt>0</asrwt>
<pdfrwt beam="1">  1        4 0.18829616E-01 0.44302271E+03</pdfrwt>
<pdfrwt beam="2">  1       -4 0.61677080E-01 0.44302271E+03</pdfrwt>
<totfact> 0.12275551E+02</totfact>
</mgrwt>
</event>
<event>
 6    1  0.1568961E-005  0.2821755E+04  0.7818608E-02  0.8296546E-01
          2   -1    0    0  501    0  0.00000000000E+00  0.00000000000E+00  0.32966922983E+04  0.32966922983E+04  0.00000000000E+00 0. -1.
         -2   -1    0    0    0  501 -0.00000000000E+00 -0.00000000000E+00 -0.60380968964E+03  0.60380968964E+03  0.00000000000E+00 0.  1.
         23    2    1    2    0    0  0.11511729400E+03  0.13358131518E+04  0.74780202242E+03  0.15380906658E+04  0.94160838644E+02 0.  0.
         11    1    3    3    0    0 -0.32428455460E+01  0.42131863523E+03  0.25620820912E+03  0.49311515375E+03  0.00000000000E+00 0. -1.
        -11    1    3    3    0    0  0.11836013954E+03  0.91449451660E+03  0.49159381330E+03  0.10449755121E+04  0.00000000000E+00 0.  1.
         22    1    1    2    0    0 -0.11511729400E+03 -0.13358131518E+04  0.19450805863E+04  0.23624113222E+04  0.00000000000E+00 0.  1.
<mgrwt>
<rscale>  0 0.28217546E+04</rscale>
<asrwt>0</asrwt>
<pdfrwt beam="1">  1        2 0.50718342E+00 0.28217546E+04</pdfrwt>
<pdfrwt beam="2">  1       -2 0.92893801E-01 0.28217546E+04</pdfrwt>
<totfact> 0.95461553E-01</totfact>
</mgrwt>
</event>
<event>
 6    1  0.1568961E-005  0.3819736E+04  0.7818608E-02  0.8041933E-01
         -2   -1    0    0    0  501 -0.00000000000E+00  0.00000000000E+00  0.13087064690E+04  0.13087064690E+04  0.00000000000E+00 0.  1.
          2   -1    0    0  501    0  0.00000000000E+00 -0.00000000000E+00 -0.27871767298E+04  0.27871767298E+04  0.00000000000E+00 0. -1.
         23    2    1    2    0    0 -0.50886574371E+03  0.17891552345E+04 -0.11989288646E+04  0.22148823506E+04  0.90843857902E+02 0.  0.
         13    1    3    3    0    0 -0.44477475749E+03  0.16182185401E+04 -0.11073635508E+04  0.20106491146E+04  0.00000000000E+00 0. -1.
        -13    1    3    3    0    0 -0.64090986220E+02  0.17093669442E+03 -0.91565313795E+02  0.20423323604E+03  0.00000000000E+00 0.  1.
         22    1    1    2    0    0  0.50886574371E+03 -0.17891552345E+04 -0.27954139621E+03  0.18810008481E+04  0.00000000000E+00 0. -1.
<mgrwt>
<rscale>  0 0.38197362E+04</rscale>
<asrwt>0</asrwt>
<pdfrwt beam="1">  1        2 0.42879642E+00 0.38197362E+04</pdfrwt>
<pdfrwt beam="2">  1       -2 0.20133946E+00 0.38197362E+04</pdfrwt>
<totfact> 0.24553922E-01</totfact>
</mgrwt>
</event>
<event>
 6    1  0.1568961E-005  0.6763717E+03  0.7818608E-02  0.9758515E-01
         -1   -1    0    0    0  501 -0.00000000000E+00  0.00000000000E+00  0.25037819984E+03  0.25037819984E+03  0.00000000000E+00 0.  1.
          1   -1    0    0  501    0  0.00000000000E+00 -0.00000000000E+00 -0.45678765456E+03  0.45678765456E+03  0.00000000000E+00 0. -1.
         23    2    1    2    0    0 -0.15233399160E+03 -0.13189678794E+03  0.17087798982E+03  0.27944138297E+03  0.91026322804E+02 0.  0.
         13    1    3    3    0    0 -0.11181058593E+03 -0.42206833718E+02  0.11695924388E+03  0.16721988120E+03  0.00000000000E+00 0. -1.
        -13    1    3    3    0    0 -0.40523405671E+02 -0.89689954224E+02  0.53918745939E+02  0.11222150177E+03  0.00000000000E+00 0.  1.
         22    1    1    2    0    0  0.15233399160E+03  0.13189678794E+03 -0.37728744453E+03  0.42772447144E+03  0.00000000000E+00 0. -1.
<mgrwt>
<rscale>  0 0.67637170E+03</rscale>
<asrwt>0</asrwt>
<pdfrwt beam="1">  1        1 0.70275024E-01 0.67637170E+03</pdfrwt>
<pdfrwt beam="2">  1       -1 0.38519723E-01 0.67637170E+03</pdfrwt>
<totfact> 0.33151816E+02</totfact>
</mgrwt>
</event>
<event>
 6    1  0.1568961E-005  0.3935613E+04  0.7818608E-02  0.8017663E-01
         -2   -1    0    0    0  501 -0.00000000000E+00  0.00000000000E+00  0.13902650396E+04  0.13902650396E+04  0.00000000000E+00 0.  1.
          2   -1    0    0  501    0  0.00000000000E+00 -0.00000000000E+00 -0.27852690017E+04  0.27852690017E+04  0.00000000000E+00 0. -1.
         23    2    1    2    0    0 -0.18657604630E+04  0.31058014863E+03 -0.12556988086E+03  0.18975996654E+04  0.87146780289E+02 0.  0.
         13    1    3    3    0    0 -0.12336668938E+04  0.24613290736E+03 -0.92127023763E+02  0.12613495953E+04  0.00000000000E+00 0. -1.
        -13    1    3    3    0    0 -0.63209356916E+03  0.64447241273E+02 -0.33442857100E+02  0.63625007015E+03  0.00000000000E+00 0.  1.
         22    1    1    2    0    0  0.18657604630E+04 -0.31058014863E+03 -0.12694340813E+04  0.22779343758E+04  0.00000000000E+00 0.  1.
<mgrwt>
<rscale>  0 0.39356128E+04</rscale>
<asrwt>0</asrwt>
<pdfrwt beam="1">  1        2 0.42850292E+00 0.39356128E+04</pdfrwt>
<pdfrwt beam="2">  1       -2 0.21388693E+00 0.39356128E+04</pdfrwt>
<totfact> 0.20229514E-01</totfact>
</mgrwt>
</event>
<event>
 6    1  0.1568961E-005  0.1310936E+04  0.7818608E-02  0.9020938E-01
         -1   -1    0    0    0  501 -0.00000000000E+00  0.00000000000E+00  0.71675306463E+03  0.71675306463E+03  0.00000000000E+00 0.  1.
          1   -1    0    0  501    0  0.00000000000E+00 -0.00000000000E+00 -0.59942277788E+03  0.59942277788E+03  0.00000000000E+00 0. -1.
         23    2    1    2    0    0  0.34302269950E+02  0.62890618380E+03 -0.11205168695E+03  0.64586567280E+03  0.88810207799E+02 0.  0.
         13    1    3    3    0    0  0.39031710332E+02  0.28888745305E+03 -0.13515611265E+02  0.29182547299E+03  0.00000000000E+00 0. -1.
        -13    1    3    3    0    0 -0.47294403819E+01  0.34001873075E+03 -0.98536075688E+02  0.35404019981E+03  0.00000000000E+00 0.  1.
         22    1    1    2    0    0 -0.34302269950E+02 -0.62890618380E+03  0.22938197371E+03  0.67031016970E+03  0.00000000000E+00 0.  1.
<mgrwt>
<rscale>  0 0.13109357E+04</rscale>
<asrwt>0</asrwt>
<pdfrwt beam="1">  1        1 0.92218889E-01 0.13109357E+04</pdfrwt>
<pdfrwt beam="2">  1       -1 0.11026970E+00 0.13109357E+04</pdfrwt>
<totfact> 0.25559210E+01</totfact>
</mgrwt>
</event>
<event>
 6    1  0.1568961E-005  0.2390155E+04  0.7818608E-02  0.8443198E-01
         -4   -1    0    0    0  501 -0.00000000000E+00  0.00000000000E+00  0.10287412123E+04  0.10287412123E+04  0.00000000000E+00 0.  1.
          4   -1    0    0  501    0  0.00000000000E+00 -0.00000000000E+00 -0.13883089027E+04  0.13883089027E+04  0.00000000000E+00 0. -1.
         23    2    1    2    0    0 -0.72617726478E+03 -0.82373369888E+03 -0.65235466507E+03  0.12805665739E+04  0.91725212315E+02 0.  0.
         11    1    3    3    0    0 -0.39635611035E+03 -0.40018353739E+03 -0.29661523843E+03  0.63657334965E+03  0.00000000000E+00 0. -1.
        -11    1    3    3    0    0 -0.32982115443E+03 -0.42355016149E+03 -0.35573942664E+03  0.64399322425E+03  0.00000000000E+00 0.  1.
         22    1    1    2    0    0  0.72617726478E+03  0.82373369888E+03  0.29278697467E+03  0.11364835411E+04  0.00000000000E+00 0.  1.
<mgrwt>
<rscale>  0 0.23901553E+04</rscale>
<asrwt>0</asrwt>
<pdfrwt beam="1">  1        4 0.21358598E+00 0.23901553E+04</pdfrwt>
<pdfrwt beam="2">  1       -4 0.15826788E+00 0.23901553E+04</pdfrwt>
<totfact> 0.49670121E-02</totfact>
</mgrwt>
</event>
<event>
 6    1  0.1568961E-005  0.1149438E+04  0.7818608E-02  0.9158302E-01
          2   -1    0    0  501    0  0.00000000000E+00  0.00000000000E+00  0.48776944927E+03  0.48776944927E+03  0.00000000000E+00 0. -1.
         -2   -1    0    0    0  501 -0.00000000000E+00 -0.00000000000E+00 -0.67716866632E+03  0.67716866632E+03  0.00000000000E+00 0.  1.
         23    2    1    2    0    0 -0.18526783887E+03 -0.45794626448E+03  0.19548673542E+03  0.53869842531E+03  0.89117767216E+02 0.  0.
         11    1    3    3    0    0 -0.14093645284E+03 -0.27570032876E+03  0.15726300060E+03  0.34728289099E+03  0.00000000000E+00 0.  1.
        -11    1    3    3    0    0 -0.44331386029E+02 -0.18224593573E+03  0.38223734821E+02  0.19141553432E+03  0.00000000000E+00 0. -1.
         22    1    1    2    0    0  0.18526783887E+03  0.45794626448E+03 -0.38488595247E+03  0.62623969028E+03  0.00000000000E+00 0.  1.
<mgrwt>
<rscale>  0 0.11494384E+04</rscale>
<asrwt>0</asrwt>
<pdfrwt beam="1">  1        2 0.75041454E-01 0.11494384E+04</pdfrwt>
<pdfrwt beam="2">  1       -2 0.10417980E+00 0.11494384E+04</pdfrwt>
<totfact> 0.47000827E+01</totfact>
</mgrwt>
</event>
<event>
 6    1  0.1568961E-005  0.1295737E+04  0.7818608E-02  0.9032953E-01
         -2   -1    0    0    0  501 -0.00000000000E+00  0.00000000000E+00  0.22913200233E+03  0.22913200233E+03  0.00000000000E+00 0.  1.
          2   -1    0    0  501    0  0.00000000000E+00 -0.00000000000E+00 -0.18318417042E+04  0.18318417042E+04  0.00000000000E+00 0. -1.
         23    2    1    2    0    0  0.11681457302E+03 -0.18077197034E+03 -0.17719163433E+04  0.17871945304E+04  0.89736346969E+02 0.  0.
         11    1    3    3    0    0  0.41082640142E+02 -0.11543952410E+03 -0.70201523727E+03  0.71262855710E+03  0.00000000000E+00 0. -1.
        -11    1    3    3    0    0  0.75731932876E+02 -0.65332446240E+02 -0.10699011061E+04  0.10745659733E+04  0.00000000000E+00 0.  1.
         22    1    1    2    0    0 -0.11681457302E+03  0.18077197034E+03  0.16920664151E+03  0.27377917609E+03  0.00000000000E+00 0.  1.
<mgrwt>
<rscale>  0 0.12957369E+04</rscale>
<asrwt>0</asrwt>
<pdfrwt beam="1">  1        2 0.28182181E+00 0.12957369E+04</pdfrwt>
<pdfrwt beam="2">  1       -2 0.35251076E-01 0.12957369E+04</pdfrwt>
<totfact> 0.61392194E+01</totfact>
</mgrwt>
</event>
<event>
 6    1  0.1568961E-005  0.6203866E+03  0.7818608E-02  0.9863990E-01
         -2   -1    0    0    0  501 -0.00000000000E+00  0.00000000000E+00  0.19453052800E+03  0.19453052800E+03  0.00000000000E+00 0.  1.
          2   -1    0    0  501    0  0.00000000000E+00 -0.00000000000E+00 -0.49462615462E+03  0.49462615462E+03  0.00000000000E+00 0. -1.
         23    2    1    2    0    0 -0.36958053837E+01  0.19686669375E+03  0.10347414177E+03  0.24011468899E+03  0.90432360174E+02 0.  0.
         11    1    3    3    0    0 -0.38048813806E+02  0.12235388379E+03  0.90910325362E+02  0.15710783675E+03  0.00000000000E+00 0.  1.
        -11    1    3    3    0    0  0.34353008423E+02  0.74512809960E+02  0.12563816412E+02  0.83006852239E+02  0.00000000000E+00 0. -1.
         22    1    1    2    0    0  0.36958053837E+01 -0.19686669375E+03 -0.40356976839E+03  0.44904199363E+03  0.00000000000E+00 0. -1.
<mgrwt>
<rscale>  0 0.62038661E+03</rscale>
<asrwt>0</asrwt>
<pdfrwt beam="1">  1        2 0.76096333E-01 0.62038661E+03</pdfrwt>
<pdfrwt beam="2">  1       -2 0.29927773E-01 0.62038661E+03</pdfrwt>
<totfact> 0.64598441E+02</totfact>
</mgrwt>
</event>
<event>
 6    1  0.1568961E-005  0.1189356E+04  0.7818608E-02  0.9122224E-01
         -2   -1    0    0    0  501 -0.00000000000E+00  0.00000000000E+00  0.14318460974E+03  0.14318460974E+03  0.00000000000E+00 0. -1.
          2   -1    0    0  501    0  0.00000000000E+00 -0.00000000000E+00 -0.24698327953E+04  0.24698327953E+04  0.00000000000E+00 0.  1.
         23    2    1    2    0    0  0.44704817457E+03  0.37165299377E+03 -0.13973325530E+04  0.15168396991E+04  0.10142184581E+03 0.  0.
         11    1    3    3    0    0  0.19922221635E+03  0.22755983579E+03 -0.76192581570E+03  0.81975845161E+03  0.00000000000E+00 0. -1.
        -11    1    3    3    0    0  0.24782595822E+03  0.14409315798E+03 -0.63540673733E+03  0.69708124748E+03  0.00000000000E+00 0.  1.
         22    1    1    2    0    0 -0.44704817457E+03 -0.37165299377E+03 -0.92931563255E+03  0.10961777060E+04  0.00000000000E+00 0. -1.
<mgrwt>
<rscale>  0 0.11893562E+04</rscale>
<asrwt>0</asrwt>
<pdfrwt beam="1">  1        2 0.37997422E+00 0.11893562E+04</pdfrwt>
<pdfrwt beam="2">  1       -2 0.22028405E-01 0.11893562E+04</pdfrwt>
<totfact> 0.64863587E+01</totfact>
</mgrwt>
</event>
<event>
 6    1  0.1568961E-005  0.1775322E+04  0.7818608E-02  0.8719534E-01
         -1   -1    0    0    0  501 -0.00000000000E+00  0.00000000000E+00  0.52784346306E+03  0.52784346306E+03  0.00000000000E+00 0. -1.
          1   -1    0    0  501    0  0.00000000000E+00 -0.00000000000E+00 -0.14927569959E+04  0.14927569959E+04  0.00000000000E+00 0.  1.
         23    2    1    2    0    0  0.19109029433E+03 -0.86112543206E+03 -0.39741958529E+03  0.97174303738E+03  0.91047754491E+02 0.  0.
         13    1    3    3    0    0  0.28160336223E+02 -0.31398680167E+03 -0.12393500498E+03  0.33873382119E+03  0.00000000000E+00 0.  1.
        -13    1    3    3    0    0  0.16292995810E+03 -0.54713863039E+03 -0.27348458032E+03  0.63300921619E+03  0.00000000000E+00 0. -1.
         22    1    1    2    0    0 -0.19109029433E+03  0.86112543206E+03 -0.56749394757E+03  0.10488574216E+04  0.00000000000E+00 0. -1.
<mgrwt>
<rscale>  0 0.17753220E+04</rscale>
<asrwt>0</asrwt>
<pdfrwt beam="1">  1        1 0.22965492E+00 0.17753220E+04</pdfrwt>
<pdfrwt beam="2">  1       -1 0.81206689E-01 0.17753220E+04</pdfrwt>
<totfact> 0.94536511E+00</totfact>
</mgrwt>
</event>
<event>
 6    1  0.1568961E-005  0.1244967E+04  0.7818608E-02  0.9074383E-01
          1   -1    0    0  501    0  0.00000000000E+00  0.00000000000E+00  0.78701641080E+03  0.78701641080E+03  0.00000000000E+00 0. -1.
         -1   -1    0    0    0  501 -0.00000000000E+00 -0.00000000000E+00 -0.49234753598E+03  0.49234753598E+03  0.00000000000E+00 0.  1.
         23    2    1    2    0    0 -0.37140885881E+03  0.49409916594E+03  0.11042677715E+03  0.63436497256E+03  0.90256961563E+02 0.  0.
         13    1    3    3    0    0 -0.30158399234E+03  0.41807059752E+03  0.12413516757E+03  0.53023152374E+03  0.00000000000E+00 0.  1.
        -13    1    3    3    0    0 -0.69824866477E+02  0.76028568421E+02 -0.13708390416E+02  0.10413344882E+03  0.00000000000E+00 0. -1.
         22    1    1    2    0    0  0.37140885881E+03 -0.49409916594E+03  0.18424209767E+03  0.64499897422E+03  0.00000000000E+00 0. -1.
<mgrwt>
<rscale>  0 0.12449668E+04</rscale>
<asrwt>0</asrwt>
<pdfrwt beam="1">  1        1 0.12107945E+00 0.12449668E+04</pdfrwt>
<pdfrwt beam="2">  1       -1 0.75745775E-01 0.12449668E+04</pdfrwt>
<totfact> 0.39226016E+01</totfact>
</mgrwt>
</event>
<event>
 6    1  0.1568961E-005  0.1195027E+04  0.7818608E-02  0.9117220E-01
          1   -1    0    0  501    0  0.00000000000E+00  0.00000000000E+00  0.30751372042E+04  0.30751372042E+04  0.00000000000E+00 0. -1.
         -1   -1    0    0    0  501 -0.00000000000E+00 -0.00000000000E+00 -0.11609972367E+03  0.11609972367E+03  0.00000000000E+00 0.  1.
         23    2    1    2    0    0  0.24973882058E+03  0.52863672080E+03  0.17706092030E+04  0.18667792909E+04  0.89340418658E+02 0.  0.
         11    1    3    3    0    0  0.10191289525E+03  0.12375558222E+03  0.46455296312E+03  0.49143782709E+03  0.00000000000E+00 0.  1.
        -11    1    3    3    0    0  0.14782592533E+03  0.40488113858E+03  0.13060562398E+04  0.13753414639E+04  0.00000000000E+00 0. -1.
         22    1    1    2    0    0 -0.24973882058E+03 -0.52863672080E+03  0.11884282776E+04  0.13244576369E+04  0.00000000000E+00 0.  1.
<mgrwt>
<rscale>  0 0.11950273E+04</rscale>
<asrwt>0</asrwt>
<pdfrwt beam="1">  1        1 0.47309797E+00 0.11950273E+04</pdfrwt>
<pdfrwt beam="2">  1       -1 0.17861498E-01 0.11950273E+04</pdfrwt>
<totfact> 0.13062140E+01</totfact>
</mgrwt>
</event>
<event>
 6    1  0.1568961E-005  0.2948480E+04  0.7818608E-02  0.8258598E-01
          2   -1    0    0  501    0  0.00000000000E+00  0.00000000000E+00  0.32210590658E+04  0.32210590658E+04  0.00000000000E+00 0.  1.
         -2   -1    0    0    0  501 -0.00000000000E+00 -0.00000000000E+00 -0.67474211916E+03  0.67474211916E+03  0.00000000000E+00 0. -1.
         23    2    1    2    0    0  0.26029683880E+03 -0.14495054388E+04  0.12467088507E+04  0.19316724559E+04  0.90857342582E+02 0.  0.
         11    1    3    3    0    0  0.16837854756E+03 -0.68457650646E+03  0.60575794595E+03  0.92948319918E+03  0.00000000000E+00 0.  1.
        -11    1    3    3    0    0  0.91918291246E+02 -0.76492893239E+03  0.64095090477E+03  0.10021892567E+04  0.00000000000E+00 0. -1.
         22    1    1    2    0    0 -0.26029683880E+03  0.14495054388E+04  0.12996080959E+04  0.19641287291E+04  0.00000000000E+00 0. -1.
<mgrwt>
<rscale>  0 0.29484804E+04</rscale>
<asrwt>0</asrwt>
<pdfrwt beam="1">  1        2 0.49554754E+00 0.29484804E+04</pdfrwt>
<pdfrwt beam="2">  1       -2 0.10380648E+00 0.29484804E+04</pdfrwt>
<totfact> 0.81538560E-01</totfact>
</mgrwt>
</event>
<event>
 6    1  0.1568961E-005  0.2099836E+04  0.7818608E-02  0.8561316E-01
         -1   -1    0    0    0  501 -0.00000000000E+00  0.00000000000E+00  0.21999742277E+04  0.21999742277E+04  0.00000000000E+00 0.  1.
          1   -1    0    0  501    0  0.00000000000E+00 -0.00000000000E+00 -0.50106383925E+03  0.50106383925E+03  0.00000000000E+00 0. -1.
         23    2    1    2    0    0  0.32851648319E+03  0.14327929478E+03  0.21177318965E+04  0.21497999228E+04  0.91647621116E+02 0.  0.
         11    1    3    3    0    0  0.64946755824E+02  0.20053737985E+02  0.23193652849E+03  0.24169151153E+03  0.00000000000E+00 0.  1.
        -11    1    3    3    0    0  0.26356972737E+03  0.12322555679E+03  0.18857953680E+04  0.19081084112E+04  0.00000000000E+00 0. -1.
         22    1    1    2    0    0 -0.32851648319E+03 -0.14327929478E+03 -0.41882150802E+03  0.55123814420E+03  0.00000000000E+00 0. -1.
<mgrwt>
<rscale>  0 0.20998357E+04</rscale>
<asrwt>0</asrwt>
<pdfrwt beam="1">  1        1 0.77086746E-01 0.20998357E+04</pdfrwt>
<pdfrwt beam="2">  1       -1 0.33845757E+00 0.20998357E+04</pdfrwt>
<totfact> 0.75362254E-01</totfact>
</mgrwt>
</event>
<event>
 6    1  0.1568961E-005  0.2500863E+04  0.7818608E-02  0.8402678E-01
          2   -1    0    0  501    0  0.00000000000E+00  0.00000000000E+00  0.28194302682E+04  0.28194302682E+04  0.00000000000E+00 0. -1.
         -2   -1    0    0    0  501 -0.00000000000E+00 -0.00000000000E+00 -0.55457254490E+03  0.55457254490E+03  0.00000000000E+00 0.  1.
         23    2    1    2    0    0 -0.24454991020E+03  0.12029941359E+04  0.14425693887E+04  0.18964515771E+04  0.92317894559E+02 0.  0.
         11    1    3    3    0    0 -0.21252552744E+03  0.92470712456E+03  0.11591723452E+04  0.14979755979E+04  0.00000000000E+00 0.  1.
        -11    1    3    3    0    0 -0.32024382759E+02  0.27828701134E+03  0.28339704349E+03  0.39847597924E+03  0.00000000000E+00 0. -1.
         22    1    1    2    0    0  0.24454991020E+03 -0.12029941359E+04  0.82228833457E+03  0.14775512359E+04  0.00000000000E+00 0. -1.
<mgrwt>
<rscale>  0 0.25008627E+04</rscale>
<asrwt>0</asrwt>
<pdfrwt beam="1">  1        2 0.43375850E+00 0.25008627E+04</pdfrwt>
<pdfrwt beam="2">  1       -2 0.85318854E-01 0.25008627E+04</pdfrwt>
<totfact> 0.23976509E+00</totfact>
</mgrwt>
</event>
<event>
 6    1  0.1568961E-005  0.5993147E+04  0.7818608E-02  0.7691252E-01
          2   -1    0    0  501    0  0.00000000000E+00  0.00000000000E+00  0.22132373340E+04  0.22132373340E+04  0.00000000000E+00 0. -1.
         -2   -1    0    0    0  501 -0.00000000000E+00 -0.00000000000E+00 -0.40571578399E+04  0.40571578399E+04  0.00000000000E+00 0.  1.
         23    2    1    2    0    0  0.18529108376E+04  0.66044822401E+03 -0.32863354918E+04  0.38311265498E+04  0.89773311251E+02 0.  0.
         13    1    3    3    0    0  0.32750517211E+02  0.57118428623E+01 -0.77922212799E+02  0.84717724084E+02  0.00000000000E+00 0. -1.
        -13    1    3    3    0    0  0.18201603204E+04  0.65473638115E+03 -0.32084132790E+04  0.37464088257E+04  0.00000000000E+00 0.  1.
         22    1    1    2    0    0 -0.18529108376E+04 -0.66044822401E+03  0.14424149859E+04  0.24392686240E+04  0.00000000000E+00 0. -1.
<mgrwt>
<rscale>  0 0.59931472E+04</rscale>
<asrwt>0</asrwt>
<pdfrwt beam="1">  1        2 0.34049805E+00 0.59931472E+04</pdfrwt>
<pdfrwt beam="2">  1       -2 0.62417812E+00 0.59931472E+04</pdfrwt>
<totfact> 0.14395021E-03</totfact>
</mgrwt>
</event>
<event>
 6    1  0.1568961E-005  0.4501757E+04  0.7818608E-02  0.7910329E-01
          1   -1    0    0  501    0  0.00000000000E+00  0.00000000000E+00  0.12436851918E+04  0.12436851918E+04  0.00000000000E+00 0. -1.
         -1   -1    0    0    0  501 -0.00000000000E+00 -0.00000000000E+00 -0.40737434546E+04  0.40737434546E+04  0.00000000000E+00 0.  1.
         23    2    1    2    0    0 -0.57484298887E+02 -0.11439860683E+04 -0.37030470657E+04  0.38772487899E+04  0.92152256309E+02 0.  0.
         13    1    3    3    0    0 -0.69522546446E+02 -0.10470932897E+04 -0.33166935229E+04  0.34787488651E+04  0.00000000000E+00 0.  1.
        -13    1    3    3    0    0  0.12038247559E+02 -0.96892778605E+02 -0.38635354282E+03  0.39849992472E+03  0.00000000000E+00 0. -1.
         22    1    1    2    0    0  0.57484298887E+02  0.11439860683E+04  0.87298880289E+03  0.14401798565E+04  0.00000000000E+00 0. -1.
<mgrwt>
<rscale>  0 0.45017572E+04</rscale>
<asrwt>0</asrwt>
<pdfrwt beam="1">  1        1 0.19133618E+00 0.45017572E+04</pdfrwt>
<pdfrwt beam="2">  1       -1 0.62672977E+00 0.45017572E+04</pdfrwt>
<totfact> 0.26311968E-03</totfact>
</mgrwt>
</event>
<event>
 6    1  0.1568961E-005  0.2118397E+04  0.7818608E-02  0.8553182E-01
          2   -1    0    0  501    0  0.00000000000E+00  0.00000000000E+00  0.71846459208E+03  0.71846459208E+03  0.00000000000E+00 0. -1.
         -2   -1    0    0    0  501 -0.00000000000E+00 -0.00000000000E+00 -0.15615268487E+04  0.15615268487E+04  0.00000000000E+00 0.  1.
         23    2    1    2    0    0  0.41973833026E+03  0.14128992726E+03 -0.14559441356E+04  0.15238384753E+04  0.78531925995E+02 0.  0.
         11    1    3    3    0    0  0.14636602167E+03  0.53510531603E+02 -0.64523036106E+03  0.66378355518E+03  0.00000000000E+00 0. -1.
        -11    1    3    3    0    0  0.27337230860E+03  0.87779395656E+02 -0.81071377455E+03  0.86005492014E+03  0.00000000000E+00 0.  1.
         22    1    1    2    0    0 -0.41973833026E+03 -0.14128992726E+03  0.61288187904E+03  0.75615296541E+03  0.00000000000E+00 0. -1.
<mgrwt>
<rscale>  0 0.21183973E+04</rscale>
<asrwt>0</asrwt>
<pdfrwt beam="1">  1        2 0.11053302E+00 0.21183973E+04</pdfrwt>
<pdfrwt beam="2">  1       -2 0.24023490E+00 0.21183973E+04</pdfrwt>
<totfact> 0.26917876E+00</totfact>
</mgrwt>
</event>
<event>
 6    1  0.1568961E-005  0.5444177E+03  0.7818608E-02  0.1002794E+00
          1   -1    0    0  501    0  0.00000000000E+00  0.00000000000E+00  0.10615426459E+04  0.10615426459E+04  0.00000000000E+00 0. -1.
         -1   -1    0    0    0  501 -0.00000000000E+00 -0.00000000000E+00 -0.69801865452E+02  0.69801865452E+02  0.00000000000E+00 0.  1.
         23    2    1    2    0    0 -0.77328130428E+02  0.24289353187E+03  0.44714314877E+03  0.53004301625E+03  0.12661633389E+03 0.  0.
         13    1    3    3    0    0 -0.48475107479E+02  0.26335015685E+02  0.15995366099E+03  0.16919971265E+03  0.00000000000E+00 0.  1.
        -13    1    3    3    0    0 -0.28853022949E+02  0.21655851618E+03  0.28718948778E+03  0.36084330360E+03  0.00000000000E+00 0. -1.
         22    1    1    2    0    0  0.77328130428E+02 -0.24289353187E+03  0.54459763165E+03  0.60130149507E+03  0.00000000000E+00 0.  1.
<mgrwt>
<rscale>  0 0.54441770E+03</rscale>
<asrwt>0</asrwt>
<pdfrwt beam="1">  1        1 0.16331424E+00 0.54441770E+03</pdfrwt>
<pdfrwt beam="2">  1       -1 0.10738749E-01 0.54441770E+03</pdfrwt>
<totfact> 0.77648736E+02</totfact>
</mgrwt>
</event>
<event>
 6    1  0.1568961E-005  0.1413955E+04  0.7818608E-02  0.8943779E-01
         -2   -1    0    0    0  501 -0.00000000000E+00  0.00000000000E+00  0.19020976546E+03  0.19020976546E+03  0.00000000000E+00 0.  1.
          2   -1    0    0  501    0  0.00000000000E+00 -0.00000000000E+00 -0.26277145342E+04  0.26277145342E+04  0.00000000000E+00 0. -1.
         23    2    1    2    0    0  0.21422741451E+03 -0.62320512053E+03 -0.72850660603E+03  0.98627129555E+03  0.87927163067E+02 0.  0.
         13    1    3    3    0    0  0.14634327942E+03 -0.51999700315E+03 -0.61433531370E+03  0.81805935993E+03  0.00000000000E+00 0. -1.
        -13    1    3    3    0    0  0.67884135090E+02 -0.10320811738E+03 -0.11417129234E+03  0.16821193561E+03  0.00000000000E+00 0.  1.
         22    1    1    2    0    0 -0.21422741451E+03  0.62320512053E+03 -0.17089981627E+04  0.18316530041E+04  0.00000000000E+00 0. -1.
<mgrwt>
<rscale>  0 0.14139547E+04</rscale>
<asrwt>0</asrwt>
<pdfrwt beam="1">  1        2 0.40426376E+00 0.14139547E+04</pdfrwt>
<pdfrwt beam="2">  1       -2 0.29263042E-01 0.14139547E+04</pdfrwt>
<totfact> 0.30754905E+01</totfact>
</mgrwt>
</event>
<event>
 6    1  0.1568961E-005  0.4391267E+04  0.7818608E-02  0.7929954E-01
          2   -1    0    0  501    0  0.00000000000E+00  0.00000000000E+00  0.21879787104E+04  0.21879787104E+04  0.00000000000E+00 0. -1.
         -2   -1    0    0    0  501 -0.00000000000E+00 -0.00000000000E+00 -0.22033148138E+04  0.22033148138E+04  0.00000000000E+00 0.  1.
         23    2    1    2    0    0 -0.12844338571E+04 -0.97102417116E+03 -0.14989925995E+04  0.22017970359E+04  0.90956581256E+02 0.  0.
         11    1    3    3    0    0 -0.12307866097E+03 -0.10521357844E+03 -0.11737764148E+03  0.19998941120E+03  0.00000000000E+00 0. -1.
        -11    1    3    3    0    0 -0.11613551961E+04 -0.86581059273E+03 -0.13816149580E+04  0.20018076247E+04  0.00000000000E+00 0.  1.
         22    1    1    2    0    0  0.12844338571E+04  0.97102417116E+03  0.14836564960E+04  0.21894964883E+04  0.00000000000E+00 0. -1.
<mgrwt>
<rscale>  0 0.43912667E+04</rscale>
<asrwt>0</asrwt>
<pdfrwt beam="1">  1        2 0.33661211E+00 0.43912667E+04</pdfrwt>
<pdfrwt beam="2">  1       -2 0.33897151E+00 0.43912667E+04</pdfrwt>
<totfact> 0.73161437E-02</totfact>
</mgrwt>
</event>
<event>
 6    1  0.1568961E-005  0.2468726E+04  0.7818608E-02  0.8414212E-01
          1   -1    0    0  501    0  0.00000000000E+00  0.00000000000E+00  0.14208914627E+04  0.14208914627E+04  0.00000000000E+00 0. -1.
         -1   -1    0    0    0  501 -0.00000000000E+00 -0.00000000000E+00 -0.10723213970E+04  0.10723213970E+04  0.00000000000E+00 0.  1.
         23    2    1    2    0    0  0.29741118891E+03 -0.82944893644E+03  0.10452128779E+04  0.13699363303E+04  0.88411738796E+02 0.  0.
         13    1    3    3    0    0  0.12228240196E+03 -0.44992342186E+03  0.51322967951E+03  0.69338933890E+03  0.00000000000E+00 0. -1.
        -13    1    3    3    0    0  0.17512878695E+03 -0.37952551458E+03  0.53198319839E+03  0.67654699142E+03  0.00000000000E+00 0.  1.
         22    1    1    2    0    0 -0.29741118891E+03  0.82944893644E+03 -0.69664281220E+03  0.11232765293E+04  0.00000000000E+00 0.  1.
<mgrwt>
<rscale>  0 0.24687262E+04</rscale>
<asrwt>0</asrwt>
<pdfrwt beam="1">  1        1 0.21859869E+00 0.24687262E+04</pdfrwt>
<pdfrwt beam="2">  1       -1 0.16497252E+00 0.24687262E+04</pdfrwt>
<totfact> 0.17741244E+00</totfact>
</mgrwt>
</event>
<event>
 6    1  0.1568961E-005  0.2606895E+04  0.7818608E-02  0.8365863E-01
         -2   -1    0    0    0  501 -0.00000000000E+00  0.00000000000E+00  0.78016360652E+03  0.78016360652E+03  0.00000000000E+00 0.  1.
          2   -1    0    0  501    0  0.00000000000E+00 -0.00000000000E+00 -0.21777166781E+04  0.21777166781E+04  0.00000000000E+00 0. -1.
         23    2    1    2    0    0 -0.41974279659E+03  0.76973006624E+03 -0.17917390325E+04  0.19966045896E+04  0.86213317746E+02 0.  0.
         11    1    3    3    0    0 -0.24893458947E+03  0.52360114216E+03 -0.11230565628E+04  0.12638760339E+04  0.00000000000E+00 0. -1.
        -11    1    3    3    0    0 -0.17080820712E+03  0.24612892408E+03 -0.66868246977E+03  0.73272855565E+03  0.00000000000E+00 0.  1.
         22    1    1    2    0    0  0.41974279659E+03 -0.76973006624E+03  0.39418596094E+03  0.96127569508E+03  0.00000000000E+00 0.  1.
<mgrwt>
<rscale>  0 0.26068949E+04</rscale>
<asrwt>0</asrwt>
<pdfrwt beam="1">  1        2 0.33503334E+00 0.26068949E+04</pdfrwt>
<pdfrwt beam="2">  1       -2 0.12002517E+00 0.26068949E+04</pdfrwt>
<totfact> 0.24935681E+00</totfact>
</mgrwt>
</event>
<event>
 6    1  0.1568961E-005  0.2809931E+04  0.7818608E-02  0.8300192E-01
         -1   -1    0    0    0  501 -0.00000000000E+00  0.00000000000E+00  0.12168670468E+04  0.12168670468E+04  0.00000000000E+00 0.  1.
          1   -1    0    0  501    0  0.00000000000E+00 -0.00000000000E+00 -0.16221389198E+04  0.16221389198E+04  0.00000000000E+00 0. -1.
         23    2    1    2    0    0 -0.13331040018E+04  0.35058699745E+03 -0.46869953483E+03  0.14591144525E+04  0.96219588126E+02 0.  0.
         13    1    3    3    0    0 -0.81999300931E+03  0.16828350657E+03 -0.27277428703E+03  0.88040540977E+03  0.00000000000E+00 0.  1.
        -13    1    3    3    0    0 -0.51311099252E+03  0.18230349088E+03 -0.19592524781E+03  0.57870904275E+03  0.00000000000E+00 0. -1.
         22    1    1    2    0    0  0.13331040018E+04 -0.35058699745E+03  0.63427661823E+02  0.13798915141E+04  0.00000000000E+00 0.  1.
<mgrwt>
<rscale>  0 0.28099305E+04</rscale>
<asrwt>0</asrwt>
<pdfrwt beam="1">  1        1 0.24955983E+00 0.28099305E+04</pdfrwt>
<pdfrwt beam="2">  1       -1 0.18721032E+00 0.28099305E+04</pdfrwt>
<totfact> 0.86172422E-01</totfact>
</mgrwt>
</event>
<event>
 6    1  0.1568961E-005  0.1000286E+04  0.7818608E-02  0.9308231E-01
          2   -1    0    0  501    0  0.00000000000E+00  0.00000000000E+00  0.22661346694E+03  0.22661346694E+03  0.00000000000E+00 0. -1.
         -2   -1    0    0    0  501 -0.00000000000E+00 -0.00000000000E+00 -0.11038314297E+04  0.11038314297E+04  0.00000000000E+00 0.  1.
         23    2    1    2    0    0  0.15317081489E+03  0.37387683288E+03 -0.58207695451E+02  0.41719629816E+03  0.86136117224E+02 0.  0.
         13    1    3    3    0    0  0.32526332249E+02  0.17412891819E+03 -0.19288552266E+01  0.17715124307E+03  0.00000000000E+00 0.  1.
        -13    1    3    3    0    0  0.12064448264E+03  0.19974791469E+03 -0.56278840225E+02  0.24004505508E+03  0.00000000000E+00 0. -1.
         22    1    1    2    0    0 -0.15317081489E+03 -0.37387683288E+03 -0.81901026735E+03  0.91324859853E+03  0.00000000000E+00 0. -1.
<mgrwt>
<rscale>  0 0.10002861E+04</rscale>
<asrwt>0</asrwt>
<pdfrwt beam="1">  1        2 0.34863610E-01 0.10002861E+04</pdfrwt>
<pdfrwt beam="2">  1       -2 0.16982022E+00 0.10002861E+04</pdfrwt>
<totfact> 0.32051437E+01</totfact>
</mgrwt>
</event>
<event>
 6    1  0.1568961E-005  0.1085856E+04  0.7818608E-02  0.9219088E-01
          2   -1    0    0  501    0  0.00000000000E+00  0.00000000000E+00  0.12507580802E+04  0.12507580802E+04  0.00000000000E+00 0. -1.
         -2   -1    0    0    0  501 -0.00000000000E+00 -0.00000000000E+00 -0.23567386343E+03  0.23567386343E+03  0.00000000000E+00 0.  1.
         23    2    1    2    0    0 -0.19136027799E+03 -0.17958601730E+03 -0.13361875865E+03  0.30813299203E+03  0.90675655579E+02 0.  0.
         13    1    3    3    0    0 -0.15948670538E+03 -0.13330223544E+03 -0.14140676204E+03  0.25139882163E+03  0.00000000000E+00 0.  1.
        -13    1    3    3    0    0 -0.31873572614E+02 -0.46283781859E+02  0.77880033968E+01  0.56734170403E+02  0.00000000000E+00 0. -1.
         22    1    1    2    0    0  0.19136027799E+03  0.17958601730E+03  0.11487029754E+04  0.11782989516E+04  0.00000000000E+00 0. -1.
<mgrwt>
<rscale>  0 0.10858563E+04</rscale>
<asrwt>0</asrwt>
<pdfrwt beam="1">  1        2 0.19242432E+00 0.10858563E+04</pdfrwt>
<pdfrwt beam="2">  1       -2 0.36257518E-01 0.10858563E+04</pdfrwt>
<totfact> 0.12556381E+02</totfact>
</mgrwt>
</event>
<event>
 6    1  0.1568961E-005  0.2661975E+04  0.7818608E-02  0.8347449E-01
          2   -1    0    0  501    0  0.00000000000E+00  0.00000000000E+00  0.42849208313E+04  0.42849208313E+04  0.00000000000E+00 0. -1.
         -2   -1    0    0    0  501 -0.00000000000E+00 -0.00000000000E+00 -0.41343289218E+03  0.41343289218E+03  0.00000000000E+00 0.  1.
         23    2    1    2    0    0 -0.27266501692E+03  0.10847076917E+04  0.32065843374E+04  0.33971874054E+04  0.88103158676E+02 0.  0.
         11    1    3    3    0    0 -0.10476069201E+03  0.26486919126E+03  0.78476537774E+03  0.83485758616E+03  0.00000000000E+00 0. -1.
        -11    1    3    3    0    0 -0.16790432491E+03  0.81983850039E+03  0.24218189597E+04  0.25623298192E+04  0.00000000000E+00 0.  1.
         22    1    1    2    0    0  0.27266501692E+03 -0.10847076917E+04  0.66490360171E+03  0.13011663181E+04  0.00000000000E+00 0. -1.
<mgrwt>
<rscale>  0 0.26619746E+04</rscale>
<asrwt>0</asrwt>
<pdfrwt beam="1">  1        2 0.65921856E+00 0.26619746E+04</pdfrwt>
<pdfrwt beam="2">  1       -2 0.63605063E-01 0.26619746E+04</pdfrwt>
<totfact> 0.39494821E-01</totfact>
</mgrwt>
</event>
<event>
 6    1  0.1568961E-005  0.4374141E+04  0.7818608E-02  0.7933049E-01
          2   -1    0    0  501    0  0.00000000000E+00  0.00000000000E+00  0.46024216009E+04  0.46024216009E+04  0.00000000000E+00 0. -1.
         -2   -1    0    0    0  501 -0.00000000000E+00 -0.00000000000E+00 -0.10392957511E+04  0.10392957511E+04  0.00000000000E+00 0.  1.
         23    2    1    2    0    0 -0.20114468799E+04  0.68626668841E+03  0.24428672403E+04  0.32392478162E+04  0.90804967858E+02 0.  0.
         13    1    3    3    0    0 -0.11598584663E+04  0.40297418733E+03  0.14784668963E+04  0.19218543704E+04  0.00000000000E+00 0. -1.
        -13    1    3    3    0    0 -0.85158841364E+03  0.28329250108E+03  0.96440034402E+03  0.13173934458E+04  0.00000000000E+00 0.  1.
         22    1    1    2    0    0  0.20114468799E+04 -0.68626668841E+03  0.11202586094E+04  0.24024695358E+04  0.00000000000E+00 0.  1.
<mgrwt>
<rscale>  0 0.43741409E+04</rscale>
<asrwt>0</asrwt>
<pdfrwt beam="1">  1        2 0.70806485E+00 0.43741409E+04</pdfrwt>
<pdfrwt beam="2">  1       -2 0.15989166E+00 0.43741409E+04</pdfrwt>
<totfact> 0.18594206E-02</totfact>
</mgrwt>
</event>
<event>
 6    1  0.1568961E-005  0.8498488E+03  0.7818608E-02  0.9490540E-01
         -1   -1    0    0    0  501 -0.00000000000E+00  0.00000000000E+00  0.26083109353E+03  0.26083109353E+03  0.00000000000E+00 0.  1.
          1   -1    0    0  501    0  0.00000000000E+00 -0.00000000000E+00 -0.69225156336E+03  0.69225156336E+03  0.00000000000E+00 0. -1.
         23    2    1    2    0    0 -0.14089033222E+03  0.11253120434E+03 -0.64351104625E+03  0.67470203567E+03  0.92752426557E+02 0.  0.
         13    1    3    3    0    0 -0.66671851467E+02 -0.14455064271E+01 -0.22029322259E+03  0.23016587320E+03  0.00000000000E+00 0. -1.
        -13    1    3    3    0    0 -0.74218480758E+02  0.11397671077E+03 -0.42321782366E+03  0.44453616247E+03  0.00000000000E+00 0.  1.
         22    1    1    2    0    0  0.14089033222E+03 -0.11253120434E+03  0.21209057642E+03  0.27838062122E+03  0.00000000000E+00 0.  1.
<mgrwt>
<rscale>  0 0.84984877E+03</rscale>
<asrwt>0</asrwt>
<pdfrwt beam="1">  1        1 0.10650024E+00 0.84984877E+03</pdfrwt>
<pdfrwt beam="2">  1       -1 0.40127861E-01 0.84984877E+03</pdfrwt>
<totfact> 0.16928072E+02</totfact>
</mgrwt>
</event>
<event>
 6    1  0.1568961E-005  0.3278750E+04  0.7818608E-02  0.8168323E-01
         -1   -1    0    0    0  501 -0.00000000000E+00  0.00000000000E+00  0.11120571258E+04  0.11120571258E+04  0.00000000000E+00 0.  1.
          1   -1    0    0  501    0  0.00000000000E+00 -0.00000000000E+00 -0.24167383584E+04  0.24167383584E+04  0.00000000000E+00 0. -1.
         23    2    1    2    0    0 -0.13431480451E+04 -0.71557024647E+03 -0.13051235666E+04  0.20069256986E+04  0.91190935963E+02 0.  0.
         11    1    3    3    0    0 -0.51219889116E+03 -0.32277146131E+03 -0.52774988911E+03  0.80314946666E+03  0.00000000000E+00 0. -1.
        -11    1    3    3    0    0 -0.83094915397E+03 -0.39279878516E+03 -0.77737367752E+03  0.12037762319E+04  0.00000000000E+00 0.  1.
         22    1    1    2    0    0  0.13431480451E+04  0.71557024647E+03  0.44233398596E+00  0.15218697856E+04  0.00000000000E+00 0.  1.
<mgrwt>
<rscale>  0 0.32787504E+04</rscale>
<asrwt>0</asrwt>
<pdfrwt beam="1">  1        1 0.37180590E+00 0.32787504E+04</pdfrwt>
<pdfrwt beam="2">  1       -1 0.17108571E+00 0.32787504E+04</pdfrwt>
<totfact> 0.31054623E-01</totfact>
</mgrwt>
</event>
<event>
 6    1  0.1568961E-005  0.2588262E+04  0.7818608E-02  0.8372199E-01
          2   -1    0    0  501    0  0.00000000000E+00  0.00000000000E+00  0.32531894239E+04  0.32531894239E+04  0.00000000000E+00 0. -1.
         -2   -1    0    0    0  501 -0.00000000000E+00 -0.00000000000E+00 -0.51481023418E+03  0.51481023418E+03  0.00000000000E+00 0.  1.
         23    2    1    2    0    0  0.12622605404E+04 -0.25075151662E+03  0.11961470781E+04  0.17593538752E+04  0.91543600029E+02 0.  0.
         11    1    3    3    0    0  0.54200840051E+03 -0.15305068531E+03  0.51001767047E+03  0.75981289979E+03  0.00000000000E+00 0. -1.
        -11    1    3    3    0    0  0.72025213992E+03 -0.97700831302E+02  0.68612940760E+03  0.99954097538E+03  0.00000000000E+00 0.  1.
         22    1    1    2    0    0 -0.12622605404E+04  0.25075151662E+03  0.15422321117E+04  0.20086457829E+04  0.00000000000E+00 0.  1.
<mgrwt>
<rscale>  0 0.25882621E+04</rscale>
<asrwt>0</asrwt>
<pdfrwt beam="1">  1        2 0.50049067E+00 0.25882621E+04</pdfrwt>
<pdfrwt beam="2">  1       -2 0.79201576E-01 0.25882621E+04</pdfrwt>
<totfact> 0.14982436E+00</totfact>
</mgrwt>
</event>
<event>
 6    1  0.1568961E-005  0.1969018E+04  0.7818608E-02  0.8621244E-01
         -2   -1    0    0    0  501 -0.00000000000E+00  0.00000000000E+00  0.42753684794E+03  0.42753684794E+03  0.00000000000E+00 0. -1.
          2   -1    0    0  501    0  0.00000000000E+00 -0.00000000000E+00 -0.22670737638E+04  0.22670737638E+04  0.00000000000E+00 0.  1.
         23    2    1    2    0    0 -0.11487896095E+03  0.18997626568E+03 -0.22312960999E+04  0.22443180229E+04  0.94831140201E+02 0.  0.
         13    1    3    3    0    0 -0.55414039018E+02  0.16188594957E+02 -0.52757024538E+03  0.53071946463E+03  0.00000000000E+00 0.  1.
        -13    1    3    3    0    0 -0.59464921932E+02  0.17378767073E+03 -0.17037258546E+04  0.17135985583E+04  0.00000000000E+00 0. -1.
         22    1    1    2    0    0  0.11487896095E+03 -0.18997626568E+03  0.39175918411E+03  0.45029258880E+03  0.00000000000E+00 0. -1.
<mgrwt>
<rscale>  0 0.19690176E+04</rscale>
<asrwt>0</asrwt>
<pdfrwt beam="1">  1        2 0.34878058E+00 0.19690176E+04</pdfrwt>
<pdfrwt beam="2">  1       -2 0.65774900E-01 0.19690176E+04</pdfrwt>
<totfact> 0.93819935E+00</totfact>
</mgrwt>
</event>
<event>
 6    1  0.1568961E-005  0.2160257E+04  0.7818608E-02  0.8535155E-01
         -1   -1    0    0    0  501 -0.00000000000E+00  0.00000000000E+00  0.80210234883E+03  0.80210234883E+03  0.00000000000E+00 0.  1.
          1   -1    0    0  501    0  0.00000000000E+00 -0.00000000000E+00 -0.14545243962E+04  0.14545243962E+04  0.00000000000E+00 0. -1.
         23    2    1    2    0    0  0.16551630680E+03  0.32398778375E+02 -0.14392794026E+04  0.14518970847E+04  0.89636025563E+02 0.  0.
         11    1    3    3    0    0  0.89915983256E+02  0.61702859099E+02 -0.89282141330E+03  0.89945661535E+03  0.00000000000E+00 0.  1.
        -11    1    3    3    0    0  0.75600323545E+02 -0.29304080725E+02 -0.54645798934E+03  0.55244046935E+03  0.00000000000E+00 0. -1.
         22    1    1    2    0    0 -0.16551630680E+03 -0.32398778375E+02  0.78685735526E+03  0.80472966031E+03  0.00000000000E+00 0.  1.
<mgrwt>
<rscale>  0 0.21602569E+04</rscale>
<asrwt>0</asrwt>
<pdfrwt beam="1">  1        1 0.22377298E+00 0.21602569E+04</pdfrwt>
<pdfrwt beam="2">  1       -1 0.12340036E+00 0.21602569E+04</pdfrwt>
<totfact> 0.37197298E+00</totfact>
</mgrwt>
</event>
<event>
 6    1  0.1568961E-005  0.2275994E+04  0.7818608E-02  0.8487447E-01
          2   -1    0    0  501    0  0.00000000000E+00  0.00000000000E+00  0.28170614586E+04  0.28170614586E+04  0.00000000000E+00 0.  1.
         -2   -1    0    0    0  501 -0.00000000000E+00 -0.00000000000E+00 -0.45971209378E+03  0.45971209378E+03  0.00000000000E+00 0. -1.
         23    2    1    2    0    0 -0.36296362718E+03 -0.82981856737E+03  0.21681873365E+04  0.23515040120E+04  0.90517086421E+02 0.  0.
         13    1    3    3    0    0 -0.17480556039E+03 -0.29096232867E+03  0.81948546386E+03  0.88700196512E+03  0.00000000000E+00 0.  1.
        -13    1    3    3    0    0 -0.18815806679E+03 -0.53885623870E+03  0.13487018727E+04  0.14645020469E+04  0.00000000000E+00 0. -1.
         22    1    1    2    0    0  0.36296362718E+03  0.82981856737E+03  0.18916202833E+03  0.92526954039E+03  0.00000000000E+00 0.  1.
<mgrwt>
<rscale>  0 0.22759940E+04</rscale>
<asrwt>0</asrwt>
<pdfrwt beam="1">  1        2 0.43339406E+00 0.22759940E+04</pdfrwt>
<pdfrwt beam="2">  1       -2 0.70724939E-01 0.22759940E+04</pdfrwt>
<totfact> 0.37295475E+00</totfact>
</mgrwt>
</event>
<event>
 6    1  0.1568961E-005  0.3946592E+04  0.7818608E-02  0.8015408E-01
         -1   -1    0    0    0  501 -0.00000000000E+00  0.00000000000E+00  0.14810893735E+04  0.14810893735E+04  0.00000000000E+00 0.  1.
          1   -1    0    0  501    0  0.00000000000E+00 -0.00000000000E+00 -0.26290770457E+04  0.26290770457E+04  0.00000000000E+00 0. -1.
         23    2    1    2    0    0  0.45841968064E+03  0.47232420596E+02 -0.25713968666E+04  0.26140136062E+04  0.92767356733E+02 0.  0.
         13    1    3    3    0    0  0.19149334966E+03 -0.21206682690E+02 -0.11743995374E+04  0.11900981891E+04  0.00000000000E+00 0. -1.
        -13    1    3    3    0    0  0.26692633098E+03  0.68439103286E+02 -0.13969973293E+04  0.14239154171E+04  0.00000000000E+00 0.  1.
         22    1    1    2    0    0 -0.45841968064E+03 -0.47232420596E+02  0.14234091944E+04  0.14961528130E+04  0.00000000000E+00 0.  1.
<mgrwt>
<rscale>  0 0.39465925E+04</rscale>
<asrwt>0</asrwt>
<pdfrwt beam="1">  1        1 0.40447339E+00 0.39465925E+04</pdfrwt>
<pdfrwt beam="2">  1       -1 0.22785991E+00 0.39465925E+04</pdfrwt>
<totfact> 0.84399590E-02</totfact>
</mgrwt>
</event>
<event>
 6    1  0.1568961E-005  0.2662008E+04  0.7818608E-02  0.8347438E-01
         -1   -1    0    0    0  501 -0.00000000000E+00  0.00000000000E+00  0.20496523502E+04  0.20496523502E+04  0.00000000000E+00 0.  1.
          1   -1    0    0  501    0  0.00000000000E+00 -0.00000000000E+00 -0.86432777219E+03  0.86432777219E+03  0.00000000000E+00 0. -1.
         23    2    1    2    0    0 -0.57562860746E+03 -0.16339329133E+03  0.18928676325E+04  0.19873395041E+04  0.92329675449E+02 0.  0.
         13    1    3    3    0    0 -0.26395880272E+03 -0.99954331921E+02  0.10199064000E+04  0.10582410797E+04  0.00000000000E+00 0.  1.
        -13    1    3    3    0    0 -0.31166980474E+03 -0.63438959406E+02  0.87296123258E+03  0.92909842447E+03  0.00000000000E+00 0. -1.
         22    1    1    2    0    0  0.57562860746E+03  0.16339329133E+03 -0.70754305453E+03  0.92664061826E+03  0.00000000000E+00 0. -1.
<mgrwt>
<rscale>  0 0.26620079E+04</rscale>
<asrwt>0</asrwt>
<pdfrwt beam="1">  1        1 0.13297350E+00 0.26620079E+04</pdfrwt>
<pdfrwt beam="2">  1       -1 0.31533113E+00 0.26620079E+04</pdfrwt>
<totfact> 0.44798895E-01</totfact>
</mgrwt>
</event>
<event>
 6    1  0.1568961E-005  0.3943824E+04  0.7818608E-02  0.8015976E-01
         -2   -1    0    0    0  501 -0.00000000000E+00  0.00000000000E+00  0.96812207770E+03  0.96812207770E+03  0.00000000000E+00 0.  1.
          2   -1    0    0  501    0  0.00000000000E+00 -0.00000000000E+00 -0.40164737110E+04  0.40164737110E+04  0.00000000000E+00 0. -1.
         23    2    1    2    0    0  0.22242146619E+03 -0.17854369082E+04 -0.25415839057E+04  0.31153526821E+04  0.92289341612E+02 0.  0.
         13    1    3    3    0    0  0.15266632528E+03 -0.14940143433E+04 -0.21034889381E+04  0.25845795746E+04  0.00000000000E+00 0. -1.
        -13    1    3    3    0    0  0.69755140909E+02 -0.29142256487E+03 -0.43809496760E+03  0.53077310749E+03  0.00000000000E+00 0.  1.
         22    1    1    2    0    0 -0.22242146619E+03  0.17854369082E+04 -0.50676772761E+03  0.18692431066E+04  0.00000000000E+00 0.  1.
<mgrwt>
<rscale>  0 0.39438240E+04</rscale>
<asrwt>0</asrwt>
<pdfrwt beam="1">  1        2 0.61791904E+00 0.39438240E+04</pdfrwt>
<pdfrwt beam="2">  1       -2 0.14894186E+00 0.39438240E+04</pdfrwt>
<totfact> 0.79963294E-02</totfact>
</mgrwt>
</event>
<event>
 6    1  0.1568961E-005  0.8416032E+03  0.7818608E-02  0.9501677E-01
          1   -1    0    0  501    0  0.00000000000E+00  0.00000000000E+00  0.15254255974E+04  0.15254255974E+04  0.00000000000E+00 0. -1.
         -1   -1    0    0    0  501 -0.00000000000E+00 -0.00000000000E+00 -0.11608168577E+03  0.11608168577E+03  0.00000000000E+00 0.  1.
         23    2    1    2    0    0  0.13443132944E+03  0.30607030415E+03  0.11954465053E+04  0.12446409154E+04  0.91037618074E+02 0.  0.
         11    1    3    3    0    0 -0.75782492401E+01  0.57768301794E+02  0.25948343933E+03  0.26594409533E+03  0.00000000000E+00 0.  1.
        -11    1    3    3    0    0  0.14200957868E+03  0.24830200236E+03  0.93596306594E+03  0.97869682007E+03  0.00000000000E+00 0. -1.
         22    1    1    2    0    0 -0.13443132944E+03 -0.30607030415E+03  0.21389740635E+03  0.39686636776E+03  0.00000000000E+00 0.  1.
<mgrwt>
<rscale>  0 0.84160317E+03</rscale>
<asrwt>0</asrwt>
<pdfrwt beam="1">  1        1 0.23468085E+00 0.84160317E+03</pdfrwt>
<pdfrwt beam="2">  1       -1 0.17858722E-01 0.84160317E+03</pdfrwt>
<totfact> 0.15714632E+02</totfact>
</mgrwt>
</event>
<event>
 6    1  0.1568961E-005  0.2433778E+04  0.7818608E-02  0.8426965E-01
         -1   -1    0    0    0  501 -0.00000000000E+00  0.00000000000E+00  0.78321122306E+03  0.78321122306E+03  0.00000000000E+00 0.  1.
          1   -1    0    0  501    0  0.00000000000E+00 -0.00000000000E+00 -0.18907016143E+04  0.18907016143E+04  0.00000000000E+00 0. -1.
         23    2    1    2    0    0 -0.44807291102E+03 -0.84114403633E+03  0.27365330017E+03  0.99586321956E+03  0.92546204373E+02 0.  0.
         11    1    3    3    0    0 -0.34969212458E+03 -0.72770122396E+03  0.22962987726E+03  0.83938282915E+03  0.00000000000E+00 0. -1.
        -11    1    3    3    0    0 -0.98380786437E+02 -0.11344281237E+03  0.44023422912E+02  0.15648039041E+03  0.00000000000E+00 0.  1.
         22    1    1    2    0    0  0.44807291102E+03  0.84114403633E+03 -0.13811436914E+04  0.16780496178E+04  0.00000000000E+00 0. -1.
<mgrwt>
<rscale>  0 0.24337779E+04</rscale>
<asrwt>0</asrwt>
<pdfrwt beam="1">  1        1 0.29087717E+00 0.24337779E+04</pdfrwt>
<pdfrwt beam="2">  1       -1 0.12049404E+00 0.24337779E+04</pdfrwt>
<totfact> 0.19355792E+00</totfact>
</mgrwt>
</event>
<event>
 6    1  0.1568961E-005  0.8715341E+03  0.7818608E-02  0.9461882E-01
         -2   -1    0    0    0  501 -0.00000000000E+00  0.00000000000E+00  0.74159974236E+02  0.74159974236E+02  0.00000000000E+00 0.  1.
          2   -1    0    0  501    0  0.00000000000E+00 -0.00000000000E+00 -0.25605853275E+04  0.25605853275E+04  0.00000000000E+00 0. -1.
         23    2    1    2    0    0  0.39785111836E+03 -0.10786332503E+03 -0.16367626294E+04  0.16903689183E+04  0.91843157967E+02 0.  0.
         11    1    3    3    0    0  0.15789412124E+03 -0.92568469794E+00 -0.54234505005E+03  0.56486242903E+03  0.00000000000E+00 0. -1.
        -11    1    3    3    0    0  0.23995699712E+03 -0.10693764033E+03 -0.10944175794E+04  0.11255064893E+04  0.00000000000E+00 0.  1.
         22    1    1    2    0    0 -0.39785111836E+03  0.10786332503E+03 -0.84966272378E+03  0.94437638336E+03  0.00000000000E+00 0.  1.
<mgrwt>
<rscale>  0 0.87153415E+03</rscale>
<asrwt>0</asrwt>
<pdfrwt beam="1">  1        2 0.39393612E+00 0.87153415E+03</pdfrwt>
<pdfrwt beam="2">  1       -2 0.11409229E-01 0.87153415E+03</pdfrwt>
<totfact> 0.18241801E+02</totfact>
</mgrwt>
</event>
<event>
 6    1  0.1568961E-005  0.1080679E+04  0.7818608E-02  0.9224231E-01
          3   -1    0    0  501    0  0.00000000000E+00  0.00000000000E+00  0.40095781036E+03  0.40095781036E+03  0.00000000000E+00 0. -1.
         -3   -1    0    0    0  501 -0.00000000000E+00 -0.00000000000E+00 -0.72817290425E+03  0.72817290425E+03  0.00000000000E+00 0.  1.
         23    2    1    2    0    0  0.54898547891E+02  0.50877511771E+03  0.38637444241E+01  0.51963980562E+03  0.90247593370E+02 0.  0.
         13    1    3    3    0    0  0.54992122466E+02  0.20229762650E+03  0.31190290009E+02  0.21194644940E+03  0.00000000000E+00 0.  1.
        -13    1    3    3    0    0 -0.93574575083E-01  0.30647749120E+03 -0.27326545585E+02  0.30769335622E+03  0.00000000000E+00 0. -1.
         22    1    1    2    0    0 -0.54898547891E+02 -0.50877511771E+03 -0.33107883832E+03  0.60949090899E+03  0.00000000000E+00 0.  1.
<mgrwt>
<rscale>  0 0.10806787E+04</rscale>
<asrwt>0</asrwt>
<pdfrwt beam="1">  1        3 0.61685818E-01 0.10806787E+04</pdfrwt>
<pdfrwt beam="2">  1       -3 0.11202660E+00 0.10806787E+04</pdfrwt>
<totfact> 0.44529472E+00</totfact>
</mgrwt>
</event>
<event>
 6    1  0.1568961E-005  0.1036933E+04  0.7818608E-02  0.9268940E-01
         -1   -1    0    0    0  501 -0.00000000000E+00  0.00000000000E+00  0.29212021682E+03  0.29212021682E+03  0.00000000000E+00 0.  1.
          1   -1    0    0  501    0  0.00000000000E+00 -0.00000000000E+00 -0.92019488096E+03  0.92019488096E+03  0.00000000000E+00 0. -1.
         23    2    1    2    0    0 -0.15797464920E+03 -0.21263767746E+03 -0.83212444195E+03  0.87793943555E+03  0.90420097009E+02 0.  0.
         13    1    3    3    0    0 -0.12535976394E+03 -0.15972454541E+03 -0.49316420692E+03  0.53332723146E+03  0.00000000000E+00 0.  1.
        -13    1    3    3    0    0 -0.32614885262E+02 -0.52913132051E+02 -0.33896023503E+03  0.34461220410E+03  0.00000000000E+00 0. -1.
         22    1    1    2    0    0  0.15797464920E+03  0.21263767746E+03  0.20404977781E+03  0.33437566223E+03  0.00000000000E+00 0.  1.
<mgrwt>
<rscale>  0 0.10369330E+04</rscale>
<asrwt>0</asrwt>
<pdfrwt beam="1">  1        1 0.14156844E+00 0.10369330E+04</pdfrwt>
<pdfrwt beam="2">  1       -1 0.44941572E-01 0.10369330E+04</pdfrwt>
<totfact> 0.85985607E+01</totfact>
</mgrwt>
</event>
<event>
 6    1  0.1568961E-005  0.2627985E+04  0.7818608E-02  0.8358757E-01
         -1   -1    0    0    0  501 -0.00000000000E+00  0.00000000000E+00  0.11908081085E+04  0.11908081085E+04  0.00000000000E+00 0.  1.
          1   -1    0    0  501    0  0.00000000000E+00 -0.00000000000E+00 -0.14499197376E+04  0.14499197376E+04  0.00000000000E+00 0. -1.
         23    2    1    2    0    0  0.77988651592E+03  0.25078516076E+03 -0.11599377806E+04  0.14231056019E+04  0.93046894743E+02 0.  0.
         11    1    3    3    0    0  0.30359171866E+03  0.73370995353E+02 -0.50983629534E+03  0.59789989349E+03  0.00000000000E+00 0. -1.
        -11    1    3    3    0    0  0.47629479727E+03  0.17741416541E+03 -0.65010148528E+03  0.82520570839E+03  0.00000000000E+00 0.  1.
         22    1    1    2    0    0 -0.77988651592E+03 -0.25078516076E+03  0.90082615151E+03  0.12176222443E+04  0.00000000000E+00 0.  1.
<mgrwt>
<rscale>  0 0.26279849E+04</rscale>
<asrwt>0</asrwt>
<pdfrwt beam="1">  1        1 0.22306457E+00 0.26279849E+04</pdfrwt>
<pdfrwt beam="2">  1       -1 0.18320125E+00 0.26279849E+04</pdfrwt>
<totfact> 0.12295065E+00</totfact>
</mgrwt>
</event>
<event>
 6    1  0.1568961E-005  0.6797013E+03  0.7818608E-02  0.9752589E-01
         -1   -1    0    0    0  501 -0.00000000000E+00  0.00000000000E+00  0.76623768334E+03  0.76623768334E+03  0.00000000000E+00 0.  1.
          1   -1    0    0  501    0  0.00000000000E+00 -0.00000000000E+00 -0.15073453334E+03  0.15073453334E+03  0.00000000000E+00 0. -1.
         23    2    1    2    0    0  0.41656517606E+01  0.33112363819E+03  0.36970539902E+03  0.50456859059E+03  0.90813898327E+02 0.  0.
         11    1    3    3    0    0 -0.24765368412E+02  0.28312870357E+03  0.33194971312E+03  0.43699633671E+03  0.00000000000E+00 0.  1.
        -11    1    3    3    0    0  0.28931020173E+02  0.47994934616E+02  0.37755685895E+02  0.67572253880E+02  0.00000000000E+00 0. -1.
         22    1    1    2    0    0 -0.41656517606E+01 -0.33112363819E+03  0.24579775098E+03  0.41240362609E+03  0.00000000000E+00 0. -1.
<mgrwt>
<rscale>  0 0.67970135E+03</rscale>
<asrwt>0</asrwt>
<pdfrwt beam="1">  1        1 0.23189929E-01 0.67970135E+03</pdfrwt>
<pdfrwt beam="2">  1       -1 0.11788272E+00 0.67970135E+03</pdfrwt>
<totfact> 0.14186405E+02</totfact>
</mgrwt>
</event>
<event>
 6    1  0.1568961E-005  0.1407844E+04  0.7818608E-02  0.8948160E-01
         -2   -1    0    0    0  501 -0.00000000000E+00  0.00000000000E+00  0.10014463785E+04  0.10014463785E+04  0.00000000000E+00 0.  1.
          2   -1    0    0  501    0  0.00000000000E+00 -0.00000000000E+00 -0.49479054854E+03  0.49479054854E+03  0.00000000000E+00 0. -1.
         23    2    1    2    0    0 -0.19137090767E+03  0.67166842780E+03  0.31845987548E+03  0.77292577786E+03  0.90753868136E+02 0.  0.
         11    1    3    3    0    0 -0.15921636574E+03  0.40609457578E+03  0.18228892165E+03  0.47274930624E+03  0.00000000000E+00 0. -1.
        -11    1    3    3    0    0 -0.32154541925E+02  0.26557385202E+03  0.13617095384E+03  0.30017647161E+03  0.00000000000E+00 0.  1.
         22    1    1    2    0    0  0.19137090767E+03 -0.67166842780E+03  0.18819595444E+03  0.72331114914E+03  0.00000000000E+00 0.  1.
<mgrwt>
<rscale>  0 0.14078440E+04</rscale>
<asrwt>0</asrwt>
<pdfrwt beam="1">  1        2 0.76121623E-01 0.14078440E+04</pdfrwt>
<pdfrwt beam="2">  1       -2 0.15406867E+00 0.14078440E+04</pdfrwt>
<totfact> 0.16901100E+01</totfact>
</mgrwt>
</event>
<event>
 6    1  0.1568961E-005  0.3763873E+04  0.7818608E-02  0.8053952E-01
         -1   -1    0    0    0  501 -0.00000000000E+00  0.00000000000E+00  0.17974162959E+04  0.17974162959E+04  0.00000000000E+00 0.  1.
          1   -1    0    0  501    0  0.00000000000E+00 -0.00000000000E+00 -0.19704307223E+04  0.19704307223E+04  0.00000000000E+00 0. -1.
         23    2    1    2    0    0  0.10212613618E+04 -0.78786879279E+03  0.12838178285E+04  0.18220638282E+04  0.89534202250E+02 0.  0.
         13    1    3    3    0    0  0.30571587101E+03 -0.18689466063E+03  0.34169591663E+03  0.49512413332E+03  0.00000000000E+00 0. -1.
        -13    1    3    3    0    0  0.71554549081E+03 -0.60097413216E+03  0.94212191190E+03  0.13269396949E+04  0.00000000000E+00 0.  1.
         22    1    1    2    0    0 -0.10212613618E+04  0.78786879279E+03 -0.14568322549E+04  0.19457831900E+04  0.00000000000E+00 0. -1.
<mgrwt>
<rscale>  0 0.37638726E+04</rscale>
<asrwt>0</asrwt>
<pdfrwt beam="1">  1        1 0.30314319E+00 0.37638726E+04</pdfrwt>
<pdfrwt beam="2">  1       -1 0.27652558E+00 0.37638726E+04</pdfrwt>
<totfact> 0.11675334E-01</totfact>
</mgrwt>
</event>
<event>
 6    1  0.1568961E-005  0.2293492E+04  0.7818608E-02  0.8480492E-01
          1   -1    0    0  501    0  0.00000000000E+00  0.00000000000E+00  0.18331401992E+04  0.18331401992E+04  0.00000000000E+00 0. -1.
         -1   -1    0    0    0  501 -0.00000000000E+00 -0.00000000000E+00 -0.71736257172E+03  0.71736257172E+03  0.00000000000E+00 0.  1.
         23    2    1    2    0    0 -0.83778576990E+03  0.43885127707E+03  0.12767042784E+04  0.15911421367E+04  0.85346617951E+02 0.  0.
         13    1    3    3    0    0 -0.25601372193E+03  0.93873634747E+02  0.34232191758E+03  0.43765235104E+03  0.00000000000E+00 0. -1.
        -13    1    3    3    0    0 -0.58177204797E+03  0.34497764232E+03  0.93438236077E+03  0.11534897857E+04  0.00000000000E+00 0.  1.
         22    1    1    2    0    0  0.83778576990E+03 -0.43885127707E+03 -0.16092665083E+03  0.95936063426E+03  0.00000000000E+00 0.  1.
<mgrwt>
<rscale>  0 0.22934918E+04</rscale>
<asrwt>0</asrwt>
<pdfrwt beam="1">  1        1 0.28202157E+00 0.22934918E+04</pdfrwt>
<pdfrwt beam="2">  1       -1 0.11036347E+00 0.22934918E+04</pdfrwt>
<totfact> 0.26486617E+00</totfact>
</mgrwt>
</event>
<event>
 6    1  0.1568961E-005  0.1836343E+04  0.7818608E-02  0.8687208E-01
          1   -1    0    0  501    0  0.00000000000E+00  0.00000000000E+00  0.18177299650E+04  0.18177299650E+04  0.00000000000E+00 0. -1.
         -1   -1    0    0    0  501 -0.00000000000E+00 -0.00000000000E+00 -0.46378659897E+03  0.46378659897E+03  0.00000000000E+00 0.  1.
         23    2    1    2    0    0  0.76140159458E+03 -0.25644092088E+02  0.13090172856E+04  0.15183597253E+04  0.10723802372E+03 0.  0.
         13    1    3    3    0    0  0.40917605550E+03 -0.63809227559E+02  0.66804321057E+03  0.78598879960E+03  0.00000000000E+00 0. -1.
        -13    1    3    3    0    0  0.35222553909E+03  0.38165135471E+02  0.64097407502E+03  0.73237092569E+03  0.00000000000E+00 0.  1.
         22    1    1    2    0    0 -0.76140159458E+03  0.25644092088E+02  0.44926080423E+02  0.76315683866E+03  0.00000000000E+00 0.  1.
<mgrwt>
<rscale>  0 0.18363429E+04</rscale>
<asrwt>0</asrwt>
<pdfrwt beam="1">  1        1 0.27965076E+00 0.18363429E+04</pdfrwt>
<pdfrwt beam="2">  1       -1 0.71351786E-01 0.18363429E+04</pdfrwt>
<totfact> 0.73927197E+00</totfact>
</mgrwt>
</event>
<event>
 6    1  0.1568961E-005  0.6975921E+03  0.7818608E-02  0.9721359E-01
         -1   -1    0    0    0  501 -0.00000000000E+00  0.00000000000E+00  0.16977674552E+03  0.16977674552E+03  0.00000000000E+00 0.  1.
          1   -1    0    0  501    0  0.00000000000E+00 -0.00000000000E+00 -0.71658028305E+03  0.71658028305E+03  0.00000000000E+00 0. -1.
         23    2    1    2    0    0  0.13727830159E+03  0.31377776966E+03 -0.25862019020E+03  0.43875065853E+03  0.91191648523E+02 0.  0.
         11    1    3    3    0    0  0.26488165266E+02  0.44487629410E+02 -0.39848918278E+01  0.51929292625E+02  0.00000000000E+00 0. -1.
        -11    1    3    3    0    0  0.11079013633E+03  0.26929014025E+03 -0.25463529838E+03  0.38682136591E+03  0.00000000000E+00 0.  1.
         22    1    1    2    0    0 -0.13727830159E+03 -0.31377776966E+03 -0.28818334732E+03  0.44760637003E+03  0.00000000000E+00 0. -1.
<mgrwt>
<rscale>  0 0.69759205E+03</rscale>
<asrwt>0</asrwt>
<pdfrwt beam="1">  1        1 0.11024312E+00 0.69759205E+03</pdfrwt>
<pdfrwt beam="2">  1       -1 0.26119499E-01 0.69759205E+03</pdfrwt>
<totfact> 0.34521014E+02</totfact>
</mgrwt>
</event>
<event>
 6    1  0.1568961E-005  0.2230510E+04  0.7818608E-02  0.8505835E-01
         -1   -1    0    0    0  501 -0.00000000000E+00  0.00000000000E+00  0.71029173588E+03  0.71029173588E+03  0.00000000000E+00 0.  1.
          1   -1    0    0  501    0  0.00000000000E+00 -0.00000000000E+00 -0.17511031721E+04  0.17511031721E+04  0.00000000000E+00 0. -1.
         23    2    1    2    0    0 -0.67917010838E+03 -0.71433553801E+03 -0.10925196504E+04  0.14743685474E+04  0.92823111519E+02 0.  0.
         13    1    3    3    0    0 -0.14688381449E+03 -0.11780028341E+03 -0.24892314507E+03  0.31211295052E+03  0.00000000000E+00 0. -1.
        -13    1    3    3    0    0 -0.53228629390E+03 -0.59653525461E+03 -0.84359650537E+03  0.11622555969E+04  0.00000000000E+00 0.  1.
         22    1    1    2    0    0  0.67917010838E+03  0.71433553801E+03  0.51708214234E+02  0.98702636054E+03  0.00000000000E+00 0.  1.
<mgrwt>
<rscale>  0 0.22305104E+04</rscale>
<asrwt>0</asrwt>
<pdfrwt beam="1">  1        1 0.26940049E+00 0.22305104E+04</pdfrwt>
<pdfrwt beam="2">  1       -1 0.10927565E+00 0.22305104E+04</pdfrwt>
<totfact> 0.31001244E+00</totfact>
</mgrwt>
</event>
<event>
 6    1  0.1568961E-005  0.5389546E+03  0.7818608E-02  0.1004083E+00
         -1   -1    0    0    0  501 -0.00000000000E+00  0.00000000000E+00  0.78692177606E+02  0.78692177606E+02  0.00000000000E+00 0. -1.
          1   -1    0    0  501    0  0.00000000000E+00 -0.00000000000E+00 -0.92281103463E+03  0.92281103463E+03  0.00000000000E+00 0.  1.
         23    2    1    2    0    0  0.12854854575E+02  0.14352635788E+03 -0.84024934920E+03  0.85735039131E+03  0.90915686004E+02 0.  0.
         13    1    3    3    0    0 -0.21045945072E+02  0.12175559702E+03 -0.51500563309E+03  0.52962076935E+03  0.00000000000E+00 0. -1.
        -13    1    3    3    0    0  0.33900799646E+02  0.21770760860E+02 -0.32524371611E+03  0.32772962196E+03  0.00000000000E+00 0.  1.
         22    1    1    2    0    0 -0.12854854575E+02 -0.14352635788E+03 -0.38695078306E+01  0.14415282093E+03  0.00000000000E+00 0. -1.
<mgrwt>
<rscale>  0 0.53895458E+03</rscale>
<asrwt>0</asrwt>
<pdfrwt beam="1">  1        1 0.14197094E+00 0.53895458E+03</pdfrwt>
<pdfrwt beam="2">  1       -1 0.12106488E-01 0.53895458E+03</pdfrwt>
<totfact> 0.82148344E+02</totfact>
</mgrwt>
</event>
<event>
 6    1  0.1568961E-005  0.3605267E+04  0.7818608E-02  0.8089286E-01
          1   -1    0    0  501    0  0.00000000000E+00  0.00000000000E+00  0.22210357444E+04  0.22210357444E+04  0.00000000000E+00 0. -1.
         -1   -1    0    0    0  501 -0.00000000000E+00 -0.00000000000E+00 -0.14630501544E+04  0.14630501544E+04  0.00000000000E+00 0.  1.
         23    2    1    2    0    0 -0.13882601037E+04  0.11291861393E+04  0.58909392747E+03  0.18866288488E+04  0.10004651366E+03 0.  0.
         13    1    3    3    0    0 -0.97587229688E+03  0.74785749695E+03  0.37288547123E+03  0.12847805845E+04  0.00000000000E+00 0. -1.
        -13    1    3    3    0    0 -0.41238780683E+03  0.38132864239E+03  0.21620845624E+03  0.60184826434E+03  0.00000000000E+00 0.  1.
         22    1    1    2    0    0  0.13882601037E+04 -0.11291861393E+04  0.16889166256E+03  0.17974570500E+04  0.00000000000E+00 0.  1.
<mgrwt>
<rscale>  0 0.36052665E+04</rscale>
<asrwt>0</asrwt>
<pdfrwt beam="1">  1        1 0.34169781E+00 0.36052665E+04</pdfrwt>
<pdfrwt beam="2">  1       -1 0.22508464E+00 0.36052665E+04</pdfrwt>
<totfact> 0.17347037E-01</totfact>
</mgrwt>
</event>
<event>
 6    1  0.1568961E-005  0.1431770E+04  0.7818608E-02  0.8931138E-01
          2   -1    0    0  501    0  0.00000000000E+00  0.00000000000E+00  0.33587621385E+04  0.33587621385E+04  0.00000000000E+00 0. -1.
         -2   -1    0    0    0  501 -0.00000000000E+00 -0.00000000000E+00 -0.15258330795E+03  0.15258330795E+03  0.00000000000E+00 0.  1.
         23    2    1    2    0    0 -0.45394552733E+03  0.51656193976E+03  0.20658520905E+04  0.21797119182E+04  0.10245197534E+03 0.  0.
         13    1    3    3    0    0 -0.36758137419E+03  0.43022412353E+03  0.15641818186E+04  0.16633922041E+04  0.00000000000E+00 0. -1.
        -13    1    3    3    0    0 -0.86364153132E+02  0.86337816232E+02  0.50167027191E+03  0.51631971411E+03  0.00000000000E+00 0.  1.
         22    1    1    2    0    0  0.45394552733E+03 -0.51656193976E+03  0.11403267400E+04  0.13316335282E+04  0.00000000000E+00 0.  1.
<mgrwt>
<rscale>  0 0.14317696E+04</rscale>
<asrwt>0</asrwt>
<pdfrwt beam="1">  1        2 0.51673258E+00 0.14317696E+04</pdfrwt>
<pdfrwt beam="2">  1       -2 0.23474358E-01 0.14317696E+04</pdfrwt>
<totfact> 0.16095996E+01</totfact>
</mgrwt>
</event>
<event>
 6    1  0.1568961E-005  0.3000419E+04  0.7818608E-02  0.8243611E-01
          2   -1    0    0  501    0  0.00000000000E+00  0.00000000000E+00  0.16915240440E+04  0.16915240440E+04  0.00000000000E+00 0. -1.
         -2   -1    0    0    0  501 -0.00000000000E+00 -0.00000000000E+00 -0.13305332706E+04  0.13305332706E+04  0.00000000000E+00 0.  1.
         23    2    1    2    0    0 -0.13658475651E+04  0.95132359790E+02 -0.43409598923E+03  0.14387845342E+04  0.84094418316E+02 0.  0.
         11    1    3    3    0    0 -0.34589324273E+03  0.10006627386E+02 -0.74626071673E+02  0.35399338769E+03  0.00000000000E+00 0.  1.
        -11    1    3    3    0    0 -0.10199543223E+04  0.85125732404E+02 -0.35946991756E+03  0.10847911465E+04  0.00000000000E+00 0. -1.
         22    1    1    2    0    0  0.13658475651E+04 -0.95132359790E+02  0.79508676270E+03  0.15832727804E+04  0.00000000000E+00 0. -1.
<mgrwt>
<rscale>  0 0.30004193E+04</rscale>
<asrwt>0</asrwt>
<pdfrwt beam="1">  1        2 0.26023447E+00 0.30004193E+04</pdfrwt>
<pdfrwt beam="2">  1       -2 0.20469743E+00 0.30004193E+04</pdfrwt>
<totfact> 0.10517383E+00</totfact>
</mgrwt>
</event>
<event>
 6    1  0.1568961E-005  0.1396463E+04  0.7818608E-02  0.8956383E-01
          2   -1    0    0  501    0  0.00000000000E+00  0.00000000000E+00  0.10058781906E+04  0.10058781906E+04  0.00000000000E+00 0.  1.
         -2   -1    0    0    0  501 -0.00000000000E+00 -0.00000000000E+00 -0.48467812756E+03  0.48467812756E+03  0.00000000000E+00 0. -1.
         23    2    1    2    0    0 -0.53129544548E+03  0.17675965910E+03 -0.17804947425E+03  0.59475012101E+03  0.92234829075E+02 0.  0.
         13    1    3    3    0    0 -0.37448877596E+03  0.15925229700E+03 -0.10165834160E+03  0.41944910994E+03  0.00000000000E+00 0.  1.
        -13    1    3    3    0    0 -0.15680666952E+03  0.17507362104E+02 -0.76391132656E+02  0.17530101107E+03  0.00000000000E+00 0. -1.
         22    1    1    2    0    0  0.53129544548E+03 -0.17675965910E+03  0.69924953733E+03  0.89580619719E+03  0.00000000000E+00 0.  1.
<mgrwt>
<rscale>  0 0.13964629E+04</rscale>
<asrwt>0</asrwt>
<pdfrwt beam="1">  1        2 0.15475049E+00 0.13964629E+04</pdfrwt>
<pdfrwt beam="2">  1       -2 0.74565866E-01 0.13964629E+04</pdfrwt>
<totfact> 0.39331152E+01</totfact>
</mgrwt>
</event>
<event>
 6    1  0.1568961E-005  0.5345292E+04  0.7818608E-02  0.7777343E-01
          2   -1    0    0  501    0  0.00000000000E+00  0.00000000000E+00  0.28147720567E+04  0.28147720567E+04  0.00000000000E+00 0.  1.
         -2   -1    0    0    0  501 -0.00000000000E+00 -0.00000000000E+00 -0.25376962911E+04  0.25376962911E+04  0.00000000000E+00 0. -1.
         23    2    1    2    0    0  0.22665478331E+04  0.10405043236E+04  0.10984092644E+04  0.27267347277E+04  0.93225728319E+02 0.  0.
         11    1    3    3    0    0  0.12937344177E+04  0.57044484860E+03  0.66732011459E+03  0.15634807975E+04  0.00000000000E+00 0. -1.
        -11    1    3    3    0    0  0.97281341540E+03  0.47005947495E+03  0.43108914977E+03  0.11632539302E+04  0.00000000000E+00 0.  1.
         22    1    1    2    0    0 -0.22665478331E+04 -0.10405043236E+04 -0.82133349875E+03  0.26257336200E+04  0.00000000000E+00 0. -1.
<mgrwt>
<rscale>  0 0.53452920E+04</rscale>
<asrwt>0</asrwt>
<pdfrwt beam="1">  1        2 0.43304185E+00 0.53452920E+04</pdfrwt>
<pdfrwt beam="2">  1       -2 0.39041481E+00 0.53452920E+04</pdfrwt>
<totfact> 0.13761779E-02</totfact>
</mgrwt>
</event>
<event>
 6    1  0.1568961E-005  0.1562026E+04  0.7818608E-02  0.8844223E-01
          1   -1    0    0  501    0  0.00000000000E+00  0.00000000000E+00  0.97876200609E+03  0.97876200609E+03  0.00000000000E+00 0. -1.
         -1   -1    0    0    0  501 -0.00000000000E+00 -0.00000000000E+00 -0.62321726041E+03  0.62321726041E+03  0.00000000000E+00 0.  1.
         23    2    1    2    0    0 -0.44334806188E+03  0.63772012539E+03  0.23158045270E+03  0.81546060287E+03  0.90011257439E+02 0.  0.
         13    1    3    3    0    0 -0.47527176359E+02  0.10668356106E+03  0.10721192234E+02  0.11728238851E+03  0.00000000000E+00 0. -1.
        -13    1    3    3    0    0 -0.39582088552E+03  0.53103656433E+03  0.22085926047E+03  0.69817821436E+03  0.00000000000E+00 0.  1.
         22    1    1    2    0    0  0.44334806188E+03 -0.63772012539E+03  0.12396429298E+03  0.78651866363E+03  0.00000000000E+00 0. -1.
<mgrwt>
<rscale>  0 0.15620261E+04</rscale>
<asrwt>0</asrwt>
<pdfrwt beam="1">  1        1 0.15057877E+00 0.15620261E+04</pdfrwt>
<pdfrwt beam="2">  1       -1 0.95879579E-01 0.15620261E+04</pdfrwt>
<totfact> 0.15876760E+01</totfact>
</mgrwt>
</event>
<event>
 6    1  0.1568961E-005  0.2192979E+04  0.7818608E-02  0.8521356E-01
          2   -1    0    0  501    0  0.00000000000E+00  0.00000000000E+00  0.15669818691E+04  0.15669818691E+04  0.00000000000E+00 0. -1.
         -2   -1    0    0    0  501 -0.00000000000E+00 -0.00000000000E+00 -0.76726461175E+03  0.76726461175E+03  0.00000000000E+00 0.  1.
         23    2    1    2    0    0  0.18078028896E+03 -0.94395993224E+03 -0.15684004556E+03  0.97824362674E+03  0.92843560980E+02 0.  0.
         11    1    3    3    0    0  0.43588568765E+02 -0.98365663934E+02 -0.33967162794E+02  0.11282524237E+03  0.00000000000E+00 0.  1.
        -11    1    3    3    0    0  0.13719172020E+03 -0.84559426831E+03 -0.12287288276E+03  0.86541838437E+03  0.00000000000E+00 0. -1.
         22    1    1    2    0    0 -0.18078028896E+03  0.94395993224E+03  0.95655730287E+03  0.13560028541E+04  0.00000000000E+00 0. -1.
<mgrwt>
<rscale>  0 0.21929795E+04</rscale>
<asrwt>0</asrwt>
<pdfrwt beam="1">  1        2 0.24107413E+00 0.21929795E+04</pdfrwt>
<pdfrwt beam="2">  1       -2 0.11804071E+00 0.21929795E+04</pdfrwt>
<totfact> 0.58879665E+00</totfact>
</mgrwt>
</event>
<event>
 6    1  0.1568961E-005  0.2729602E+04  0.7818608E-02  0.8325464E-01
          1   -1    0    0  501    0  0.00000000000E+00  0.00000000000E+00  0.37486356539E+04  0.37486356539E+04  0.00000000000E+00 0. -1.
         -1   -1    0    0    0  501 -0.00000000000E+00 -0.00000000000E+00 -0.49689582789E+03  0.49689582789E+03  0.00000000000E+00 0.  1.
         23    2    1    2    0    0  0.10589918911E+04  0.74395274823E+03  0.22942881781E+04  0.26356733592E+04  0.89923829707E+02 0.  0.
         11    1    3    3    0    0  0.37163848626E+03  0.31097159533E+03  0.88788598833E+03  0.10115137299E+04  0.00000000000E+00 0. -1.
        -11    1    3    3    0    0  0.68735340480E+03  0.43298115290E+03  0.14064021898E+04  0.16241596292E+04  0.00000000000E+00 0.  1.
         22    1    1    2    0    0 -0.10589918911E+04 -0.74395274823E+03  0.95745164797E+03  0.16098581227E+04  0.00000000000E+00 0.  1.
<mgrwt>
<rscale>  0 0.27296017E+04</rscale>
<asrwt>0</asrwt>
<pdfrwt beam="1">  1        1 0.57671316E+00 0.27296017E+04</pdfrwt>
<pdfrwt beam="2">  1       -1 0.76445514E-01 0.27296017E+04</pdfrwt>
<totfact> 0.23538700E-01</totfact>
</mgrwt>
</event>
<event>
 6    1  0.1568961E-005  0.2691337E+04  0.7818608E-02  0.8337821E-01
         -1   -1    0    0    0  501 -0.00000000000E+00  0.00000000000E+00  0.12668194722E+04  0.12668194722E+04  0.00000000000E+00 0.  1.
          1   -1    0    0  501    0  0.00000000000E+00 -0.00000000000E+00 -0.14294255154E+04  0.14294255154E+04  0.00000000000E+00 0. -1.
         23    2    1    2    0    0 -0.45049214641E+03 -0.12260372216E+04  0.23606643363E+03  0.13305765847E+04  0.92715931203E+02 0.  0.
         11    1    3    3    0    0 -0.34455983640E+03 -0.10158644503E+04  0.21707920070E+03  0.10944521194E+04  0.00000000000E+00 0. -1.
        -11    1    3    3    0    0 -0.10593231001E+03 -0.21017277130E+03  0.18987232929E+02  0.23612446530E+03  0.00000000000E+00 0.  1.
         22    1    1    2    0    0  0.45049214641E+03  0.12260372216E+04 -0.39867247681E+03  0.13656684028E+04  0.00000000000E+00 0. -1.
<mgrwt>
<rscale>  0 0.26913373E+04</rscale>
<asrwt>0</asrwt>
<pdfrwt beam="1">  1        1 0.21991162E+00 0.26913373E+04</pdfrwt>
<pdfrwt beam="2">  1       -1 0.19489530E+00 0.26913373E+04</pdfrwt>
<totfact> 0.10453844E+00</totfact>
</mgrwt>
</event>
<event>
 6    1  0.1568961E-005  0.2633472E+04  0.7818608E-02  0.8356920E-01
          1   -1    0    0  501    0  0.00000000000E+00  0.00000000000E+00  0.36887542631E+04  0.36887542631E+04  0.00000000000E+00 0. -1.
         -1   -1    0    0    0  501 -0.00000000000E+00 -0.00000000000E+00 -0.47002140840E+03  0.47002140840E+03  0.00000000000E+00 0.  1.
         23    2    1    2    0    0  0.38178892989E+03  0.11250246196E+04  0.25020465934E+04  0.27713022919E+04  0.91848005915E+02 0.  0.
         13    1    3    3    0    0  0.28536340706E+03  0.70413548247E+03  0.16049441192E+04  0.17756927317E+04  0.00000000000E+00 0. -1.
        -13    1    3    3    0    0  0.96425522829E+02  0.42088913717E+03  0.89710247417E+03  0.99560956022E+03  0.00000000000E+00 0.  1.
         22    1    1    2    0    0 -0.38178892989E+03 -0.11250246196E+04  0.71668626132E+03  0.13874733795E+04  0.00000000000E+00 0.  1.
<mgrwt>
<rscale>  0 0.26334718E+04</rscale>
<asrwt>0</asrwt>
<pdfrwt beam="1">  1        1 0.56750064E+00 0.26334718E+04</pdfrwt>
<pdfrwt beam="2">  1       -1 0.72310988E-01 0.26334718E+04</pdfrwt>
<totfact> 0.29878662E-01</totfact>
</mgrwt>
</event>
<event>
 6    1  0.1568961E-005  0.3162055E+04  0.7818608E-02  0.8198911E-01
         -2   -1    0    0    0  501 -0.00000000000E+00  0.00000000000E+00  0.20676191862E+04  0.20676191862E+04  0.00000000000E+00 0. -1.
          2   -1    0    0  501    0  0.00000000000E+00 -0.00000000000E+00 -0.12089500973E+04  0.12089500973E+04  0.00000000000E+00 0.  1.
         23    2    1    2    0    0  0.42456697908E+03 -0.11987387297E+04 -0.54094396168E+03  0.13854985939E+04  0.98763973103E+02 0.  0.
         13    1    3    3    0    0  0.27484275678E+03 -0.79588746649E+03 -0.30738148850E+03  0.89635862228E+03  0.00000000000E+00 0.  1.
        -13    1    3    3    0    0  0.14972422229E+03 -0.40285126318E+03 -0.23356247318E+03  0.48913997165E+03  0.00000000000E+00 0. -1.
         22    1    1    2    0    0 -0.42456697908E+03  0.11987387297E+04  0.13996130506E+04  0.18910706896E+04  0.00000000000E+00 0. -1.
<mgrwt>
<rscale>  0 0.31620553E+04</rscale>
<asrwt>0</asrwt>
<pdfrwt beam="1">  1        2 0.18599232E+00 0.31620553E+04</pdfrwt>
<pdfrwt beam="2">  1       -2 0.31809526E+00 0.31620553E+04</pdfrwt>
<totfact> 0.38871660E-01</totfact>
</mgrwt>
</event>
<event>
 6    1  0.1568961E-005  0.3082373E+04  0.7818608E-02  0.8220592E-01
         -2   -1    0    0    0  501 -0.00000000000E+00  0.00000000000E+00  0.94167988984E+03  0.94167988984E+03  0.00000000000E+00 0.  1.
          2   -1    0    0  501    0  0.00000000000E+00 -0.00000000000E+00 -0.25223606083E+04  0.25223606083E+04  0.00000000000E+00 0. -1.
         23    2    1    2    0    0  0.41833441171E+03 -0.53658049045E+03  0.76143993771E+03  0.10250957528E+04  0.90045660128E+02 0.  0.
         11    1    3    3    0    0  0.24874132824E+03 -0.29721986551E+03  0.49609641128E+03  0.62954233067E+03  0.00000000000E+00 0.  1.
        -11    1    3    3    0    0  0.16959308347E+03 -0.23936062494E+03  0.26534352643E+03  0.39555342212E+03  0.00000000000E+00 0. -1.
         22    1    1    2    0    0 -0.41833441171E+03  0.53658049045E+03 -0.23421206562E+04  0.24389447453E+04  0.00000000000E+00 0. -1.
<mgrwt>
<rscale>  0 0.30823733E+04</rscale>
<asrwt>0</asrwt>
<pdfrwt beam="1">  1        2 0.38805547E+00 0.30823733E+04</pdfrwt>
<pdfrwt beam="2">  1       -2 0.14487383E+00 0.30823733E+04</pdfrwt>
<totfact> 0.94322696E-01</totfact>
</mgrwt>
</event>
<event>
 6    1  0.1568961E-005  0.4782411E+03  0.7818608E-02  0.1019620E+00
          2   -1    0    0  501    0  0.00000000000E+00  0.00000000000E+00  0.54374834172E+03  0.54374834172E+03  0.00000000000E+00 0. -1.
         -2   -1    0    0    0  501 -0.00000000000E+00 -0.00000000000E+00 -0.10515641590E+03  0.10515641590E+03  0.00000000000E+00 0.  1.
         23    2    1    2    0    0  0.17239677644E+03  0.15298148620E+03  0.24637719896E+03  0.34878730584E+03  0.88469638315E+02 0.  0.
         11    1    3    3    0    0  0.17635171163E+03  0.12097538363E+03  0.22287775758E+03  0.30888422502E+03  0.00000000000E+00 0. -1.
        -11    1    3    3    0    0 -0.39549351992E+01  0.32006102568E+02  0.23499441382E+02  0.39903080824E+02  0.00000000000E+00 0.  1.
         22    1    1    2    0    0 -0.17239677644E+03 -0.15298148620E+03  0.19221472686E+03  0.30011745179E+03  0.00000000000E+00 0.  1.
<mgrwt>
<rscale>  0 0.47824106E+03</rscale>
<asrwt>0</asrwt>
<pdfrwt beam="1">  1        2 0.83653589E-01 0.47824106E+03</pdfrwt>
<pdfrwt beam="2">  1       -2 0.16177910E-01 0.47824106E+03</pdfrwt>
<totfact> 0.17152893E+03</totfact>
</mgrwt>
</event>
<event>
 6    1  0.1568961E-005  0.8991099E+03  0.7818608E-02  0.9426695E-01
         -2   -1    0    0    0  501 -0.00000000000E+00  0.00000000000E+00  0.12472421227E+03  0.12472421227E+03  0.00000000000E+00 0.  1.
          2   -1    0    0  501    0  0.00000000000E+00 -0.00000000000E+00 -0.16203722883E+04  0.16203722883E+04  0.00000000000E+00 0. -1.
         23    2    1    2    0    0 -0.25536461683E+03  0.22125661221E+03 -0.19391712290E+03  0.40022883039E+03  0.91726169351E+02 0.  0.
         13    1    3    3    0    0  0.56958199481E+01  0.19095982275E+02 -0.11342117529E+02  0.22929076169E+02  0.00000000000E+00 0.  1.
        -13    1    3    3    0    0 -0.26106043678E+03  0.20216062994E+03 -0.18257500537E+03  0.37729975422E+03  0.00000000000E+00 0. -1.
         22    1    1    2    0    0  0.25536461683E+03 -0.22125661221E+03 -0.13017309531E+04  0.13448676702E+04  0.00000000000E+00 0. -1.
<mgrwt>
<rscale>  0 0.89910991E+03</rscale>
<asrwt>0</asrwt>
<pdfrwt beam="1">  1        2 0.24928805E+00 0.89910991E+03</pdfrwt>
<pdfrwt beam="2">  1       -2 0.19188340E-01 0.89910991E+03</pdfrwt>
<totfact> 0.25066281E+02</totfact>
</mgrwt>
</event>
<event>
 6    1  0.1568961E-005  0.8656988E+03  0.7818608E-02  0.9469505E-01
         -2   -1    0    0    0  501 -0.00000000000E+00  0.00000000000E+00  0.66750690414E+03  0.66750690414E+03  0.00000000000E+00 0.  1.
          2   -1    0    0  501    0  0.00000000000E+00 -0.00000000000E+00 -0.28068415109E+03  0.28068415109E+03  0.00000000000E+00 0. -1.
         23    2    1    2    0    0 -0.22047712472E+03  0.11434233685E+03  0.57730902223E+03  0.63519049410E+03  0.92178761802E+02 0.  0.
         11    1    3    3    0    0 -0.17413090408E+03  0.42255343791E+02  0.39518244744E+03  0.43390811539E+03  0.00000000000E+00 0. -1.
        -11    1    3    3    0    0 -0.46346220639E+02  0.72086993059E+02  0.18212657478E+03  0.20128237871E+03  0.00000000000E+00 0.  1.
         22    1    1    2    0    0  0.22047712472E+03 -0.11434233685E+03 -0.19048626918E+03  0.31300056113E+03  0.00000000000E+00 0. -1.
<mgrwt>
<rscale>  0 0.86569881E+03</rscale>
<asrwt>0</asrwt>
<pdfrwt beam="1">  1        2 0.43182177E-01 0.86569881E+03</pdfrwt>
<pdfrwt beam="2">  1       -2 0.10269337E+00 0.86569881E+03</pdfrwt>
<totfact> 0.92114533E+01</totfact>
</mgrwt>
</event>
<event>
 6    1  0.1568961E-005  0.2105503E+04  0.7818608E-02  0.8558823E-01
         -1   -1    0    0    0  501 -0.00000000000E+00  0.00000000000E+00  0.48927133709E+03  0.48927133709E+03  0.00000000000E+00 0.  1.
          1   -1    0    0  501    0  0.00000000000E+00 -0.00000000000E+00 -0.22651758714E+04  0.22651758714E+04  0.00000000000E+00 0. -1.
         23    2    1    2    0    0  0.37119785768E+03 -0.28214158606E+02  0.39632412292E+03  0.55055038070E+03  0.86307722680E+02 0.  0.
         13    1    3    3    0    0  0.31468494326E+03  0.82842535253E+01  0.32235787754E+03  0.45056613674E+03  0.00000000000E+00 0. -1.
        -13    1    3    3    0    0  0.56512914421E+02 -0.36498412131E+02  0.73966245376E+02  0.99984243956E+02  0.00000000000E+00 0.  1.
         22    1    1    2    0    0 -0.37119785768E+03  0.28214158606E+02 -0.21722286572E+04  0.22038968278E+04  0.00000000000E+00 0. -1.
<mgrwt>
<rscale>  0 0.21055029E+04</rscale>
<asrwt>0</asrwt>
<pdfrwt beam="1">  1        1 0.34848860E+00 0.21055029E+04</pdfrwt>
<pdfrwt beam="2">  1       -1 0.75272513E-01 0.21055029E+04</pdfrwt>
<totfact> 0.32069815E+00</totfact>
</mgrwt>
</event>
<event>
 6    1  0.1568961E-005  0.3259806E+04  0.7818608E-02  0.8173199E-01
         -2   -1    0    0    0  501 -0.00000000000E+00  0.00000000000E+00  0.91933936864E+03  0.91933936864E+03  0.00000000000E+00 0. -1.
          2   -1    0    0  501    0  0.00000000000E+00 -0.00000000000E+00 -0.28896658780E+04  0.28896658780E+04  0.00000000000E+00 0.  1.
         23    2    1    2    0    0 -0.19619149846E+03 -0.11783958395E+04  0.30773054788E+03  0.12367199175E+04  0.87579709977E+02 0.  0.
         11    1    3    3    0    0 -0.19565078528E+03 -0.97785574651E+03  0.26018806162E+03  0.10306206471E+04  0.00000000000E+00 0.  1.
        -11    1    3    3    0    0 -0.54071318460E+00 -0.20054009298E+03  0.47542486261E+02  0.20609927041E+03  0.00000000000E+00 0. -1.
         22    1    1    2    0    0  0.19619149846E+03  0.11783958395E+04 -0.22780570572E+04  0.25722853292E+04  0.00000000000E+00 0.  1.
<mgrwt>
<rscale>  0 0.32598059E+04</rscale>
<asrwt>0</asrwt>
<pdfrwt beam="1">  1        2 0.44456398E+00 0.32598059E+04</pdfrwt>
<pdfrwt beam="2">  1       -2 0.14143683E+00 0.32598059E+04</pdfrwt>
<totfact> 0.59710306E-01</totfact>
</mgrwt>
</event>
<event>
 6    1  0.1568961E-005  0.2821969E+04  0.7818608E-02  0.8296480E-01
          1   -1    0    0  501    0  0.00000000000E+00  0.00000000000E+00  0.21120045309E+04  0.21120045309E+04  0.00000000000E+00 0. -1.
         -1   -1    0    0    0  501 -0.00000000000E+00 -0.00000000000E+00 -0.94264824953E+03  0.94264824953E+03  0.00000000000E+00 0.  1.
         23    2    1    2    0    0 -0.11726109471E+04 -0.67325864779E+03  0.15467200923E+03  0.13641268823E+04  0.92871311771E+02 0.  0.
         11    1    3    3    0    0 -0.89829306026E+03 -0.54575935157E+03  0.14881979364E+03  0.10615700744E+04  0.00000000000E+00 0. -1.
        -11    1    3    3    0    0 -0.27431788683E+03 -0.12749929622E+03  0.58522155928E+01  0.30255680789E+03  0.00000000000E+00 0.  1.
         22    1    1    2    0    0  0.11726109471E+04  0.67325864779E+03  0.10146842721E+04  0.16905258981E+04  0.00000000000E+00 0.  1.
<mgrwt>
<rscale>  0 0.28219691E+04</rscale>
<asrwt>0</asrwt>
<pdfrwt beam="1">  1        1 0.32492377E+00 0.28219691E+04</pdfrwt>
<pdfrwt beam="2">  1       -1 0.14502281E+00 0.28219691E+04</pdfrwt>
<totfact> 0.82523928E-01</totfact>
</mgrwt>
</event>
<event>
 6    1  0.1568961E-005  0.4542325E+04  0.7818608E-02  0.7903268E-01
          2   -1    0    0  501    0  0.00000000000E+00  0.00000000000E+00  0.35420548436E+04  0.35420548436E+04  0.00000000000E+00 0. -1.
         -2   -1    0    0    0  501 -0.00000000000E+00 -0.00000000000E+00 -0.14562676887E+04  0.14562676887E+04  0.00000000000E+00 0.  1.
         23    2    1    2    0    0  0.59638674345E+03  0.30907630705E+02 -0.13668293409E+04  0.14944399578E+04  0.92173266747E+02 0.  0.
         11    1    3    3    0    0  0.92800991848E+02  0.11562413984E+02 -0.30635717346E+03  0.32031302071E+03  0.00000000000E+00 0.  1.
        -11    1    3    3    0    0  0.50358575161E+03  0.19345216721E+02 -0.10604721674E+04  0.11741269371E+04  0.00000000000E+00 0. -1.
         22    1    1    2    0    0 -0.59638674345E+03 -0.30907630705E+02  0.34526164957E+04  0.35038825745E+04  0.00000000000E+00 0. -1.
<mgrwt>
<rscale>  0 0.45423254E+04</rscale>
<asrwt>0</asrwt>
<pdfrwt beam="1">  1        2 0.54493151E+00 0.45423254E+04</pdfrwt>
<pdfrwt beam="2">  1       -2 0.22404118E+00 0.45423254E+04</pdfrwt>
<totfact> 0.53326471E-02</totfact>
</mgrwt>
</event>
<event>
 6    1  0.1568961E-005  0.3999458E+04  0.7818608E-02  0.8004656E-01
          1   -1    0    0  501    0  0.00000000000E+00  0.00000000000E+00  0.17250953656E+04  0.17250953656E+04  0.00000000000E+00 0. -1.
         -1   -1    0    0    0  501 -0.00000000000E+00 -0.00000000000E+00 -0.23180835361E+04  0.23180835361E+04  0.00000000000E+00 0.  1.
         23    2    1    2    0    0  0.17188938751E+04  0.92764533442E+03  0.13217375317E+03  0.19596766013E+04  0.87979886162E+02 0.  0.
         11    1    3    3    0    0  0.13061418693E+04  0.72176274895E+03  0.66529381885E+02  0.14937785000E+04  0.00000000000E+00 0. -1.
        -11    1    3    3    0    0  0.41275200580E+03  0.20588258547E+03  0.65644371281E+02  0.46589810128E+03  0.00000000000E+00 0.  1.
         22    1    1    2    0    0 -0.17188938751E+04 -0.92764533442E+03 -0.72516192375E+03  0.20835023004E+04  0.00000000000E+00 0. -1.
<mgrwt>
<rscale>  0 0.39994575E+04</rscale>
<asrwt>0</asrwt>
<pdfrwt beam="1">  1        1 0.26539929E+00 0.39994575E+04</pdfrwt>
<pdfrwt beam="2">  1       -1 0.35662824E+00 0.39994575E+04</pdfrwt>
<totfact> 0.50324392E-02</totfact>
</mgrwt>
</event>
<event>
 6    1  0.1568961E-005  0.2683704E+04  0.7818608E-02  0.8340312E-01
          2   -1    0    0  501    0  0.00000000000E+00  0.00000000000E+00  0.22636941080E+04  0.22636941080E+04  0.00000000000E+00 0. -1.
         -2   -1    0    0    0  501 -0.00000000000E+00 -0.00000000000E+00 -0.79541108049E+03  0.79541108049E+03  0.00000000000E+00 0.  1.
         23    2    1    2    0    0 -0.80274382324E+02  0.13023456421E+04  0.38528549422E+03  0.13633953651E+04  0.88622014215E+02 0.  0.
         11    1    3    3    0    0 -0.37792357852E+02  0.47637173032E+03  0.18496337085E+03  0.51241558945E+03  0.00000000000E+00 0. -1.
        -11    1    3    3    0    0 -0.42482024472E+02  0.82597391183E+03  0.20032212337E+03  0.85097977563E+03  0.00000000000E+00 0.  1.
         22    1    1    2    0    0  0.80274382324E+02 -0.13023456421E+04  0.10829975333E+04  0.16957098234E+04  0.00000000000E+00 0. -1.
<mgrwt>
<rscale>  0 0.26837044E+04</rscale>
<asrwt>0</asrwt>
<pdfrwt beam="1">  1        2 0.34826063E+00 0.26837044E+04</pdfrwt>
<pdfrwt beam="2">  1       -2 0.12237094E+00 0.26837044E+04</pdfrwt>
<totfact> 0.21115507E+00</totfact>
</mgrwt>
</event>
<event>
 6    1  0.1568961E-005  0.2487164E+04  0.7818608E-02  0.8407573E-01
          2   -1    0    0  501    0  0.00000000000E+00  0.00000000000E+00  0.17578995489E+04  0.17578995489E+04  0.00000000000E+00 0. -1.
         -2   -1    0    0    0  501 -0.00000000000E+00 -0.00000000000E+00 -0.87974076190E+03  0.87974076190E+03  0.00000000000E+00 0.  1.
         23    2    1    2    0    0  0.89379074226E+03 -0.85048903994E+03  0.28884492927E+03  0.12703494416E+04  0.90348285457E+02 0.  0.
         13    1    3    3    0    0  0.60499185282E+03 -0.52640622324E+03  0.16248767765E+03  0.81824256748E+03  0.00000000000E+00 0.  1.
        -13    1    3    3    0    0  0.28879888943E+03 -0.32408281670E+03  0.12635725161E+03  0.45210687415E+03  0.00000000000E+00 0. -1.
         22    1    1    2    0    0 -0.89379074226E+03  0.85048903994E+03  0.58931385773E+03  0.13672908692E+04  0.00000000000E+00 0. -1.
<mgrwt>
<rscale>  0 0.24871638E+04</rscale>
<asrwt>0</asrwt>
<pdfrwt beam="1">  1        2 0.27044608E+00 0.24871638E+04</pdfrwt>
<pdfrwt beam="2">  1       -2 0.13534473E+00 0.24871638E+04</pdfrwt>
<totfact> 0.31870040E+00</totfact>
</mgrwt>
</event>
<event>
 6    1  0.1568961E-005  0.1892215E+04  0.7818608E-02  0.8658741E-01
         -2   -1    0    0    0  501 -0.00000000000E+00  0.00000000000E+00  0.91719231729E+03  0.91719231729E+03  0.00000000000E+00 0.  1.
          2   -1    0    0  501    0  0.00000000000E+00 -0.00000000000E+00 -0.97593386652E+03  0.97593386652E+03  0.00000000000E+00 0. -1.
         23    2    1    2    0    0 -0.44297164883E+03  0.51357120812E+03 -0.68634106613E+03  0.96908050252E+03  0.89853735800E+02 0.  0.
         13    1    3    3    0    0 -0.20449038367E+03  0.21457359931E+03 -0.24074270342E+03  0.38185755955E+03  0.00000000000E+00 0.  1.
        -13    1    3    3    0    0 -0.23848126516E+03  0.29899760881E+03 -0.44559836271E+03  0.58722294297E+03  0.00000000000E+00 0. -1.
         22    1    1    2    0    0  0.44297164883E+03 -0.51357120812E+03  0.62759951691E+03  0.92404568129E+03  0.00000000000E+00 0.  1.
<mgrwt>
<rscale>  0 0.18922146E+04</rscale>
<asrwt>0</asrwt>
<pdfrwt beam="1">  1        2 0.15014367E+00 0.18922146E+04</pdfrwt>
<pdfrwt beam="2">  1       -2 0.14110651E+00 0.18922146E+04</pdfrwt>
<totfact> 0.86086281E+00</totfact>
</mgrwt>
</event>
<event>
 6    1  0.1568961E-005  0.2898316E+04  0.7818608E-02  0.8273379E-01
          2   -1    0    0  501    0  0.00000000000E+00  0.00000000000E+00  0.21723330590E+04  0.21723330590E+04  0.00000000000E+00 0. -1.
         -2   -1    0    0    0  501 -0.00000000000E+00 -0.00000000000E+00 -0.96672966605E+03  0.96672966605E+03  0.00000000000E+00 0.  1.
         23    2    1    2    0    0 -0.26089024995E+02 -0.54110229453E+03  0.20577603261E+04  0.21292886073E+04  0.77589196352E+02 0.  0.
         11    1    3    3    0    0 -0.52352114882E+02 -0.28653155858E+03  0.11113561774E+04  0.11488923497E+04  0.00000000000E+00 0. -1.
        -11    1    3    3    0    0  0.26263089887E+02 -0.25457073595E+03  0.94640414863E+03  0.98039625766E+03  0.00000000000E+00 0.  1.
         22    1    1    2    0    0  0.26089024995E+02  0.54110229453E+03 -0.85215693306E+03  0.10097741178E+04  0.00000000000E+00 0.  1.
<mgrwt>
<rscale>  0 0.28983159E+04</rscale>
<asrwt>0</asrwt>
<pdfrwt beam="1">  1        2 0.33420508E+00 0.28983159E+04</pdfrwt>
<pdfrwt beam="2">  1       -2 0.14872764E+00 0.28983159E+04</pdfrwt>
<totfact> 0.14157946E+00</totfact>
</mgrwt>
</event>
<event>
 6    1  0.1568961E-005  0.3165371E+04  0.7818608E-02  0.8198023E-01
          1   -1    0    0  501    0  0.00000000000E+00  0.00000000000E+00  0.16954562379E+04  0.16954562379E+04  0.00000000000E+00 0. -1.
         -1   -1    0    0    0  501 -0.00000000000E+00 -0.00000000000E+00 -0.14774158350E+04  0.14774158350E+04  0.00000000000E+00 0.  1.
         23    2    1    2    0    0  0.11191282397E+04 -0.10130611567E+04  0.58110586102E+03  0.16202750708E+04  0.94161347053E+02 0.  0.
         13    1    3    3    0    0  0.10241611027E+04 -0.95465004241E+03  0.55255955017E+03  0.15051859434E+04  0.00000000000E+00 0. -1.
        -13    1    3    3    0    0  0.94967136984E+02 -0.58411114259E+02  0.28546310843E+02  0.11508912737E+03  0.00000000000E+00 0.  1.
         22    1    1    2    0    0 -0.11191282397E+04  0.10130611567E+04 -0.36306545818E+03  0.15525970021E+04  0.00000000000E+00 0.  1.
<mgrwt>
<rscale>  0 0.31653713E+04</rscale>
<asrwt>0</asrwt>
<pdfrwt beam="1">  1        1 0.26083942E+00 0.31653713E+04</pdfrwt>
<pdfrwt beam="2">  1       -1 0.22729474E+00 0.31653713E+04</pdfrwt>
<totfact> 0.39628958E-01</totfact>
</mgrwt>
</event>
<event>
 6    1  0.1568961E-005  0.5199208E+04  0.7818608E-02  0.7798491E-01
         -2   -1    0    0    0  501 -0.00000000000E+00  0.00000000000E+00  0.42852732287E+04  0.42852732287E+04  0.00000000000E+00 0.  1.
          2   -1    0    0  501    0  0.00000000000E+00 -0.00000000000E+00 -0.15770152618E+04  0.15770152618E+04  0.00000000000E+00 0. -1.
         23    2    1    2    0    0 -0.50358293635E+03 -0.18889872879E+03  0.42213562464E+04  0.42564413909E+04  0.90367317031E+02 0.  0.
         13    1    3    3    0    0 -0.15865952902E+03 -0.33909883793E+02  0.15467312053E+04  0.15552170742E+04  0.00000000000E+00 0. -1.
        -13    1    3    3    0    0 -0.34492340733E+03 -0.15498884499E+03  0.26746250411E+04  0.27012243167E+04  0.00000000000E+00 0.  1.
         22    1    1    2    0    0  0.50358293635E+03  0.18889872879E+03 -0.15130982795E+04  0.16058470995E+04  0.00000000000E+00 0. -1.
<mgrwt>
<rscale>  0 0.51992081E+04</rscale>
<asrwt>0</asrwt>
<pdfrwt beam="1">  1        2 0.24261773E+00 0.51992081E+04</pdfrwt>
<pdfrwt beam="2">  1       -2 0.65927280E+00 0.51992081E+04</pdfrwt>
<totfact> 0.26076600E-03</totfact>
</mgrwt>
</event>
<event>
 6    1  0.1568961E-005  0.1878475E+04  0.7818608E-02  0.8665645E-01
         -1   -1    0    0    0  501 -0.00000000000E+00  0.00000000000E+00  0.60087306162E+03  0.60087306162E+03  0.00000000000E+00 0.  1.
          1   -1    0    0  501    0  0.00000000000E+00 -0.00000000000E+00 -0.14681428942E+04  0.14681428942E+04  0.00000000000E+00 0. -1.
         23    2    1    2    0    0  0.30485149034E+03 -0.38898968200E+03 -0.13114810242E+04  0.14045078771E+04  0.91719660415E+02 0.  0.
         13    1    3    3    0    0  0.16754813365E+03 -0.25869517348E+03 -0.90675947310E+03  0.95770993099E+03  0.00000000000E+00 0.  1.
        -13    1    3    3    0    0  0.13730335669E+03 -0.13029450852E+03 -0.40472155109E+03  0.44679794609E+03  0.00000000000E+00 0. -1.
         22    1    1    2    0    0 -0.30485149034E+03  0.38898968200E+03  0.44421119166E+03  0.66450807870E+03  0.00000000000E+00 0.  1.
<mgrwt>
<rscale>  0 0.18784755E+04</rscale>
<asrwt>0</asrwt>
<pdfrwt beam="1">  1        1 0.22586814E+00 0.18784755E+04</pdfrwt>
<pdfrwt beam="2">  1       -1 0.92442010E-01 0.18784755E+04</pdfrwt>
<totfact> 0.73443480E+00</totfact>
</mgrwt>
</event>
<event>
 6    1  0.1568961E-005  0.1847333E+04  0.7818608E-02  0.8681526E-01
          1   -1    0    0  501    0  0.00000000000E+00  0.00000000000E+00  0.89859607830E+03  0.89859607830E+03  0.00000000000E+00 0. -1.
         -1   -1    0    0    0  501 -0.00000000000E+00 -0.00000000000E+00 -0.94943587268E+03  0.94943587268E+03  0.00000000000E+00 0.  1.
         23    2    1    2    0    0 -0.10193699157E+03 -0.89964419299E+03  0.14547545653E+03  0.92159225949E+03  0.91751621651E+02 0.  0.
         13    1    3    3    0    0 -0.42687486419E+02 -0.46229416259E+03  0.11996795383E+03  0.47951060907E+03  0.00000000000E+00 0. -1.
        -13    1    3    3    0    0 -0.59249505154E+02 -0.43735003039E+03  0.25507502709E+02  0.44208165042E+03  0.00000000000E+00 0.  1.
         22    1    1    2    0    0  0.10193699157E+03  0.89964419299E+03 -0.19631525092E+03  0.92643969149E+03  0.00000000000E+00 0.  1.
<mgrwt>
<rscale>  0 0.18473325E+04</rscale>
<asrwt>0</asrwt>
<pdfrwt beam="1">  1        1 0.13824555E+00 0.18473325E+04</pdfrwt>
<pdfrwt beam="2">  1       -1 0.14606706E+00 0.18473325E+04</pdfrwt>
<totfact> 0.64253799E+00</totfact>
</mgrwt>
</event>
<event>
 6    1  0.1568961E-005  0.3294531E+04  0.7818608E-02  0.8164288E-01
         -2   -1    0    0    0  501 -0.00000000000E+00  0.00000000000E+00  0.12054035660E+04  0.12054035660E+04  0.00000000000E+00 0.  1.
          2   -1    0    0  501    0  0.00000000000E+00 -0.00000000000E+00 -0.22510991497E+04  0.22510991497E+04  0.00000000000E+00 0. -1.
         23    2    1    2    0    0 -0.84878912214E+03 -0.38910313534E+03 -0.19454446632E+04  0.21598174687E+04  0.90621944233E+02 0.  0.
         13    1    3    3    0    0 -0.22945925159E+03 -0.11086676460E+03 -0.62726489091E+03  0.67705555976E+03  0.00000000000E+00 0. -1.
        -13    1    3    3    0    0 -0.61932987056E+03 -0.27823637074E+03 -0.13181797723E+04  0.14827619089E+04  0.00000000000E+00 0.  1.
         22    1    1    2    0    0  0.84878912214E+03  0.38910313534E+03  0.89974907951E+03  0.12966852470E+04  0.00000000000E+00 0.  1.
<mgrwt>
<rscale>  0 0.32945306E+04</rscale>
<asrwt>0</asrwt>
<pdfrwt beam="1">  1        2 0.34632294E+00 0.32945306E+04</pdfrwt>
<pdfrwt beam="2">  1       -2 0.18544671E+00 0.32945306E+04</pdfrwt>
<totfact> 0.67179642E-01</totfact>
</mgrwt>
</event>
<event>
 6    1  0.1568961E-005  0.3332720E+04  0.7818608E-02  0.8154619E-01
          2   -1    0    0  501    0  0.00000000000E+00  0.00000000000E+00  0.40955868576E+04  0.40955868576E+04  0.00000000000E+00 0.  1.
         -2   -1    0    0    0  501 -0.00000000000E+00 -0.00000000000E+00 -0.67798709942E+03  0.67798709942E+03  0.00000000000E+00 0. -1.
         23    2    1    2    0    0  0.11863314150E+04  0.11609040789E+04  0.15238186005E+04  0.22553429152E+04  0.97303808054E+02 0.  0.
         11    1    3    3    0    0  0.44088539740E+03  0.41205242998E+03  0.61522480113E+03  0.86178227797E+03  0.00000000000E+00 0.  1.
        -11    1    3    3    0    0  0.74544601765E+03  0.74885164896E+03  0.90859379937E+03  0.13935606372E+04  0.00000000000E+00 0. -1.
         22    1    1    2    0    0 -0.11863314150E+04 -0.11609040789E+04  0.18937811577E+04  0.25182310418E+04  0.00000000000E+00 0. -1.
<mgrwt>
<rscale>  0 0.33327196E+04</rscale>
<asrwt>0</asrwt>
<pdfrwt beam="1">  1        2 0.63009027E+00 0.33327196E+04</pdfrwt>
<pdfrwt beam="2">  1       -2 0.10430571E+00 0.33327196E+04</pdfrwt>
<totfact> 0.17714554E-01</totfact>
</mgrwt>
</event>
<event>
 6    1  0.1568961E-005  0.6552995E+04  0.7818608E-02  0.7625378E-01
         -2   -1    0    0    0  501 -0.00000000000E+00  0.00000000000E+00  0.33061579958E+04  0.33061579958E+04  0.00000000000E+00 0.  1.
          2   -1    0    0  501    0  0.00000000000E+00 -0.00000000000E+00 -0.32471034594E+04  0.32471034594E+04  0.00000000000E+00 0. -1.
         23    2    1    2    0    0  0.32240046810E+04  0.19937286180E+03 -0.51601985853E+03  0.32723063685E+04  0.88072434698E+02 0.  0.
         11    1    3    3    0    0  0.23770646032E+04  0.15360432650E+03 -0.34175872661E+03  0.24064142296E+04  0.00000000000E+00 0.  1.
        -11    1    3    3    0    0  0.84694007778E+03  0.45768535298E+02 -0.17426113192E+03  0.86589213893E+03  0.00000000000E+00 0. -1.
         22    1    1    2    0    0 -0.32240046810E+04 -0.19937286180E+03  0.57507439496E+03  0.32809550867E+04  0.00000000000E+00 0.  1.
<mgrwt>
<rscale>  0 0.65529954E+04</rscale>
<asrwt>0</asrwt>
<pdfrwt beam="1">  1        2 0.49955438E+00 0.65529954E+04</pdfrwt>
<pdfrwt beam="2">  1       -2 0.50863969E+00 0.65529954E+04</pdfrwt>
<totfact> 0.11534507E-03</totfact>
</mgrwt>
</event>
<event>
 6    1  0.1568961E-005  0.2871166E+04  0.7818608E-02  0.8281508E-01
          1   -1    0    0  501    0  0.00000000000E+00  0.00000000000E+00  0.23944322133E+04  0.23944322133E+04  0.00000000000E+00 0. -1.
         -1   -1    0    0    0  501 -0.00000000000E+00 -0.00000000000E+00 -0.86070444978E+03  0.86070444978E+03  0.00000000000E+00 0.  1.
         23    2    1    2    0    0 -0.57995266344E+02 -0.45544739525E+03  0.23079880948E+04  0.23549839864E+04  0.91349602106E+02 0.  0.
         11    1    3    3    0    0  0.86008437571E+01 -0.17937243496E+03  0.10587843003E+04  0.10739053215E+04  0.00000000000E+00 0. -1.
        -11    1    3    3    0    0 -0.66596110101E+02 -0.27607496029E+03  0.12492037945E+04  0.12810786649E+04  0.00000000000E+00 0.  1.
         22    1    1    2    0    0  0.57995266344E+02  0.45544739525E+03 -0.77426033126E+03  0.90015267667E+03  0.00000000000E+00 0.  1.
<mgrwt>
<rscale>  0 0.28711659E+04</rscale>
<asrwt>0</asrwt>
<pdfrwt beam="1">  1        1 0.36837419E+00 0.28711659E+04</pdfrwt>
<pdfrwt beam="2">  1       -1 0.13241607E+00 0.28711659E+04</pdfrwt>
<totfact> 0.66726062E-01</totfact>
</mgrwt>
</event>
<event>
 6    1  0.1568961E-005  0.4707795E+04  0.7818608E-02  0.7875235E-01
          2   -1    0    0  501    0  0.00000000000E+00  0.00000000000E+00  0.44187117752E+04  0.44187117752E+04  0.00000000000E+00 0. -1.
         -2   -1    0    0    0  501 -0.00000000000E+00 -0.00000000000E+00 -0.12539474776E+04  0.12539474776E+04  0.00000000000E+00 0.  1.
         23    2    1    2    0    0  0.21497873288E+02 -0.10606128876E+04  0.41140297077E+04  0.42491190621E+04  0.66411684549E+02 0.  0.
         13    1    3    3    0    0  0.26536542287E+02 -0.81622238797E+03  0.30580284861E+04  0.31651953173E+04  0.00000000000E+00 0. -1.
        -13    1    3    3    0    0 -0.50386689993E+01 -0.24439049965E+03  0.10560012216E+04  0.10839237448E+04  0.00000000000E+00 0.  1.
         22    1    1    2    0    0 -0.21497873288E+02  0.10606128876E+04 -0.94926541011E+03  0.14235401908E+04  0.00000000000E+00 0.  1.
<mgrwt>
<rscale>  0 0.47077946E+04</rscale>
<asrwt>0</asrwt>
<pdfrwt beam="1">  1        2 0.67980180E+00 0.47077946E+04</pdfrwt>
<pdfrwt beam="2">  1       -2 0.19291500E+00 0.47077946E+04</pdfrwt>
<totfact> 0.16138626E-02</totfact>
</mgrwt>
</event>
<event>
 6    1  0.1568961E-005  0.2468502E+04  0.7818608E-02  0.8414293E-01
          2   -1    0    0  501    0  0.00000000000E+00  0.00000000000E+00  0.11927126783E+04  0.11927126783E+04  0.00000000000E+00 0.  1.
         -2   -1    0    0    0  501 -0.00000000000E+00 -0.00000000000E+00 -0.12772361951E+04  0.12772361951E+04  0.00000000000E+00 0. -1.
         23    2    1    2    0    0  0.33234842986E+03 -0.81895313246E+03  0.81734416403E+03  0.12072117568E+04  0.90382692927E+02 0.  0.
         13    1    3    3    0    0  0.20571868728E+03 -0.38954871567E+03  0.39219609142E+03  0.58981874699E+03  0.00000000000E+00 0. -1.
        -13    1    3    3    0    0  0.12662974259E+03 -0.42940441679E+03  0.42514807261E+03  0.61739300977E+03  0.00000000000E+00 0.  1.
         22    1    1    2    0    0 -0.33234842986E+03  0.81895313246E+03 -0.90186768080E+03  0.12627371166E+04  0.00000000000E+00 0. -1.
<mgrwt>
<rscale>  0 0.24685022E+04</rscale>
<asrwt>0</asrwt>
<pdfrwt beam="1">  1        2 0.18349426E+00 0.24685022E+04</pdfrwt>
<pdfrwt beam="2">  1       -2 0.19649788E+00 0.24685022E+04</pdfrwt>
<totfact> 0.23996338E+00</totfact>
</mgrwt>
</event>
<event>
 6    1  0.1568961E-005  0.1359440E+04  0.7818608E-02  0.8983712E-01
          1   -1    0    0  501    0  0.00000000000E+00  0.00000000000E+00  0.17921715540E+04  0.17921715540E+04  0.00000000000E+00 0. -1.
         -1   -1    0    0    0  501 -0.00000000000E+00 -0.00000000000E+00 -0.25779875479E+03  0.25779875479E+03  0.00000000000E+00 0.  1.
         23    2    1    2    0    0 -0.26630142046E+03 -0.38499071355E+03  0.15071368423E+04  0.15810608363E+04  0.95695404769E+02 0.  0.
         11    1    3    3    0    0 -0.22737880950E+03 -0.26298583262E+03  0.11638734656E+04  0.12146868382E+04  0.00000000000E+00 0. -1.
        -11    1    3    3    0    0 -0.38922610962E+02 -0.12200488094E+03  0.34326337675E+03  0.36637399803E+03  0.00000000000E+00 0.  1.
         22    1    1    2    0    0  0.26630142046E+03  0.38499071355E+03  0.27235956891E+02  0.46890947251E+03  0.00000000000E+00 0.  1.
<mgrwt>
<rscale>  0 0.13594405E+04</rscale>
<asrwt>0</asrwt>
<pdfrwt beam="1">  1        1 0.27571869E+00 0.13594405E+04</pdfrwt>
<pdfrwt beam="2">  1       -1 0.39661348E-01 0.13594405E+04</pdfrwt>
<totfact> 0.24966128E+01</totfact>
</mgrwt>
</event>
<event>
 6    1  0.1568961E-005  0.1704771E+04  0.7818608E-02  0.8758648E-01
         -2   -1    0    0    0  501 -0.00000000000E+00  0.00000000000E+00  0.41160450814E+03  0.41160450814E+03  0.00000000000E+00 0.  1.
          2   -1    0    0  501    0  0.00000000000E+00 -0.00000000000E+00 -0.17651928062E+04  0.17651928062E+04  0.00000000000E+00 0. -1.
         23    2    1    2    0    0  0.23370953578E+03 -0.65517558979E+03 -0.55344178468E+02  0.70393853135E+03  0.92689143116E+02 0.  0.
         13    1    3    3    0    0  0.99047591450E+02 -0.36500490725E+03  0.58143745807E+01  0.37824967236E+03  0.00000000000E+00 0. -1.
        -13    1    3    3    0    0  0.13466194433E+03 -0.29017068254E+03 -0.61158553049E+02  0.32568885898E+03  0.00000000000E+00 0.  1.
         22    1    1    2    0    0 -0.23370953578E+03  0.65517558979E+03 -0.12982441196E+04  0.14728587830E+04  0.00000000000E+00 0. -1.
<mgrwt>
<rscale>  0 0.17047713E+04</rscale>
<asrwt>0</asrwt>
<pdfrwt beam="1">  1        2 0.27156812E+00 0.17047713E+04</pdfrwt>
<pdfrwt beam="2">  1       -2 0.63323771E-01 0.17047713E+04</pdfrwt>
<totfact> 0.19812860E+01</totfact>
</mgrwt>
</event>
<event>
 6    1  0.1568961E-005  0.4563015E+04  0.7818608E-02  0.7899697E-01
          2   -1    0    0  501    0  0.00000000000E+00  0.00000000000E+00  0.28578098179E+04  0.28578098179E+04  0.00000000000E+00 0.  1.
         -2   -1    0    0    0  501 -0.00000000000E+00 -0.00000000000E+00 -0.18214218589E+04  0.18214218589E+04  0.00000000000E+00 0. -1.
         23    2    1    2    0    0 -0.18002418824E+04  0.13694872206E+04  0.22222209731E+03  0.22752283214E+04  0.10447569724E+03 0.  0.
         11    1    3    3    0    0 -0.54998619875E+03  0.36679855587E+03  0.88917101305E+02  0.66703242073E+03  0.00000000000E+00 0. -1.
        -11    1    3    3    0    0 -0.12502556836E+04  0.10026886648E+04  0.13330499600E+03  0.16081959006E+04  0.00000000000E+00 0.  1.
         22    1    1    2    0    0  0.18002418824E+04 -0.13694872206E+04  0.81416586171E+03  0.24040033554E+04  0.00000000000E+00 0. -1.
<mgrwt>
<rscale>  0 0.45630153E+04</rscale>
<asrwt>0</asrwt>
<pdfrwt beam="1">  1        2 0.43966305E+00 0.45630153E+04</pdfrwt>
<pdfrwt beam="2">  1       -2 0.28021875E+00 0.45630153E+04</pdfrwt>
<totfact> 0.67473062E-02</totfact>
</mgrwt>
</event>
<event>
 6    1  0.1568961E-005  0.2421201E+04  0.7818608E-02  0.8431609E-01
          2   -1    0    0  501    0  0.00000000000E+00  0.00000000000E+00  0.16376408534E+04  0.16376408534E+04  0.00000000000E+00 0. -1.
         -2   -1    0    0    0  501 -0.00000000000E+00 -0.00000000000E+00 -0.89491729855E+03  0.89491729855E+03  0.00000000000E+00 0.  1.
         23    2    1    2    0    0  0.72428412017E+03  0.76199156498E+03  0.99612866799E+03  0.14511549972E+04  0.91432328793E+02 0.  0.
         11    1    3    3    0    0  0.61767107501E+03  0.69280000125E+03  0.87594352642E+03  0.12762313506E+04  0.00000000000E+00 0.  1.
        -11    1    3    3    0    0  0.10661304516E+03  0.69191563729E+02  0.12018514156E+03  0.17492364660E+03  0.00000000000E+00 0. -1.
         22    1    1    2    0    0 -0.72428412017E+03 -0.76199156498E+03 -0.25340511314E+03  0.10814031548E+04  0.00000000000E+00 0.  1.
<mgrwt>
<rscale>  0 0.24212006E+04</rscale>
<asrwt>0</asrwt>
<pdfrwt beam="1">  1        2 0.25194475E+00 0.24212006E+04</pdfrwt>
<pdfrwt beam="2">  1       -2 0.13767958E+00 0.24212006E+04</pdfrwt>
<totfact> 0.35777467E+00</totfact>
</mgrwt>
</event>
<event>
 6    1  0.1568961E-005  0.1062451E+04  0.7818608E-02  0.9242583E-01
          2   -1    0    0  501    0  0.00000000000E+00  0.00000000000E+00  0.11026425962E+04  0.11026425962E+04  0.00000000000E+00 0. -1.
         -2   -1    0    0    0  501 -0.00000000000E+00 -0.00000000000E+00 -0.25593090261E+03  0.25593090261E+03  0.00000000000E+00 0.  1.
         23    2    1    2    0    0  0.24570815590E+03 -0.43236698831E+03  0.20254015668E+03  0.54477335171E+03  0.91879155488E+02 0.  0.
         11    1    3    3    0    0  0.14035130652E+03 -0.29024105663E+03  0.88627598251E+02  0.33435491826E+03  0.00000000000E+00 0.  1.
        -11    1    3    3    0    0  0.10535684938E+03 -0.14212593168E+03  0.11391255843E+03  0.21041843345E+03  0.00000000000E+00 0. -1.
         22    1    1    2    0    0 -0.24570815590E+03  0.43236698831E+03  0.64417153696E+03  0.81380014714E+03  0.00000000000E+00 0. -1.
<mgrwt>
<rscale>  0 0.10624506E+04</rscale>
<asrwt>0</asrwt>
<pdfrwt beam="1">  1        2 0.16963732E+00 0.10624506E+04</pdfrwt>
<pdfrwt beam="2">  1       -2 0.39373986E-01 0.10624506E+04</pdfrwt>
<totfact> 0.13161699E+02</totfact>
</mgrwt>
</event>
<event>
 6    1  0.1568961E-005  0.3300418E+04  0.7818608E-02  0.8162789E-01
         -1   -1    0    0    0  501 -0.00000000000E+00  0.00000000000E+00  0.22429552521E+04  0.22429552521E+04  0.00000000000E+00 0.  1.
          1   -1    0    0  501    0  0.00000000000E+00 -0.00000000000E+00 -0.12141075616E+04  0.12141075616E+04  0.00000000000E+00 0. -1.
         23    2    1    2    0    0  0.90854961448E+03  0.11568295184E+03 -0.92195902654E+03  0.13019545114E+04  0.78944005126E+02 0.  0.
         13    1    3    3    0    0  0.52392573062E+03  0.38298649996E+02 -0.56584283693E+03  0.77210302026E+03  0.00000000000E+00 0. -1.
        -13    1    3    3    0    0  0.38462388386E+03  0.77384301840E+02 -0.35611618961E+03  0.52985149118E+03  0.00000000000E+00 0.  1.
         22    1    1    2    0    0 -0.90854961448E+03 -0.11568295184E+03  0.19508067170E+04  0.21551083022E+04  0.00000000000E+00 0.  1.
<mgrwt>
<rscale>  0 0.33004175E+04</rscale>
<asrwt>0</asrwt>
<pdfrwt beam="1">  1        1 0.18678578E+00 0.33004175E+04</pdfrwt>
<pdfrwt beam="2">  1       -1 0.34507004E+00 0.33004175E+04</pdfrwt>
<totfact> 0.14495053E-01</totfact>
</mgrwt>
</event>
<event>
 6    1  0.1568961E-005  0.7693937E+03  0.7818608E-02  0.9605406E-01
         -2   -1    0    0    0  501 -0.00000000000E+00  0.00000000000E+00  0.53967467497E+03  0.53967467497E+03  0.00000000000E+00 0.  1.
          2   -1    0    0  501    0  0.00000000000E+00 -0.00000000000E+00 -0.27422388340E+03  0.27422388340E+03  0.00000000000E+00 0. -1.
         23    2    1    2    0    0  0.33122579549E+03 -0.17362045504E+03  0.20185601586E+03  0.43455849260E+03  0.90777983794E+02 0.  0.
         13    1    3    3    0    0  0.60358350254E+02  0.39410427397E+01  0.39727422991E+02  0.72366638728E+02  0.00000000000E+00 0. -1.
        -13    1    3    3    0    0  0.27086744523E+03 -0.17756149778E+03  0.16212859287E+03  0.36219185387E+03  0.00000000000E+00 0.  1.
         22    1    1    2    0    0 -0.33122579549E+03  0.17362045504E+03  0.63594775702E+02  0.37934006577E+03  0.00000000000E+00 0. -1.
<mgrwt>
<rscale>  0 0.76939375E+03</rscale>
<asrwt>0</asrwt>
<pdfrwt beam="1">  1        2 0.42188290E-01 0.76939375E+03</pdfrwt>
<pdfrwt beam="2">  1       -2 0.83026873E-01 0.76939375E+03</pdfrwt>
<totfact> 0.15555156E+02</totfact>
</mgrwt>
</event>
<event>
 6    1  0.1568961E-005  0.1920756E+04  0.7818608E-02  0.8644593E-01
          2   -1    0    0  501    0  0.00000000000E+00  0.00000000000E+00  0.39002018988E+04  0.39002018988E+04  0.00000000000E+00 0. -1.
         -2   -1    0    0    0  501 -0.00000000000E+00 -0.00000000000E+00 -0.23648158186E+03  0.23648158186E+03  0.00000000000E+00 0.  1.
         23    2    1    2    0    0 -0.20305534813E+03 -0.67220972969E+03  0.43217244064E+03  0.82972126861E+03  0.92557928016E+02 0.  0.
         13    1    3    3    0    0 -0.20032308442E+03 -0.58332918279E+03  0.40018082273E+03  0.73521899087E+03  0.00000000000E+00 0.  1.
        -13    1    3    3    0    0 -0.27322637008E+01 -0.88880546900E+02  0.31991617915E+02  0.94502277745E+02  0.00000000000E+00 0. -1.
         22    1    1    2    0    0  0.20305534813E+03  0.67220972969E+03  0.32315478763E+04  0.33069622121E+04  0.00000000000E+00 0. -1.
<mgrwt>
<rscale>  0 0.19207560E+04</rscale>
<asrwt>0</asrwt>
<pdfrwt beam="1">  1        2 0.60003102E+00 0.19207560E+04</pdfrwt>
<pdfrwt beam="2">  1       -2 0.36381785E-01 0.19207560E+04</pdfrwt>
<totfact> 0.27620002E+00</totfact>
</mgrwt>
</event>
<event>
 6    1  0.1818284E-005  0.4344483E+04  0.7818608E-02  0.7938444E-01
          1   -1    0    0  501    0  0.00000000000E+00  0.00000000000E+00  0.18003463980E+04  0.18003463980E+04  0.00000000000E+00 0. -1.
         -1   -1    0    0    0  501 -0.00000000000E+00 -0.00000000000E+00 -0.26209581032E+04  0.26209581032E+04  0.00000000000E+00 0.  1.
         23    2    1    2    0    0 -0.72336699537E+03 -0.55633732039E+03  0.15945550192E+04  0.18394831807E+04  0.91223016856E+02 0.  0.
         11    1    3    3    0    0 -0.34694303359E+03 -0.22289595749E+03  0.66038857305E+03  0.77856608187E+03  0.00000000000E+00 0. -1.
        -11    1    3    3    0    0 -0.37642396177E+03 -0.33344136290E+03  0.93416644619E+03  0.10609170989E+04  0.00000000000E+00 0.  1.
         22    1    1    2    0    0  0.72336699537E+03  0.55633732039E+03 -0.24151667245E+04  0.25818213205E+04  0.00000000000E+00 0.  1.
<mgrwt>
<rscale>  0 0.43444827E+04</rscale>
<asrwt>0</asrwt>
<pdfrwt beam="1">  1        1 0.27697637E+00 0.43444827E+04</pdfrwt>
<pdfrwt beam="2">  1       -1 0.40322432E+00 0.43444827E+04</pdfrwt>
<totfact> 0.21061297E-02</totfact>
</mgrwt>
</event>
<event>
 6    1  0.1568961E-005  0.3345879E+04  0.7818608E-02  0.8151319E-01
         -2   -1    0    0    0  501 -0.00000000000E+00  0.00000000000E+00  0.15938636536E+04  0.15938636536E+04  0.00000000000E+00 0. -1.
          2   -1    0    0  501    0  0.00000000000E+00 -0.00000000000E+00 -0.17559387305E+04  0.17559387305E+04  0.00000000000E+00 0.  1.
         23    2    1    2    0    0  0.17131136826E+03 -0.12650961549E+04  0.99949729608E+03  0.16238052104E+04  0.89065428745E+02 0.  0.
         11    1    3    3    0    0  0.27882199363E+01 -0.25688966506E+03  0.18036310526E+03  0.31389635857E+03  0.00000000000E+00 0. -1.
        -11    1    3    3    0    0  0.16852314832E+03 -0.10082064898E+04  0.81913419083E+03  0.13099088519E+04  0.00000000000E+00 0.  1.
         22    1    1    2    0    0 -0.17131136826E+03  0.12650961549E+04 -0.11615723729E+04  0.17259971737E+04  0.00000000000E+00 0.  1.
<mgrwt>
<rscale>  0 0.33458792E+04</rscale>
<asrwt>0</asrwt>
<pdfrwt beam="1">  1        2 0.27014442E+00 0.33458792E+04</pdfrwt>
<pdfrwt beam="2">  1       -2 0.24520979E+00 0.33458792E+04</pdfrwt>
<totfact> 0.52250540E-01</totfact>
</mgrwt>
</event>
<event>
 6    1  0.1568961E-005  0.3197326E+04  0.7818608E-02  0.8189524E-01
          2   -1    0    0  501    0  0.00000000000E+00  0.00000000000E+00  0.95542022935E+03  0.95542022935E+03  0.00000000000E+00 0. -1.
         -2   -1    0    0    0  501 -0.00000000000E+00 -0.00000000000E+00 -0.26749723437E+04  0.26749723437E+04  0.00000000000E+00 0.  1.
         23    2    1    2    0    0  0.11662702931E+04 -0.10855215277E+04 -0.98927822762E+03  0.18777250823E+04  0.92933790246E+02 0.  0.
         13    1    3    3    0    0  0.75768265603E+03 -0.64378787307E+03 -0.61346120499E+03  0.11682809948E+04  0.00000000000E+00 0.  1.
        -13    1    3    3    0    0  0.40858763708E+03 -0.44173365460E+03 -0.37581702263E+03  0.70944408749E+03  0.00000000000E+00 0. -1.
         22    1    1    2    0    0 -0.11662702931E+04  0.10855215277E+04 -0.73027388675E+03  0.17526674908E+04  0.00000000000E+00 0. -1.
<mgrwt>
<rscale>  0 0.31973256E+04</rscale>
<asrwt>0</asrwt>
<pdfrwt beam="1">  1        2 0.14698773E+00 0.31973256E+04</pdfrwt>
<pdfrwt beam="2">  1       -2 0.41153420E+00 0.31973256E+04</pdfrwt>
<totfact> 0.14127018E-01</totfact>
</mgrwt>
</event>
<event>
 6    1  0.1568961E-005  0.1374758E+04  0.7818608E-02  0.8972296E-01
         -2   -1    0    0    0  501 -0.00000000000E+00  0.00000000000E+00  0.57843560492E+03  0.57843560492E+03  0.00000000000E+00 0. -1.
          2   -1    0    0  501    0  0.00000000000E+00 -0.00000000000E+00 -0.81684063203E+03  0.81684063203E+03  0.00000000000E+00 0.  1.
         23    2    1    2    0    0  0.48453389018E+03  0.41934072990E+03 -0.36359798167E+03  0.74236505282E+03  0.91009015482E+02 0.  0.
         13    1    3    3    0    0  0.12454142027E+03  0.14906113124E+03 -0.14203720072E+03  0.24063323253E+03  0.00000000000E+00 0. -1.
        -13    1    3    3    0    0  0.35999246991E+03  0.27027959866E+03 -0.22156078095E+03  0.50173182030E+03  0.00000000000E+00 0.  1.
         22    1    1    2    0    0 -0.48453389018E+03 -0.41934072990E+03  0.12519295455E+03  0.65291118412E+03  0.00000000000E+00 0. -1.
<mgrwt>
<rscale>  0 0.13747577E+04</rscale>
<asrwt>0</asrwt>
<pdfrwt beam="1">  1        2 0.12566779E+00 0.13747577E+04</pdfrwt>
<pdfrwt beam="2">  1       -2 0.88990093E-01 0.13747577E+04</pdfrwt>
<totfact> 0.35441278E+01</totfact>
</mgrwt>
</event>
<event>
 6    1  0.1568961E-005  0.2377318E+04  0.7818608E-02  0.8448044E-01
         -2   -1    0    0    0  501 -0.00000000000E+00  0.00000000000E+00  0.47901036887E+03  0.47901036887E+03  0.00000000000E+00 0.  1.
          2   -1    0    0  501    0  0.00000000000E+00 -0.00000000000E+00 -0.29496444781E+04  0.29496444781E+04  0.00000000000E+00 0. -1.
         23    2    1    2    0    0  0.79963498958E+03 -0.50158155131E+03 -0.19826358144E+03  0.96803135186E+03  0.82316956202E+02 0.  0.
         11    1    3    3    0    0  0.70917762698E+03 -0.46997317553E+03 -0.16514832339E+03  0.86664967608E+03  0.00000000000E+00 0. -1.
        -11    1    3    3    0    0  0.90457362601E+02 -0.31608375774E+02 -0.33115258048E+02  0.10138167578E+03  0.00000000000E+00 0.  1.
         22    1    1    2    0    0 -0.79963498958E+03  0.50158155131E+03 -0.22723705278E+04  0.24606234951E+04  0.00000000000E+00 0. -1.
<mgrwt>
<rscale>  0 0.23773181E+04</rscale>
<asrwt>0</asrwt>
<pdfrwt beam="1">  1        2 0.45379146E+00 0.23773181E+04</pdfrwt>
<pdfrwt beam="2">  1       -2 0.73693903E-01 0.23773181E+04</pdfrwt>
<totfact> 0.28009133E+00</totfact>
</mgrwt>
</event>
<event>
 6    1  0.1568961E-005  0.2457788E+04  0.7818608E-02  0.8418180E-01
         -1   -1    0    0    0  501 -0.00000000000E+00  0.00000000000E+00  0.81130214961E+03  0.81130214961E+03  0.00000000000E+00 0.  1.
          1   -1    0    0  501    0  0.00000000000E+00 -0.00000000000E+00 -0.18614281947E+04  0.18614281947E+04  0.00000000000E+00 0. -1.
         23    2    1    2    0    0 -0.69415102782E+03 -0.59379608089E+03 -0.14169889383E+04  0.16883382388E+04  0.90492663630E+02 0.  0.
         13    1    3    3    0    0 -0.46201400292E+03 -0.34543382075E+03 -0.85089150736E+03  0.10280067221E+04  0.00000000000E+00 0.  1.
        -13    1    3    3    0    0 -0.23213702490E+03 -0.24836226014E+03 -0.56609743095E+03  0.66033151668E+03  0.00000000000E+00 0. -1.
         22    1    1    2    0    0  0.69415102782E+03  0.59379608089E+03  0.36686289317E+03  0.98439210556E+03  0.00000000000E+00 0.  1.
<mgrwt>
<rscale>  0 0.24577882E+04</rscale>
<asrwt>0</asrwt>
<pdfrwt beam="1">  1        1 0.28637357E+00 0.24577882E+04</pdfrwt>
<pdfrwt beam="2">  1       -1 0.12481571E+00 0.24577882E+04</pdfrwt>
<totfact> 0.18532050E+00</totfact>
</mgrwt>
</event>
<event>
 6    1  0.1568961E-005  0.2208783E+04  0.7818608E-02  0.8514781E-01
          1   -1    0    0  501    0  0.00000000000E+00  0.00000000000E+00  0.15389028598E+04  0.15389028598E+04  0.00000000000E+00 0. -1.
         -1   -1    0    0    0  501 -0.00000000000E+00 -0.00000000000E+00 -0.79256504591E+03  0.79256504591E+03  0.00000000000E+00 0.  1.
         23    2    1    2    0    0 -0.79465048465E+03  0.27153345959E+03  0.11278720495E+04  0.14090969470E+04  0.90879225437E+02 0.  0.
         13    1    3    3    0    0 -0.56096026886E+03  0.22973085824E+03  0.77769259009E+03  0.98603167046E+03  0.00000000000E+00 0. -1.
        -13    1    3    3    0    0 -0.23369021578E+03  0.41802601346E+02  0.35017945940E+03  0.42306527655E+03  0.00000000000E+00 0.  1.
         22    1    1    2    0    0  0.79465048465E+03 -0.27153345959E+03 -0.38153423564E+03  0.92237095867E+03  0.00000000000E+00 0.  1.
<mgrwt>
<rscale>  0 0.22087830E+04</rscale>
<asrwt>0</asrwt>
<pdfrwt beam="1">  1        1 0.23675429E+00 0.22087830E+04</pdfrwt>
<pdfrwt beam="2">  1       -1 0.12193308E+00 0.22087830E+04</pdfrwt>
<totfact> 0.33337726E+00</totfact>
</mgrwt>
</event>
<event>
 6    1  0.1568961E-005  0.2640873E+04  0.7818608E-02  0.8354449E-01
          2   -1    0    0  501    0  0.00000000000E+00  0.00000000000E+00  0.23118594003E+04  0.23118594003E+04  0.00000000000E+00 0. -1.
         -2   -1    0    0    0  501 -0.00000000000E+00 -0.00000000000E+00 -0.75417757888E+03  0.75417757888E+03  0.00000000000E+00 0.  1.
         23    2    1    2    0    0  0.46535565084E+02 -0.10183780446E+04 -0.19150808446E+03  0.10414568431E+04  0.93260973293E+02 0.  0.
         13    1    3    3    0    0  0.75032139393E+02 -0.78791411614E+03 -0.14815470798E+03  0.80522561674E+03  0.00000000000E+00 0. -1.
        -13    1    3    3    0    0 -0.28496574309E+02 -0.23046392844E+03 -0.43353376474E+02  0.23623122637E+03  0.00000000000E+00 0.  1.
         22    1    1    2    0    0 -0.46535565084E+02  0.10183780446E+04  0.17491899058E+04  0.20245801360E+04  0.00000000000E+00 0. -1.
<mgrwt>
<rscale>  0 0.26408730E+04</rscale>
<asrwt>0</asrwt>
<pdfrwt beam="1">  1        2 0.35567067E+00 0.26408730E+04</pdfrwt>
<pdfrwt beam="2">  1       -2 0.11602732E+00 0.26408730E+04</pdfrwt>
<totfact> 0.22701218E+00</totfact>
</mgrwt>
</event>
<event>
 6    1  0.1568961E-005  0.2262680E+04  0.7818608E-02  0.8492783E-01
          2   -1    0    0  501    0  0.00000000000E+00  0.00000000000E+00  0.61932691314E+03  0.61932691314E+03  0.00000000000E+00 0. -1.
         -2   -1    0    0    0  501 -0.00000000000E+00 -0.00000000000E+00 -0.20666475819E+04  0.20666475819E+04  0.00000000000E+00 0.  1.
         23    2    1    2    0    0 -0.58351205124E+03  0.49949280819E+03 -0.17085002881E+04  0.18746828255E+04  0.74047837460E+02 0.  0.
         11    1    3    3    0    0 -0.29287567399E+03  0.24405710497E+03 -0.93707416347E+03  0.10116560773E+04  0.00000000000E+00 0. -1.
        -11    1    3    3    0    0 -0.29063637726E+03  0.25543570322E+03 -0.77142612468E+03  0.86302674820E+03  0.00000000000E+00 0.  1.
         22    1    1    2    0    0  0.58351205124E+03 -0.49949280819E+03  0.26117961944E+03  0.81129166950E+03  0.00000000000E+00 0. -1.
<mgrwt>
<rscale>  0 0.22626802E+04</rscale>
<asrwt>0</asrwt>
<pdfrwt beam="1">  1        2 0.95281062E-01 0.22626802E+04</pdfrwt>
<pdfrwt beam="2">  1       -2 0.31794579E+00 0.22626802E+04</pdfrwt>
<totfact> 0.10706241E+00</totfact>
</mgrwt>
</event>
<event>
 6    1  0.1568961E-005  0.1270980E+04  0.7818608E-02  0.9052901E-01
         -2   -1    0    0    0  501 -0.00000000000E+00  0.00000000000E+00  0.35483109353E+03  0.35483109353E+03  0.00000000000E+00 0.  1.
          2   -1    0    0  501    0  0.00000000000E+00 -0.00000000000E+00 -0.11381393773E+04  0.11381393773E+04  0.00000000000E+00 0. -1.
         23    2    1    2    0    0 -0.53060714711E+03  0.13293471707E+03 -0.76542480492E+03  0.94567219529E+03  0.95943657382E+02 0.  0.
         13    1    3    3    0    0 -0.11911593310E+03  0.26518511859E+02 -0.24526242549E+03  0.27394432709E+03  0.00000000000E+00 0. -1.
        -13    1    3    3    0    0 -0.41149121400E+03  0.10641620521E+03 -0.52016237943E+03  0.67172786819E+03  0.00000000000E+00 0.  1.
         22    1    1    2    0    0  0.53060714711E+03 -0.13293471707E+03 -0.17883478814E+02  0.54729827551E+03  0.00000000000E+00 0.  1.
<mgrwt>
<rscale>  0 0.12709795E+04</rscale>
<asrwt>0</asrwt>
<pdfrwt beam="1">  1        2 0.17509836E+00 0.12709795E+04</pdfrwt>
<pdfrwt beam="2">  1       -2 0.54589399E-01 0.12709795E+04</pdfrwt>
<totfact> 0.64013693E+01</totfact>
</mgrwt>
</event>
<event>
 6    1  0.1568961E-005  0.3130088E+04  0.7818608E-02  0.8207529E-01
          1   -1    0    0  501    0  0.00000000000E+00  0.00000000000E+00  0.21826487992E+04  0.21826487992E+04  0.00000000000E+00 0. -1.
         -1   -1    0    0    0  501 -0.00000000000E+00 -0.00000000000E+00 -0.11221975680E+04  0.11221975680E+04  0.00000000000E+00 0.  1.
         23    2    1    2    0    0 -0.87267325608E+03 -0.12828612169E+04  0.32512531827E+03  0.15878735334E+04  0.91347531849E+02 0.  0.
         13    1    3    3    0    0 -0.47505939470E+03 -0.77333293904E+03  0.17378093016E+03  0.92408066466E+03  0.00000000000E+00 0.  1.
        -13    1    3    3    0    0 -0.39761386138E+03 -0.50952827790E+03  0.15134438811E+03  0.66379286872E+03  0.00000000000E+00 0. -1.
         22    1    1    2    0    0  0.87267325608E+03  0.12828612169E+04  0.73532591288E+03  0.17169728338E+04  0.00000000000E+00 0. -1.
<mgrwt>
<rscale>  0 0.31300883E+04</rscale>
<asrwt>0</asrwt>
<pdfrwt beam="1">  1        1 0.33579212E+00 0.31300883E+04</pdfrwt>
<pdfrwt beam="2">  1       -1 0.17264578E+00 0.31300883E+04</pdfrwt>
<totfact> 0.44335009E-01</totfact>
</mgrwt>
</event>
<event>
 6    1  0.1568961E-005  0.4576969E+04  0.7818608E-02  0.7897299E-01
         -2   -1    0    0    0  501 -0.00000000000E+00  0.00000000000E+00  0.18110786504E+04  0.18110786504E+04  0.00000000000E+00 0.  1.
          2   -1    0    0  501    0  0.00000000000E+00 -0.00000000000E+00 -0.28917364200E+04  0.28917364200E+04  0.00000000000E+00 0. -1.
         23    2    1    2    0    0 -0.15370563892E+04 -0.52926291445E+03 -0.21942570499E+04  0.27323417939E+04  0.90918105209E+02 0.  0.
         11    1    3    3    0    0 -0.13117520550E+03 -0.53618205794E+02 -0.23481765617E+03  0.27426479573E+03  0.00000000000E+00 0. -1.
        -11    1    3    3    0    0 -0.14058811837E+04 -0.47564470866E+03 -0.19594393937E+04  0.24580769982E+04  0.00000000000E+00 0.  1.
         22    1    1    2    0    0  0.15370563892E+04  0.52926291445E+03  0.11135992802E+04  0.19704732764E+04  0.00000000000E+00 0.  1.
<mgrwt>
<rscale>  0 0.45769693E+04</rscale>
<asrwt>0</asrwt>
<pdfrwt beam="1">  1        2 0.44488252E+00 0.45769693E+04</pdfrwt>
<pdfrwt beam="2">  1       -2 0.27862749E+00 0.45769693E+04</pdfrwt>
<totfact> 0.65693195E-02</totfact>
</mgrwt>
</event>
<event>
 6    1  0.1568961E-005  0.3631598E+04  0.7818608E-02  0.8083292E-01
          2   -1    0    0  501    0  0.00000000000E+00  0.00000000000E+00  0.32448282006E+04  0.32448282006E+04  0.00000000000E+00 0. -1.
         -2   -1    0    0    0  501 -0.00000000000E+00 -0.00000000000E+00 -0.10161175532E+04  0.10161175532E+04  0.00000000000E+00 0.  1.
         23    2    1    2    0    0 -0.80974666415E+03  0.67778969607E+03  0.28465845318E+04  0.30374848149E+04  0.90454252800E+02 0.  0.
         11    1    3    3    0    0 -0.46433697492E+03  0.33237452281E+03  0.15714376929E+04  0.16719743037E+04  0.00000000000E+00 0. -1.
        -11    1    3    3    0    0 -0.34540968923E+03  0.34541517327E+03  0.12751468389E+04  0.13655105112E+04  0.00000000000E+00 0.  1.
         22    1    1    2    0    0  0.80974666415E+03 -0.67778969607E+03 -0.61787388438E+03  0.12234609390E+04  0.00000000000E+00 0.  1.
<mgrwt>
<rscale>  0 0.36315985E+04</rscale>
<asrwt>0</asrwt>
<pdfrwt beam="1">  1        2 0.49920433E+00 0.36315985E+04</pdfrwt>
<pdfrwt beam="2">  1       -2 0.15632578E+00 0.36315985E+04</pdfrwt>
<totfact> 0.26399867E-01</totfact>
</mgrwt>
</event>
<event>
 6    1  0.1568961E-005  0.1052653E+04  0.7818608E-02  0.9252609E-01
          2   -1    0    0  501    0  0.00000000000E+00  0.00000000000E+00  0.86285453826E+03  0.86285453826E+03  0.00000000000E+00 0. -1.
         -2   -1    0    0    0  501 -0.00000000000E+00 -0.00000000000E+00 -0.32105003460E+03  0.32105003460E+03  0.00000000000E+00 0.  1.
         23    2    1    2    0    0  0.11485258830E+03 -0.47991829771E+03  0.80424828689E+02  0.50834266304E+03  0.91822766653E+02 0.  0.
         11    1    3    3    0    0  0.11775428582E+03 -0.30712500553E+03  0.45939565408E+02  0.33211787745E+03  0.00000000000E+00 0.  1.
        -11    1    3    3    0    0 -0.29016975256E+01 -0.17279329218E+03  0.34485263281E+02  0.17622478559E+03  0.00000000000E+00 0. -1.
         22    1    1    2    0    0 -0.11485258830E+03  0.47991829771E+03  0.46137967497E+03  0.67556190982E+03  0.00000000000E+00 0. -1.
<mgrwt>
<rscale>  0 0.10526528E+04</rscale>
<asrwt>0</asrwt>
<pdfrwt beam="1">  1        2 0.13274685E+00 0.10526528E+04</pdfrwt>
<pdfrwt beam="2">  1       -2 0.49392313E-01 0.10526528E+04</pdfrwt>
<totfact> 0.12008290E+02</totfact>
</mgrwt>
</event>
<event>
 6    1  0.1568961E-005  0.3969020E+04  0.7818608E-02  0.8010826E-01
         -1   -1    0    0    0  501 -0.00000000000E+00  0.00000000000E+00  0.16341777398E+04  0.16341777398E+04  0.00000000000E+00 0.  1.
          1   -1    0    0  501    0  0.00000000000E+00 -0.00000000000E+00 -0.24099455619E+04  0.24099455619E+04  0.00000000000E+00 0. -1.
         23    2    1    2    0    0 -0.27481773080E+03  0.66255779425E+03 -0.22721877892E+04  0.23846714845E+04  0.96504527499E+02 0.  0.
         13    1    3    3    0    0 -0.18419798452E+03  0.49427132825E+03 -0.17859401216E+04  0.18622070672E+04  0.00000000000E+00 0.  1.
        -13    1    3    3    0    0 -0.90619746285E+02  0.16828646600E+03 -0.48624766759E+03  0.52246441726E+03  0.00000000000E+00 0. -1.
         22    1    1    2    0    0  0.27481773080E+03 -0.66255779425E+03  0.14964199670E+04  0.16594518172E+04  0.00000000000E+00 0.  1.
<mgrwt>
<rscale>  0 0.39690197E+04</rscale>
<asrwt>0</asrwt>
<pdfrwt beam="1">  1        1 0.37076085E+00 0.39690197E+04</pdfrwt>
<pdfrwt beam="2">  1       -1 0.25141196E+00 0.39690197E+04</pdfrwt>
<totfact> 0.83750827E-02</totfact>
</mgrwt>
</event>
<event>
 6    1  0.1568961E-005  0.3206658E+04  0.7818608E-02  0.8187061E-01
          2   -1    0    0  501    0  0.00000000000E+00  0.00000000000E+00  0.16104384157E+04  0.16104384157E+04  0.00000000000E+00 0. -1.
         -2   -1    0    0    0  501 -0.00000000000E+00 -0.00000000000E+00 -0.15962506711E+04  0.15962506711E+04  0.00000000000E+00 0.  1.
         23    2    1    2    0    0 -0.85205553018E+03 -0.12604403048E+04 -0.49464675561E+03  0.16024381909E+04  0.91784281749E+02 0.  0.
         11    1    3    3    0    0 -0.21030921956E+03 -0.25214529585E+03 -0.87550711497E+02  0.33981222040E+03  0.00000000000E+00 0.  1.
        -11    1    3    3    0    0 -0.64174631062E+03 -0.10082950090E+04 -0.40709604411E+03  0.12626259705E+04  0.00000000000E+00 0. -1.
         22    1    1    2    0    0  0.85205553018E+03  0.12604403048E+04  0.50883450021E+03  0.16042508959E+04  0.00000000000E+00 0. -1.
<mgrwt>
<rscale>  0 0.32066577E+04</rscale>
<asrwt>0</asrwt>
<pdfrwt beam="1">  1        2 0.24775976E+00 0.32066577E+04</pdfrwt>
<pdfrwt beam="2">  1       -2 0.24557703E+00 0.32066577E+04</pdfrwt>
<totfact> 0.63363282E-01</totfact>
</mgrwt>
</event>
<event>
 6    1  0.1568961E-005  0.7937301E+03  0.7818608E-02  0.9569137E-01
          1   -1    0    0  501    0  0.00000000000E+00  0.00000000000E+00  0.39293076903E+04  0.39293076903E+04  0.00000000000E+00 0. -1.
         -1   -1    0    0    0  501 -0.00000000000E+00 -0.00000000000E+00 -0.40083868130E+02  0.40083868130E+02  0.00000000000E+00 0.  1.
         23    2    1    2    0    0 -0.33790001452E+03 -0.18778718026E+03  0.22859676644E+04  0.23201884926E+04  0.90476702402E+02 0.  0.
         11    1    3    3    0    0 -0.27360097375E+03 -0.10742497009E+03  0.17222164454E+04  0.17471196587E+04  0.00000000000E+00 0. -1.
        -11    1    3    3    0    0 -0.64299040771E+02 -0.80362210170E+02  0.56375121904E+03  0.57306883394E+03  0.00000000000E+00 0.  1.
         22    1    1    2    0    0  0.33790001452E+03  0.18778718026E+03  0.16032561578E+04  0.16492030659E+04  0.00000000000E+00 0.  1.
<mgrwt>
<rscale>  0 0.79373006E+03</rscale>
<asrwt>0</asrwt>
<pdfrwt beam="1">  1        1 0.60450857E+00 0.79373006E+03</pdfrwt>
<pdfrwt beam="2">  1       -1 0.61667521E-02 0.79373006E+03</pdfrwt>
<totfact> 0.16148064E+01</totfact>
</mgrwt>
</event>
<event>
 6    1  0.1568961E-005  0.2083314E+04  0.7818608E-02  0.8568630E-01
          2   -1    0    0  501    0  0.00000000000E+00  0.00000000000E+00  0.31863685715E+04  0.31863685715E+04  0.00000000000E+00 0. -1.
         -2   -1    0    0    0  501 -0.00000000000E+00 -0.00000000000E+00 -0.34052846307E+03  0.34052846307E+03  0.00000000000E+00 0.  1.
         23    2    1    2    0    0 -0.64825721870E+03 -0.51186591114E+03  0.24945107762E+04  0.26293022305E+04  0.91662829026E+02 0.  0.
         11    1    3    3    0    0 -0.70576520671E+02 -0.50522115916E+02  0.36267411128E+03  0.37291559428E+03  0.00000000000E+00 0.  1.
        -11    1    3    3    0    0 -0.57768069802E+03 -0.46134379522E+03  0.21318366650E+04  0.22563866363E+04  0.00000000000E+00 0. -1.
         22    1    1    2    0    0  0.64825721870E+03  0.51186591114E+03  0.35132933221E+03  0.89759480404E+03  0.00000000000E+00 0.  1.
<mgrwt>
<rscale>  0 0.20833139E+04</rscale>
<asrwt>0</asrwt>
<pdfrwt beam="1">  1        2 0.49021053E+00 0.20833139E+04</pdfrwt>
<pdfrwt beam="2">  1       -2 0.52388996E-01 0.20833139E+04</pdfrwt>
<totfact> 0.42115632E+00</totfact>
</mgrwt>
</event>
<event>
 6    1  0.1568961E-005  0.3853655E+03  0.7818608E-02  0.1048968E+00
          1   -1    0    0  501    0  0.00000000000E+00  0.00000000000E+00  0.23978881349E+03  0.23978881349E+03  0.00000000000E+00 0. -1.
         -1   -1    0    0    0  501 -0.00000000000E+00 -0.00000000000E+00 -0.15483055939E+03  0.15483055939E+03  0.00000000000E+00 0.  1.
         23    2    1    2    0    0 -0.25202356261E+02 -0.13975523593E+03 -0.64469854429E+02  0.18847514096E+03  0.10582925824E+03 0.  0.
         13    1    3    3    0    0  0.22384462713E+01 -0.90638733899E+02  0.14185024468E+02  0.91769306654E+02  0.00000000000E+00 0. -1.
        -13    1    3    3    0    0 -0.27440802533E+02 -0.49116502031E+02 -0.78654878898E+02  0.96705834311E+02  0.00000000000E+00 0.  1.
         22    1    1    2    0    0  0.25202356261E+02  0.13975523593E+03  0.14942810853E+03  0.20614423191E+03  0.00000000000E+00 0. -1.
<mgrwt>
<rscale>  0 0.38536547E+03</rscale>
<asrwt>0</asrwt>
<pdfrwt beam="1">  1        1 0.36890587E-01 0.38536547E+03</pdfrwt>
<pdfrwt beam="2">  1       -1 0.23820086E-01 0.38536547E+03</pdfrwt>
<totfact> 0.17664086E+03</totfact>
</mgrwt>
</event>
<event>
 6    1  0.1568961E-005  0.2833092E+04  0.7818608E-02  0.8293068E-01
         -1   -1    0    0    0  501 -0.00000000000E+00  0.00000000000E+00  0.11300279584E+04  0.11300279584E+04  0.00000000000E+00 0.  1.
          1   -1    0    0  501    0  0.00000000000E+00 -0.00000000000E+00 -0.17757105404E+04  0.17757105404E+04  0.00000000000E+00 0. -1.
         23    2    1    2    0    0 -0.12065589689E+04 -0.32618246008E+03 -0.10035293043E+04  0.16056485714E+04  0.94110187441E+02 0.  0.
         11    1    3    3    0    0 -0.28423586638E+03 -0.36484698826E+02 -0.23768267360E+03  0.37230929926E+03  0.00000000000E+00 0. -1.
        -11    1    3    3    0    0 -0.92232310253E+03 -0.28969776126E+03 -0.76584663072E+03  0.12333392721E+04  0.00000000000E+00 0.  1.
         22    1    1    2    0    0  0.12065589689E+04  0.32618246008E+03  0.35784672239E+03  0.13000899274E+04  0.00000000000E+00 0.  1.
<mgrwt>
<rscale>  0 0.28330920E+04</rscale>
<asrwt>0</asrwt>
<pdfrwt beam="1">  1        1 0.27318624E+00 0.28330920E+04</pdfrwt>
<pdfrwt beam="2">  1       -1 0.17385046E+00 0.28330920E+04</pdfrwt>
<totfact> 0.84248514E-01</totfact>
</mgrwt>
</event>
<event>
 6    1  0.1568961E-005  0.3036502E+04  0.7818608E-02  0.8233384E-01
         -2   -1    0    0    0  501 -0.00000000000E+00  0.00000000000E+00  0.17322840937E+04  0.17322840937E+04  0.00000000000E+00 0.  1.
          2   -1    0    0  501    0  0.00000000000E+00 -0.00000000000E+00 -0.13306625974E+04  0.13306625974E+04  0.00000000000E+00 0. -1.
         23    2    1    2    0    0 -0.72555857423E+02  0.43584195200E+03  0.16647463500E+04  0.17247736994E+04  0.90781851672E+02 0.  0.
         11    1    3    3    0    0 -0.76653253309E+02  0.24332416876E+03  0.10515327566E+04  0.10820367417E+04  0.00000000000E+00 0.  1.
        -11    1    3    3    0    0  0.40973958855E+01  0.19251778324E+03  0.61321359344E+03  0.64273695762E+03  0.00000000000E+00 0. -1.
         22    1    1    2    0    0  0.72555857423E+02 -0.43584195200E+03 -0.12631248538E+04  0.13381729917E+04  0.00000000000E+00 0. -1.
<mgrwt>
<rscale>  0 0.30365017E+04</rscale>
<asrwt>0</asrwt>
<pdfrwt beam="1">  1        2 0.20471732E+00 0.30365017E+04</pdfrwt>
<pdfrwt beam="2">  1       -2 0.26650525E+00 0.30365017E+04</pdfrwt>
<totfact> 0.68935170E-01</totfact>
</mgrwt>
</event>
<event>
 6    1  0.1568961E-005  0.2347951E+04  0.7818608E-02  0.8459251E-01
         -1   -1    0    0    0  501 -0.00000000000E+00  0.00000000000E+00  0.68896971829E+03  0.68896971829E+03  0.00000000000E+00 0.  1.
          1   -1    0    0  501    0  0.00000000000E+00 -0.00000000000E+00 -0.20004053858E+04  0.20004053858E+04  0.00000000000E+00 0. -1.
         23    2    1    2    0    0  0.26100518984E+03 -0.75526487357E+03 -0.16389424239E+04  0.18257725255E+04  0.93617881827E+02 0.  0.
         13    1    3    3    0    0  0.13235142312E+03 -0.43483170784E+03 -0.83210398248E+03  0.94815217714E+03  0.00000000000E+00 0.  1.
        -13    1    3    3    0    0  0.12865376673E+03 -0.32043316573E+03 -0.80683844138E+03  0.87762034837E+03  0.00000000000E+00 0. -1.
         22    1    1    2    0    0 -0.26100518984E+03  0.75526487357E+03  0.32750675631E+03  0.86360257863E+03  0.00000000000E+00 0.  1.
<mgrwt>
<rscale>  0 0.23479512E+04</rscale>
<asrwt>0</asrwt>
<pdfrwt beam="1">  1        1 0.30775467E+00 0.23479512E+04</pdfrwt>
<pdfrwt beam="2">  1       -1 0.10599534E+00 0.23479512E+04</pdfrwt>
<totfact> 0.22321094E+00</totfact>
</mgrwt>
</event>
<event>
 6    1  0.1568961E-005  0.2746080E+04  0.7818608E-02  0.8320206E-01
          1   -1    0    0  501    0  0.00000000000E+00  0.00000000000E+00  0.16148379272E+04  0.16148379272E+04  0.00000000000E+00 0. -1.
         -1   -1    0    0    0  501 -0.00000000000E+00 -0.00000000000E+00 -0.11674480799E+04  0.11674480799E+04  0.00000000000E+00 0.  1.
         23    2    1    2    0    0  0.42314131607E+03 -0.13039145509E+04  0.26935124683E+03  0.13999186635E+04  0.89333314078E+02 0.  0.
         13    1    3    3    0    0  0.30959426715E+03 -0.10104058947E+04  0.17335928072E+03  0.10708978114E+04  0.00000000000E+00 0.  1.
        -13    1    3    3    0    0  0.11354704892E+03 -0.29350865614E+03  0.95991966114E+02  0.32902085209E+03  0.00000000000E+00 0. -1.
         22    1    1    2    0    0 -0.42314131607E+03  0.13039145509E+04  0.17803860048E+03  0.13823673436E+04  0.00000000000E+00 0. -1.
<mgrwt>
<rscale>  0 0.27460804E+04</rscale>
<asrwt>0</asrwt>
<pdfrwt beam="1">  1        1 0.24843660E+00 0.27460804E+04</pdfrwt>
<pdfrwt beam="2">  1       -1 0.17960740E+00 0.27460804E+04</pdfrwt>
<totfact> 0.99304994E-01</totfact>
</mgrwt>
</event>
<event>
 6    1  0.1568961E-005  0.4456303E+04  0.7818608E-02  0.7918332E-01
         -2   -1    0    0    0  501 -0.00000000000E+00  0.00000000000E+00  0.21142197469E+04  0.21142197469E+04  0.00000000000E+00 0.  1.
          2   -1    0    0  501    0  0.00000000000E+00 -0.00000000000E+00 -0.23482227125E+04  0.23482227125E+04  0.00000000000E+00 0. -1.
         23    2    1    2    0    0 -0.76898035513E+03  0.18423582557E+04  0.87170493416E+03  0.21802933214E+04  0.90524837695E+02 0.  0.
         13    1    3    3    0    0 -0.23978425045E+03  0.62159327861E+03  0.33325050038E+03  0.74493663273E+03  0.00000000000E+00 0.  1.
        -13    1    3    3    0    0 -0.52919610467E+03  0.12207649770E+04  0.53845443378E+03  0.14353566887E+04  0.00000000000E+00 0. -1.
         22    1    1    2    0    0  0.76898035513E+03 -0.18423582557E+04 -0.11057078997E+04  0.22821491380E+04  0.00000000000E+00 0. -1.
<mgrwt>
<rscale>  0 0.44563029E+04</rscale>
<asrwt>0</asrwt>
<pdfrwt beam="1">  1        2 0.36126503E+00 0.44563029E+04</pdfrwt>
<pdfrwt beam="2">  1       -2 0.32526458E+00 0.44563029E+04</pdfrwt>
<totfact> 0.71885901E-02</totfact>
</mgrwt>
</event>
<event>
 6    1  0.2182740E-005  0.3692686E+04  0.7818608E-02  0.8069585E-01
          2   -1    0    0  501    0  0.00000000000E+00  0.00000000000E+00  0.20235641524E+04  0.20235641524E+04  0.00000000000E+00 0. -1.
         -2   -1    0    0    0  501 -0.00000000000E+00 -0.00000000000E+00 -0.16846429907E+04  0.16846429907E+04  0.00000000000E+00 0.  1.
         23    2    1    2    0    0 -0.20779064945E+03  0.11151718389E+04 -0.12918503272E+04  0.17217024658E+04  0.92719623307E+02 0.  0.
         11    1    3    3    0    0 -0.68788776752E+02  0.50973057688E+03 -0.52748205427E+03  0.73674586825E+03  0.00000000000E+00 0. -1.
        -11    1    3    3    0    0 -0.13900187270E+03  0.60544126205E+03 -0.76436827291E+03  0.98495659754E+03  0.00000000000E+00 0.  1.
         22    1    1    2    0    0  0.20779064945E+03 -0.11151718389E+04  0.16307714888E+04  0.19865046773E+04  0.00000000000E+00 0. -1.
<mgrwt>
<rscale>  0 0.36926864E+04</rscale>
<asrwt>0</asrwt>
<pdfrwt beam="1">  1        2 0.31131756E+00 0.36926864E+04</pdfrwt>
<pdfrwt beam="2">  1       -2 0.25917585E+00 0.36926864E+04</pdfrwt>
<totfact> 0.29598680E-01</totfact>
</mgrwt>
</event>
<event>
 6    1  0.1568961E-005  0.1436657E+04  0.7818608E-02  0.8927704E-01
          1   -1    0    0  501    0  0.00000000000E+00  0.00000000000E+00  0.23841164924E+04  0.23841164924E+04  0.00000000000E+00 0. -1.
         -1   -1    0    0    0  501 -0.00000000000E+00 -0.00000000000E+00 -0.21643061541E+03  0.21643061541E+03  0.00000000000E+00 0.  1.
         23    2    1    2    0    0 -0.25961879390E+03 -0.58023381035E+03  0.16824516911E+04  0.18008437828E+04  0.91221951461E+02 0.  0.
         11    1    3    3    0    0 -0.16256155341E+03 -0.44032856574E+03  0.11608814589E+04  0.12521826010E+04  0.00000000000E+00 0.  1.
        -11    1    3    3    0    0 -0.97057240486E+02 -0.13990524461E+03  0.52157023215E+03  0.54866118185E+03  0.00000000000E+00 0. -1.
         22    1    1    2    0    0  0.25961879390E+03  0.58023381035E+03  0.48523418588E+03  0.79970332496E+03  0.00000000000E+00 0.  1.
<mgrwt>
<rscale>  0 0.14366570E+04</rscale>
<asrwt>0</asrwt>
<pdfrwt beam="1">  1        1 0.36678713E+00 0.14366570E+04</pdfrwt>
<pdfrwt beam="2">  1       -1 0.33297019E-01 0.14366570E+04</pdfrwt>
<totfact> 0.13472629E+01</totfact>
</mgrwt>
</event>
<event>
 6    1  0.2754381E-005  0.3266580E+04  0.7818608E-02  0.8171452E-01
          2   -1    0    0  501    0  0.00000000000E+00  0.00000000000E+00  0.19014133894E+04  0.19014133894E+04  0.00000000000E+00 0. -1.
         -2   -1    0    0    0  501 -0.00000000000E+00 -0.00000000000E+00 -0.14029754345E+04  0.14029754345E+04  0.00000000000E+00 0.  1.
         23    2    1    2    0    0 -0.55208588560E+03  0.14348166325E+04 -0.30504591312E+03  0.15697176966E+04  0.86388910944E+02 0.  0.
         11    1    3    3    0    0 -0.32644707775E+03  0.88146447290E+03 -0.22757823133E+03  0.96712934136E+03  0.00000000000E+00 0.  1.
        -11    1    3    3    0    0 -0.22563880786E+03  0.55335215957E+03 -0.77467681786E+02  0.60258835521E+03  0.00000000000E+00 0. -1.
         22    1    1    2    0    0  0.55208588560E+03 -0.14348166325E+04  0.80348386801E+03  0.17346711273E+04  0.00000000000E+00 0. -1.
<mgrwt>
<rscale>  0 0.32665800E+04</rscale>
<asrwt>0</asrwt>
<pdfrwt beam="1">  1        2 0.29252513E+00 0.32665800E+04</pdfrwt>
<pdfrwt beam="2">  1       -2 0.21584238E+00 0.32665800E+04</pdfrwt>
<totfact> 0.66684580E-01</totfact>
</mgrwt>
</event>
<event>
 6    1  0.1568961E-005  0.4640292E+04  0.7818608E-02  0.7886526E-01
          2   -1    0    0  501    0  0.00000000000E+00  0.00000000000E+00  0.18820025522E+04  0.18820025522E+04  0.00000000000E+00 0. -1.
         -2   -1    0    0    0  501 -0.00000000000E+00 -0.00000000000E+00 -0.28602917842E+04  0.28602917842E+04  0.00000000000E+00 0.  1.
         23    2    1    2    0    0  0.10171583209E+04 -0.19723552868E+04  0.19937282019E+03  0.22299877594E+04  0.91101363352E+02 0.  0.
         13    1    3    3    0    0  0.19304468638E+03 -0.38545207726E+03  0.29885914010E+01  0.43110148050E+03  0.00000000000E+00 0.  1.
        -13    1    3    3    0    0  0.82411363457E+03 -0.15869032095E+04  0.19638422879E+03  0.17988862789E+04  0.00000000000E+00 0. -1.
         22    1    1    2    0    0 -0.10171583209E+04  0.19723552868E+04 -0.11776620522E+04  0.25123065769E+04  0.00000000000E+00 0.  1.
<mgrwt>
<rscale>  0 0.46402916E+04</rscale>
<asrwt>0</asrwt>
<pdfrwt beam="1">  1        2 0.28953886E+00 0.46402916E+04</pdfrwt>
<pdfrwt beam="2">  1       -2 0.44004489E+00 0.46402916E+04</pdfrwt>
<totfact> 0.23545771E-02</totfact>
</mgrwt>
</event>
<event>
 6    1  0.1568961E-005  0.2965767E+04  0.7818608E-02  0.8253574E-01
         -2   -1    0    0    0  501 -0.00000000000E+00  0.00000000000E+00  0.23788585453E+04  0.23788585453E+04  0.00000000000E+00 0. -1.
          2   -1    0    0  501    0  0.00000000000E+00 -0.00000000000E+00 -0.92436920317E+03  0.92436920317E+03  0.00000000000E+00 0.  1.
         23    2    1    2    0    0 -0.27912866789E+03  0.81942758309E+03 -0.61109945518E+03  0.10635778971E+04  0.91547921276E+02 0.  0.
         13    1    3    3    0    0 -0.18353973021E+03  0.42830129440E+03 -0.36259916117E+03  0.59042949031E+03  0.00000000000E+00 0. -1.
        -13    1    3    3    0    0 -0.95588937674E+02  0.39112628870E+03 -0.24850029401E+03  0.47314840678E+03  0.00000000000E+00 0.  1.
         22    1    1    2    0    0  0.27912866789E+03 -0.81942758309E+03  0.20655887973E+04  0.22396498514E+04  0.00000000000E+00 0. -1.
<mgrwt>
<rscale>  0 0.29657671E+04</rscale>
<asrwt>0</asrwt>
<pdfrwt beam="1">  1        2 0.14221065E+00 0.29657671E+04</pdfrwt>
<pdfrwt beam="2">  1       -2 0.36597824E+00 0.29657671E+04</pdfrwt>
<totfact> 0.29846431E-01</totfact>
</mgrwt>
</event>
<event>
 6    1  0.1568961E-005  0.1731443E+04  0.7818608E-02  0.8743631E-01
         -2   -1    0    0    0  501 -0.00000000000E+00  0.00000000000E+00  0.46384985528E+03  0.46384985528E+03  0.00000000000E+00 0.  1.
          2   -1    0    0  501    0  0.00000000000E+00 -0.00000000000E+00 -0.16157688142E+04  0.16157688142E+04  0.00000000000E+00 0. -1.
         23    2    1    2    0    0  0.75309511259E+02  0.85751763710E+03 -0.65604680167E+03  0.10861916632E+04  0.91689164425E+02 0.  0.
         13    1    3    3    0    0 -0.20455181125E+02  0.95465891055E+02 -0.75597469437E+02  0.12347926213E+03  0.00000000000E+00 0. -1.
        -13    1    3    3    0    0  0.95764692384E+02  0.76205174604E+03 -0.58044933224E+03  0.96271240111E+03  0.00000000000E+00 0.  1.
         22    1    1    2    0    0 -0.75309511259E+02 -0.85751763710E+03 -0.49587215727E+03  0.99342700626E+03  0.00000000000E+00 0.  1.
<mgrwt>
<rscale>  0 0.17314435E+04</rscale>
<asrwt>0</asrwt>
<pdfrwt beam="1">  1        2 0.24857982E+00 0.17314435E+04</pdfrwt>
<pdfrwt beam="2">  1       -2 0.71361516E-01 0.17314435E+04</pdfrwt>
<totfact> 0.18483171E+01</totfact>
</mgrwt>
</event>
<event>
 6    1  0.1568961E-005  0.1112655E+04  0.7818608E-02  0.9192944E-01
         -2   -1    0    0    0  501 -0.00000000000E+00  0.00000000000E+00  0.19160079660E+03  0.19160079660E+03  0.00000000000E+00 0.  1.
          2   -1    0    0  501    0  0.00000000000E+00 -0.00000000000E+00 -0.16153402566E+04  0.16153402566E+04  0.00000000000E+00 0. -1.
         23    2    1    2    0    0 -0.47073067893E+03 -0.27020315458E+03 -0.88409308760E+03  0.10415553177E+04  0.92842746326E+02 0.  0.
         13    1    3    3    0    0 -0.32142367498E+03 -0.23106070502E+03 -0.61700483531E+03  0.73307379918E+03  0.00000000000E+00 0. -1.
        -13    1    3    3    0    0 -0.14930700394E+03 -0.39142449559E+02 -0.26708825230E+03  0.30848151857E+03  0.00000000000E+00 0.  1.
         22    1    1    2    0    0  0.47073067893E+03  0.27020315458E+03 -0.53964637243E+03  0.76538573550E+03  0.00000000000E+00 0.  1.
<mgrwt>
<rscale>  0 0.11126553E+04</rscale>
<asrwt>0</asrwt>
<pdfrwt beam="1">  1        2 0.24851389E+00 0.11126553E+04</pdfrwt>
<pdfrwt beam="2">  1       -2 0.29477045E-01 0.11126553E+04</pdfrwt>
<totfact> 0.11489735E+02</totfact>
</mgrwt>
</event>
<event>
 6    1  0.1568961E-005  0.4860549E+04  0.7818608E-02  0.7850386E-01
         -1   -1    0    0    0  501 -0.00000000000E+00  0.00000000000E+00  0.16575716388E+04  0.16575716388E+04  0.00000000000E+00 0.  1.
          1   -1    0    0  501    0  0.00000000000E+00 -0.00000000000E+00 -0.35631849399E+04  0.35631849399E+04  0.00000000000E+00 0. -1.
         23    2    1    2    0    0  0.19851159104E+04 -0.13591321093E+04 -0.13159710120E+04  0.27437415812E+04  0.91721817807E+02 0.  0.
         11    1    3    3    0    0  0.13630931182E+04 -0.98403435101E+03 -0.92356250268E+03  0.19181538388E+04  0.00000000000E+00 0. -1.
        -11    1    3    3    0    0  0.62202279225E+03 -0.37509775826E+03 -0.39240850929E+03  0.82558774245E+03  0.00000000000E+00 0.  1.
         22    1    1    2    0    0 -0.19851159104E+04  0.13591321093E+04 -0.58964228916E+03  0.24770149974E+04  0.00000000000E+00 0.  1.
<mgrwt>
<rscale>  0 0.48605491E+04</rscale>
<asrwt>0</asrwt>
<pdfrwt beam="1">  1        1 0.54818229E+00 0.48605491E+04</pdfrwt>
<pdfrwt beam="2">  1       -1 0.25501103E+00 0.48605491E+04</pdfrwt>
<totfact> 0.10493904E-02</totfact>
</mgrwt>
</event>
<event>
 6    1  0.1568961E-005  0.9074119E+03  0.7818608E-02  0.9416363E-01
          1   -1    0    0  501    0  0.00000000000E+00  0.00000000000E+00  0.56920340872E+03  0.56920340872E+03  0.00000000000E+00 0. -1.
         -1   -1    0    0    0  501 -0.00000000000E+00 -0.00000000000E+00 -0.36164415582E+03  0.36164415582E+03  0.00000000000E+00 0.  1.
         23    2    1    2    0    0  0.40663941950E+03  0.18224424655E+03  0.16405237108E+03  0.48311836998E+03  0.89003348654E+02 0.  0.
         13    1    3    3    0    0  0.81236955753E+02  0.32138098965E+02  0.71792258455E+02  0.11307709211E+03  0.00000000000E+00 0.  1.
        -13    1    3    3    0    0  0.32540246374E+03  0.15010614758E+03  0.92260112623E+02  0.37004127788E+03  0.00000000000E+00 0. -1.
         22    1    1    2    0    0 -0.40663941950E+03 -0.18224424655E+03  0.43506881823E+02  0.44772919455E+03  0.00000000000E+00 0.  1.
<mgrwt>
<rscale>  0 0.90741189E+03</rscale>
<asrwt>0</asrwt>
<pdfrwt beam="1">  1        1 0.87569755E-01 0.90741189E+03</pdfrwt>
<pdfrwt beam="2">  1       -1 0.55637563E-01 0.90741189E+03</pdfrwt>
<totfact> 0.12160242E+02</totfact>
</mgrwt>
</event>
<event>
 6    1  0.1568961E-005  0.2693336E+04  0.7818608E-02  0.8337171E-01
         -1   -1    0    0    0  501 -0.00000000000E+00  0.00000000000E+00  0.20779189024E+04  0.20779189024E+04  0.00000000000E+00 0.  1.
          1   -1    0    0  501    0  0.00000000000E+00 -0.00000000000E+00 -0.87275497780E+03  0.87275497780E+03  0.00000000000E+00 0. -1.
         23    2    1    2    0    0 -0.83744221515E+03  0.38400687034E+03 -0.47049186732E+03  0.10384518551E+04  0.90823554350E+02 0.  0.
         11    1    3    3    0    0 -0.27725647468E+03  0.12422862096E+03 -0.10808550247E+03  0.32246919056E+03  0.00000000000E+00 0.  1.
        -11    1    3    3    0    0 -0.56018574047E+03  0.25977824939E+03 -0.36240636485E+03  0.71598266457E+03  0.00000000000E+00 0. -1.
         22    1    1    2    0    0  0.83744221515E+03 -0.38400687034E+03  0.16756557920E+04  0.19122220251E+04  0.00000000000E+00 0.  1.
<mgrwt>
<rscale>  0 0.26933355E+04</rscale>
<asrwt>0</asrwt>
<pdfrwt beam="1">  1        1 0.13427000E+00 0.26933355E+04</pdfrwt>
<pdfrwt beam="2">  1       -1 0.31967983E+00 0.26933355E+04</pdfrwt>
<totfact> 0.41180206E-01</totfact>
</mgrwt>
</event>
<event>
 6    1  0.1568961E-005  0.2596320E+04  0.7818608E-02  0.8369452E-01
         -1   -1    0    0    0  501 -0.00000000000E+00  0.00000000000E+00  0.11681793963E+04  0.11681793963E+04  0.00000000000E+00 0.  1.
          1   -1    0    0  501    0  0.00000000000E+00 -0.00000000000E+00 -0.14426030109E+04  0.14426030109E+04  0.00000000000E+00 0. -1.
         23    2    1    2    0    0 -0.82932880210E+03 -0.17210475249E+03 -0.11246001461E+04  0.14106963925E+04  0.89064670112E+02 0.  0.
         13    1    3    3    0    0 -0.14668742120E+03 -0.36068883280E+01 -0.16095682006E+03  0.21780107233E+03  0.00000000000E+00 0.  1.
        -13    1    3    3    0    0 -0.68264138090E+03 -0.16849786416E+03 -0.96364332604E+03  0.11928953202E+04  0.00000000000E+00 0. -1.
         22    1    1    2    0    0  0.82932880210E+03  0.17210475249E+03  0.85017653154E+03  0.12000860147E+04  0.00000000000E+00 0.  1.
<mgrwt>
<rscale>  0 0.25963198E+04</rscale>
<asrwt>0</asrwt>
<pdfrwt beam="1">  1        1 0.22193892E+00 0.25963198E+04</pdfrwt>
<pdfrwt beam="2">  1       -1 0.17971991E+00 0.25963198E+04</pdfrwt>
<totfact> 0.13212291E+00</totfact>
</mgrwt>
</event>
<event>
 6    1  0.1568961E-005  0.2417251E+04  0.7818608E-02  0.8433073E-01
          2   -1    0    0  501    0  0.00000000000E+00  0.00000000000E+00  0.96269382789E+03  0.96269382789E+03  0.00000000000E+00 0. -1.
         -2   -1    0    0    0  501 -0.00000000000E+00 -0.00000000000E+00 -0.15173837496E+04  0.15173837496E+04  0.00000000000E+00 0.  1.
         23    2    1    2    0    0  0.91935987724E+03 -0.44093685375E+03 -0.94037714921E+03  0.13899388109E+04  0.89290662969E+02 0.  0.
         13    1    3    3    0    0  0.34331474146E+03 -0.19678674912E+03 -0.40885331962E+03  0.56899127699E+03  0.00000000000E+00 0. -1.
        -13    1    3    3    0    0  0.57604513578E+03 -0.24415010463E+03 -0.53152382959E+03  0.82094753393E+03  0.00000000000E+00 0.  1.
         22    1    1    2    0    0 -0.91935987724E+03  0.44093685375E+03  0.38568722752E+03  0.10901387666E+04  0.00000000000E+00 0. -1.
<mgrwt>
<rscale>  0 0.24172513E+04</rscale>
<asrwt>0</asrwt>
<pdfrwt beam="1">  1        2 0.14810674E+00 0.24172513E+04</pdfrwt>
<pdfrwt beam="2">  1       -2 0.23344365E+00 0.24172513E+04</pdfrwt>
<totfact> 0.19455065E+00</totfact>
</mgrwt>
</event>
<event>
 6    1  0.1568961E-005  0.1787874E+04  0.7818608E-02  0.8712775E-01
         -2   -1    0    0    0  501 -0.00000000000E+00  0.00000000000E+00  0.40551701346E+03  0.40551701346E+03  0.00000000000E+00 0.  1.
          2   -1    0    0  501    0  0.00000000000E+00 -0.00000000000E+00 -0.19706279291E+04  0.19706279291E+04  0.00000000000E+00 0. -1.
         23    2    1    2    0    0 -0.38669084495E+03  0.79713191393E+03 -0.65124271541E+03  0.11033118093E+04  0.90723626346E+02 0.  0.
         11    1    3    3    0    0 -0.34915804768E+03  0.74169111846E+03 -0.62717905263E+03  0.10321679231E+04  0.00000000000E+00 0. -1.
        -11    1    3    3    0    0 -0.37532797274E+02  0.55440795469E+02 -0.24063662782E+02  0.71143886175E+02  0.00000000000E+00 0.  1.
         22    1    1    2    0    0  0.38669084495E+03 -0.79713191393E+03 -0.91386820024E+03  0.12728331333E+04  0.00000000000E+00 0.  1.
<mgrwt>
<rscale>  0 0.17878738E+04</rscale>
<asrwt>0</asrwt>
<pdfrwt beam="1">  1        2 0.30317353E+00 0.17878738E+04</pdfrwt>
<pdfrwt beam="2">  1       -2 0.62387233E-01 0.17878738E+04</pdfrwt>
<totfact> 0.15627262E+01</totfact>
</mgrwt>
</event>
<event>
 6    1  0.1568961E-005  0.1233669E+04  0.7818608E-02  0.9083886E-01
         -2   -1    0    0    0  501 -0.00000000000E+00  0.00000000000E+00  0.27168132768E+03  0.27168132768E+03  0.00000000000E+00 0.  1.
          2   -1    0    0  501    0  0.00000000000E+00 -0.00000000000E+00 -0.14004813692E+04  0.14004813692E+04  0.00000000000E+00 0. -1.
         23    2    1    2    0    0 -0.14589751359E+03 -0.48582242756E+02 -0.13725010495E+04  0.13840021511E+04  0.89758033849E+02 0.  0.
         11    1    3    3    0    0 -0.24546172068E+02  0.21724223828E+02 -0.41392508060E+03  0.41522093976E+03  0.00000000000E+00 0.  1.
        -11    1    3    3    0    0 -0.12135134152E+03 -0.70306466584E+02 -0.95857596892E+03  0.96878121138E+03  0.00000000000E+00 0. -1.
         22    1    1    2    0    0  0.14589751359E+03  0.48582242756E+02  0.24370100803E+03  0.28816054570E+03  0.00000000000E+00 0.  1.
<mgrwt>
<rscale>  0 0.12336687E+04</rscale>
<asrwt>0</asrwt>
<pdfrwt beam="1">  1        2 0.21545867E+00 0.12336687E+04</pdfrwt>
<pdfrwt beam="2">  1       -2 0.41797127E-01 0.12336687E+04</pdfrwt>
<totfact> 0.77191005E+01</totfact>
</mgrwt>
</event>
<event>
 6    1  0.1568961E-005  0.2717375E+04  0.7818608E-02  0.8329389E-01
         -2   -1    0    0    0  501 -0.00000000000E+00  0.00000000000E+00  0.69843346623E+03  0.69843346623E+03  0.00000000000E+00 0.  1.
          2   -1    0    0  501    0  0.00000000000E+00 -0.00000000000E+00 -0.26431024610E+04  0.26431024610E+04  0.00000000000E+00 0. -1.
         23    2    1    2    0    0  0.12017365460E+04 -0.61254920518E+03 -0.11574522557E+04  0.17797749183E+04  0.92280989748E+02 0.  0.
         13    1    3    3    0    0  0.38104359167E+03 -0.21135358664E+03 -0.32148348716E+03  0.54149440427E+03  0.00000000000E+00 0.  1.
        -13    1    3    3    0    0  0.82069295429E+03 -0.40119561853E+03 -0.83596876851E+03  0.12382805141E+04  0.00000000000E+00 0. -1.
         22    1    1    2    0    0 -0.12017365460E+04  0.61254920518E+03 -0.78721673911E+03  0.15617610089E+04  0.00000000000E+00 0.  1.
<mgrwt>
<rscale>  0 0.27173746E+04</rscale>
<asrwt>0</asrwt>
<pdfrwt beam="1">  1        2 0.40663115E+00 0.27173746E+04</pdfrwt>
<pdfrwt beam="2">  1       -2 0.10745130E+00 0.27173746E+04</pdfrwt>
<totfact> 0.17479566E+00</totfact>
</mgrwt>
</event>
<event>
 6    1  0.1568961E-005  0.2329173E+04  0.7818608E-02  0.8466507E-01
          2   -1    0    0  501    0  0.00000000000E+00  0.00000000000E+00  0.59441099224E+03  0.59441099224E+03  0.00000000000E+00 0. -1.
         -2   -1    0    0    0  501 -0.00000000000E+00 -0.00000000000E+00 -0.22816906555E+04  0.22816906555E+04  0.00000000000E+00 0.  1.
         23    2    1    2    0    0 -0.26620177752E+03  0.91093013888E+03 -0.16743949869E+04  0.19269846269E+04  0.94942487299E+02 0.  0.
         11    1    3    3    0    0 -0.12744894808E+03  0.54746662028E+03 -0.10587815021E+04  0.11987415084E+04  0.00000000000E+00 0. -1.
        -11    1    3    3    0    0 -0.13875282944E+03  0.36346351860E+03 -0.61561348477E+03  0.72824311852E+03  0.00000000000E+00 0.  1.
         22    1    1    2    0    0  0.26620177752E+03 -0.91093013888E+03 -0.12884676309E+02  0.94911702079E+03  0.00000000000E+00 0. -1.
<mgrwt>
<rscale>  0 0.23291732E+04</rscale>
<asrwt>0</asrwt>
<pdfrwt beam="1">  1        2 0.91447845E-01 0.23291732E+04</pdfrwt>
<pdfrwt beam="2">  1       -2 0.35102933E+00 0.23291732E+04</pdfrwt>
<totfact> 0.69605676E-01</totfact>
</mgrwt>
</event>
<event>
 6    1  0.1568961E-005  0.1268254E+04  0.7818608E-02  0.9055126E-01
          2   -1    0    0  501    0  0.00000000000E+00  0.00000000000E+00  0.83221963379E+03  0.83221963379E+03  0.00000000000E+00 0.  1.
         -2   -1    0    0    0  501 -0.00000000000E+00 -0.00000000000E+00 -0.48318592505E+03  0.48318592505E+03  0.00000000000E+00 0. -1.
         23    2    1    2    0    0  0.15555671449E+03 -0.59848455428E+03  0.46239004467E+02  0.62688084173E+03  0.91977666074E+02 0.  0.
         13    1    3    3    0    0  0.13311144590E+01 -0.52599376629E+02 -0.18882603756E+02  0.55901869486E+02  0.00000000000E+00 0. -1.
        -13    1    3    3    0    0  0.15422560004E+03 -0.54588517765E+03  0.65121608223E+02  0.57097897225E+03  0.00000000000E+00 0.  1.
         22    1    1    2    0    0 -0.15555671449E+03  0.59848455428E+03  0.30279470427E+03  0.68852471711E+03  0.00000000000E+00 0.  1.
<mgrwt>
<rscale>  0 0.12682536E+04</rscale>
<asrwt>0</asrwt>
<pdfrwt beam="1">  1        2 0.12803379E+00 0.12682536E+04</pdfrwt>
<pdfrwt beam="2">  1       -2 0.74336296E-01 0.12682536E+04</pdfrwt>
<totfact> 0.52278561E+01</totfact>
</mgrwt>
</event>
<event>
 6    1  0.2955366E-005  0.3673245E+04  0.7818608E-02  0.8073917E-01
         -2   -1    0    0    0  501 -0.00000000000E+00  0.00000000000E+00  0.17710959755E+04  0.17710959755E+04  0.00000000000E+00 0.  1.
          2   -1    0    0  501    0  0.00000000000E+00 -0.00000000000E+00 -0.19045736304E+04  0.19045736304E+04  0.00000000000E+00 0. -1.
         23    2    1    2    0    0  0.43185509870E+03 -0.81977492153E+03 -0.16523871860E+04  0.18964518249E+04  0.87271780685E+02 0.  0.
         13    1    3    3    0    0  0.10145228809E+03 -0.20135539999E+03 -0.48172215848E+03  0.53187667916E+03  0.00000000000E+00 0.  1.
        -13    1    3    3    0    0  0.33040281061E+03 -0.61841952154E+03 -0.11706650275E+04  0.13645751458E+04  0.00000000000E+00 0. -1.
         22    1    1    2    0    0 -0.43185509870E+03  0.81977492153E+03  0.15189095311E+04  0.17792177809E+04  0.00000000000E+00 0.  1.
<mgrwt>
<rscale>  0 0.36732453E+04</rscale>
<asrwt>0</asrwt>
<pdfrwt beam="1">  1        2 0.29301133E+00 0.36732453E+04</pdfrwt>
<pdfrwt beam="2">  1       -2 0.27247630E+00 0.36732453E+04</pdfrwt>
<totfact> 0.28629689E-01</totfact>
</mgrwt>
</event>
<event>
 6    1  0.1568961E-005  0.4503546E+04  0.7818608E-02  0.7910016E-01
         -1   -1    0    0    0  501 -0.00000000000E+00  0.00000000000E+00  0.19778494569E+04  0.19778494569E+04  0.00000000000E+00 0.  1.
          1   -1    0    0  501    0  0.00000000000E+00 -0.00000000000E+00 -0.25636342216E+04  0.25636342216E+04  0.00000000000E+00 0. -1.
         23    2    1    2    0    0 -0.21488138672E+04 -0.53436305975E+03 -0.70022723005E+03  0.23242687602E+04  0.94668793744E+02 0.  0.
         13    1    3    3    0    0 -0.16320075037E+04 -0.41715773169E+03 -0.57312508227E+03  0.17793092551E+04  0.00000000000E+00 0. -1.
        -13    1    3    3    0    0 -0.51680636353E+03 -0.11720532806E+03 -0.12710214779E+03  0.54495950518E+03  0.00000000000E+00 0.  1.
         22    1    1    2    0    0  0.21488138672E+04  0.53436305975E+03  0.11444246534E+03  0.22172149182E+04  0.00000000000E+00 0. -1.
<mgrwt>
<rscale>  0 0.45035464E+04</rscale>
<asrwt>0</asrwt>
<pdfrwt beam="1">  1        1 0.39440527E+00 0.45035464E+04</pdfrwt>
<pdfrwt beam="2">  1       -1 0.30428453E+00 0.45035464E+04</pdfrwt>
<totfact> 0.28470122E-02</totfact>
</mgrwt>
</event>
<event>
 6    1  0.1568961E-005  0.3285629E+04  0.7818608E-02  0.8166562E-01
          2   -1    0    0  501    0  0.00000000000E+00  0.00000000000E+00  0.23390581797E+04  0.23390581797E+04  0.00000000000E+00 0. -1.
         -2   -1    0    0    0  501 -0.00000000000E+00 -0.00000000000E+00 -0.11538145359E+04  0.11538145359E+04  0.00000000000E+00 0.  1.
         23    2    1    2    0    0 -0.12890583241E+04  0.10105986454E+04  0.47776002048E+03  0.17086322434E+04  0.90490447384E+02 0.  0.
         13    1    3    3    0    0 -0.66325696490E+03  0.56286964924E+03  0.22224390585E+03  0.89784430566E+03  0.00000000000E+00 0. -1.
        -13    1    3    3    0    0 -0.62580135918E+03  0.44772899620E+03  0.25551611463E+03  0.81078793776E+03  0.00000000000E+00 0.  1.
         22    1    1    2    0    0  0.12890583241E+04 -0.10105986454E+04  0.70748362334E+03  0.17842404721E+04  0.00000000000E+00 0.  1.
<mgrwt>
<rscale>  0 0.32856289E+04</rscale>
<asrwt>0</asrwt>
<pdfrwt beam="1">  1        2 0.35985510E+00 0.32856289E+04</pdfrwt>
<pdfrwt beam="2">  1       -2 0.17750993E+00 0.32856289E+04</pdfrwt>
<totfact> 0.67960363E-01</totfact>
</mgrwt>
</event>
<event>
 6    1  0.1568961E-005  0.6231624E+03  0.7818608E-02  0.9858483E-01
         -1   -1    0    0    0  501 -0.00000000000E+00  0.00000000000E+00  0.39067560050E+03  0.39067560050E+03  0.00000000000E+00 0.  1.
          1   -1    0    0  501    0  0.00000000000E+00 -0.00000000000E+00 -0.24849991835E+03  0.24849991835E+03  0.00000000000E+00 0. -1.
         23    2    1    2    0    0 -0.17444593953E+03  0.24763389531E+03  0.37428507662E+02  0.31866670073E+03  0.91616816358E+02 0.  0.
         11    1    3    3    0    0 -0.14554860416E+03  0.23071606279E+03  0.58649350664E+02  0.27902337561E+03  0.00000000000E+00 0.  1.
        -11    1    3    3    0    0 -0.28897335372E+02  0.16917832524E+02 -0.21220843002E+02  0.39643325121E+02  0.00000000000E+00 0. -1.
         22    1    1    2    0    0  0.17444593953E+03 -0.24763389531E+03  0.10474717449E+03  0.32050881812E+03  0.00000000000E+00 0.  1.
<mgrwt>
<rscale>  0 0.62316243E+03</rscale>
<asrwt>0</asrwt>
<pdfrwt beam="1">  1        1 0.38230757E-01 0.62316243E+03</pdfrwt>
<pdfrwt beam="2">  1       -1 0.60103938E-01 0.62316243E+03</pdfrwt>
<totfact> 0.31907550E+02</totfact>
</mgrwt>
</event>
<event>
 6    1  0.1568961E-005  0.4569137E+03  0.7818608E-02  0.1025680E+00
         -4   -1    0    0    0  501 -0.00000000000E+00  0.00000000000E+00  0.35373842316E+03  0.35373842316E+03  0.00000000000E+00 0. -1.
          4   -1    0    0  501    0  0.00000000000E+00 -0.00000000000E+00 -0.14754553643E+03  0.14754553643E+03  0.00000000000E+00 0.  1.
         23    2    1    2    0    0  0.15045162445E+03 -0.71529516582E+02  0.26419088228E+03  0.32488687761E+03  0.89456681802E+02 0.  0.
         13    1    3    3    0    0  0.13589639484E+03 -0.46642982456E+02  0.25813550786E+03  0.29542738255E+03  0.00000000000E+00 0. -1.
        -13    1    3    3    0    0  0.14555229614E+02 -0.24886534126E+02  0.60553744262E+01  0.29459495062E+02  0.00000000000E+00 0.  1.
         22    1    1    2    0    0 -0.15045162445E+03  0.71529516582E+02 -0.57997995559E+02  0.17639708198E+03  0.00000000000E+00 0.  1.
<mgrwt>
<rscale>  0 0.45691367E+03</rscale>
<asrwt>0</asrwt>
<pdfrwt beam="1">  1        4 0.22699313E-01 0.45691367E+03</pdfrwt>
<pdfrwt beam="2">  1       -4 0.54421296E-01 0.45691367E+03</pdfrwt>
<totfact> 0.11390389E+02</totfact>
</mgrwt>
</event>
<event>
 6    1  0.1568961E-005  0.2307465E+04  0.7818608E-02  0.8474984E-01
          2   -1    0    0  501    0  0.00000000000E+00  0.00000000000E+00  0.22218821770E+04  0.22218821770E+04  0.00000000000E+00 0. -1.
         -2   -1    0    0    0  501 -0.00000000000E+00 -0.00000000000E+00 -0.59908591151E+03  0.59908591151E+03  0.00000000000E+00 0.  1.
         23    2    1    2    0    0  0.11311928261E+03 -0.69147108647E+03  0.19304202357E+04  0.20557486803E+04  0.93016742939E+02 0.  0.
         11    1    3    3    0    0  0.55950612924E+02 -0.36172508896E+03  0.87284796019E+03  0.94648775622E+03  0.00000000000E+00 0. -1.
        -11    1    3    3    0    0  0.57168669690E+02 -0.32974599751E+03  0.10575722756E+04  0.11092609241E+04  0.00000000000E+00 0.  1.
         22    1    1    2    0    0 -0.11311928261E+03  0.69147108647E+03 -0.30762397030E+03  0.76521940816E+03  0.00000000000E+00 0.  1.
<mgrwt>
<rscale>  0 0.23074647E+04</rscale>
<asrwt>0</asrwt>
<pdfrwt beam="1">  1        2 0.34182802E+00 0.23074647E+04</pdfrwt>
<pdfrwt beam="2">  1       -2 0.92167065E-01 0.23074647E+04</pdfrwt>
<totfact> 0.45478507E+00</totfact>
</mgrwt>
</event>
<event>
 6    1  0.1568961E-005  0.1873071E+04  0.7818608E-02  0.8668378E-01
         -1   -1    0    0    0  501 -0.00000000000E+00  0.00000000000E+00  0.12073362149E+04  0.12073362149E+04  0.00000000000E+00 0.  1.
          1   -1    0    0  501    0  0.00000000000E+00 -0.00000000000E+00 -0.72647444213E+03  0.72647444213E+03  0.00000000000E+00 0. -1.
         23    2    1    2    0    0 -0.66250197241E+03 -0.28223473100E+03  0.85566088057E+03  0.11219980691E+04  0.90326173767E+02 0.  0.
         13    1    3    3    0    0 -0.24134180817E+03 -0.96483407358E+02  0.37710188597E+03  0.45799645049E+03  0.00000000000E+00 0. -1.
        -13    1    3    3    0    0 -0.42116016424E+03 -0.18575132365E+03  0.47855899460E+03  0.66400161859E+03  0.00000000000E+00 0.  1.
         22    1    1    2    0    0  0.66250197241E+03  0.28223473100E+03 -0.37479910776E+03  0.81181258798E+03  0.00000000000E+00 0.  1.
<mgrwt>
<rscale>  0 0.18730712E+04</rscale>
<asrwt>0</asrwt>
<pdfrwt beam="1">  1        1 0.11176530E+00 0.18730712E+04</pdfrwt>
<pdfrwt beam="2">  1       -1 0.18574403E+00 0.18730712E+04</pdfrwt>
<totfact> 0.45694636E+00</totfact>
</mgrwt>
</event>
<event>
 6    1  0.1568961E-005  0.2797456E+04  0.7818608E-02  0.8304059E-01
          2   -1    0    0  501    0  0.00000000000E+00  0.00000000000E+00  0.10878863530E+04  0.10878863530E+04  0.00000000000E+00 0. -1.
         -2   -1    0    0    0  501 -0.00000000000E+00 -0.00000000000E+00 -0.17983862109E+04  0.17983862109E+04  0.00000000000E+00 0.  1.
         23    2    1    2    0    0  0.19812585502E+03 -0.13015138465E+04  0.12743675359E+03  0.13257182035E+04  0.89980451584E+02 0.  0.
         13    1    3    3    0    0  0.18163447346E+03 -0.12251302215E+04  0.14059011294E+03  0.12464753192E+04  0.00000000000E+00 0. -1.
        -13    1    3    3    0    0  0.16491381559E+02 -0.76383625020E+02 -0.13153359354E+02  0.79242884218E+02  0.00000000000E+00 0.  1.
         22    1    1    2    0    0 -0.19812585502E+03  0.13015138465E+04 -0.83793661150E+03  0.15605543605E+04  0.00000000000E+00 0. -1.
<mgrwt>
<rscale>  0 0.27974559E+04</rscale>
<asrwt>0</asrwt>
<pdfrwt beam="1">  1        2 0.16736713E+00 0.27974559E+04</pdfrwt>
<pdfrwt beam="2">  1       -2 0.27667480E+00 0.27974559E+04</pdfrwt>
<totfact> 0.85124660E-01</totfact>
</mgrwt>
</event>
<event>
 6    1  0.1568961E-005  0.9992510E+03  0.7818608E-02  0.9309367E-01
         -1   -1    0    0    0  501 -0.00000000000E+00  0.00000000000E+00  0.35074257764E+03  0.35074257764E+03  0.00000000000E+00 0.  1.
          1   -1    0    0  501    0  0.00000000000E+00 -0.00000000000E+00 -0.71170616937E+03  0.71170616937E+03  0.00000000000E+00 0. -1.
         23    2    1    2    0    0 -0.14432042622E+03 -0.26397116028E+03  0.23652614287E+03  0.39349199068E+03  0.91554200246E+02 0.  0.
         13    1    3    3    0    0 -0.31434925810E+01  0.27520339907E+01  0.24060154323E+02  0.24420201939E+02  0.00000000000E+00 0.  1.
        -13    1    3    3    0    0 -0.14117693364E+03 -0.26672319427E+03  0.21246598855E+03  0.36907178874E+03  0.00000000000E+00 0. -1.
         22    1    1    2    0    0  0.14432042622E+03  0.26397116028E+03 -0.59748973460E+03  0.66895675633E+03  0.00000000000E+00 0. -1.
<mgrwt>
<rscale>  0 0.99925103E+03</rscale>
<asrwt>0</asrwt>
<pdfrwt beam="1">  1        1 0.10949325E+00 0.99925103E+03</pdfrwt>
<pdfrwt beam="2">  1       -1 0.53960398E-01 0.99925103E+03</pdfrwt>
<totfact> 0.92327060E+01</totfact>
</mgrwt>
</event>
<event>
 6    1  0.1568961E-005  0.2876276E+04  0.7818608E-02  0.8279971E-01
         -2   -1    0    0    0  501 -0.00000000000E+00  0.00000000000E+00  0.71187933807E+03  0.71187933807E+03  0.00000000000E+00 0. -1.
          2   -1    0    0  501    0  0.00000000000E+00 -0.00000000000E+00 -0.29053254283E+04  0.29053254283E+04  0.00000000000E+00 0.  1.
         23    2    1    2    0    0  0.53762363663E+03 -0.19919577309E+03 -0.27546256428E+04  0.28149326050E+04  0.84646370412E+02 0.  0.
         11    1    3    3    0    0  0.44826323849E+03 -0.18281379475E+03 -0.21745322569E+04  0.22277682444E+04  0.00000000000E+00 0.  1.
        -11    1    3    3    0    0  0.89360398141E+02 -0.16381978344E+02 -0.58009338599E+03  0.58716436067E+03  0.00000000000E+00 0. -1.
         22    1    1    2    0    0 -0.53762363663E+03  0.19919577309E+03  0.56117955257E+03  0.80227216137E+03  0.00000000000E+00 0. -1.
<mgrwt>
<rscale>  0 0.28762762E+04</rscale>
<asrwt>0</asrwt>
<pdfrwt beam="1">  1        2 0.44697315E+00 0.28762762E+04</pdfrwt>
<pdfrwt beam="2">  1       -2 0.10951990E+00 0.28762762E+04</pdfrwt>
<totfact> 0.11443953E+00</totfact>
</mgrwt>
</event>
<event>
 6    1  0.1568961E-005  0.3360941E+04  0.7818608E-02  0.8147560E-01
         -2   -1    0    0    0  501 -0.00000000000E+00  0.00000000000E+00  0.14214872156E+04  0.14214872156E+04  0.00000000000E+00 0. -1.
          2   -1    0    0  501    0  0.00000000000E+00 -0.00000000000E+00 -0.19866389052E+04  0.19866389052E+04  0.00000000000E+00 0.  1.
         23    2    1    2    0    0  0.40375907925E+03 -0.15521389339E+04  0.22199926025E+03  0.16215754549E+04  0.89814365937E+02 0.  0.
         13    1    3    3    0    0  0.30658071286E+03 -0.11460345753E+04  0.12510729582E+03  0.11929119065E+04  0.00000000000E+00 0. -1.
        -13    1    3    3    0    0  0.97178366390E+02 -0.40610435859E+03  0.96891964421E+02  0.42866354840E+03  0.00000000000E+00 0.  1.
         22    1    1    2    0    0 -0.40375907925E+03  0.15521389339E+04 -0.78715094981E+03  0.17865506659E+04  0.00000000000E+00 0.  1.
<mgrwt>
<rscale>  0 0.33609414E+04</rscale>
<asrwt>0</asrwt>
<pdfrwt beam="1">  1        2 0.30563675E+00 0.33609414E+04</pdfrwt>
<pdfrwt beam="2">  1       -2 0.21869034E+00 0.33609414E+04</pdfrwt>
<totfact> 0.56909670E-01</totfact>
</mgrwt>
</event>
<event>
 6    1  0.1568961E-005  0.1149582E+04  0.7818608E-02  0.9158169E-01
         -2   -1    0    0    0  501 -0.00000000000E+00  0.00000000000E+00  0.12062728458E+03  0.12062728458E+03  0.00000000000E+00 0.  1.
          2   -1    0    0  501    0  0.00000000000E+00 -0.00000000000E+00 -0.27388897714E+04  0.27388897714E+04  0.00000000000E+00 0. -1.
         23    2    1    2    0    0  0.22701306576E+03 -0.52079190906E+03 -0.14679353504E+04  0.15765471946E+04  0.88925357166E+02 0.  0.
         13    1    3    3    0    0  0.17145180625E+03 -0.32226156039E+03 -0.84792060275E+03  0.92315631598E+03  0.00000000000E+00 0.  1.
        -13    1    3    3    0    0  0.55561259508E+02 -0.19853034867E+03 -0.62001474766E+03  0.65339087858E+03  0.00000000000E+00 0. -1.
         22    1    1    2    0    0 -0.22701306576E+03  0.52079190906E+03 -0.11503271364E+04  0.12829698614E+04  0.00000000000E+00 0.  1.
<mgrwt>
<rscale>  0 0.11495822E+04</rscale>
<asrwt>0</asrwt>
<pdfrwt beam="1">  1        2 0.42136760E+00 0.11495822E+04</pdfrwt>
<pdfrwt beam="2">  1       -2 0.18558046E-01 0.11495822E+04</pdfrwt>
<totfact> 0.61408096E+01</totfact>
</mgrwt>
</event>
<event>
 6    1  0.1568961E-005  0.1345441E+04  0.7818608E-02  0.8994286E-01
          2   -1    0    0  501    0  0.00000000000E+00  0.00000000000E+00  0.85646138261E+03  0.85646138261E+03  0.00000000000E+00 0. -1.
         -2   -1    0    0    0  501 -0.00000000000E+00 -0.00000000000E+00 -0.52839877775E+03  0.52839877775E+03  0.00000000000E+00 0.  1.
         23    2    1    2    0    0 -0.30667010175E+03 -0.44013308765E+03  0.57730046393E+03  0.79335090722E+03  0.91466661568E+02 0.  0.
         13    1    3    3    0    0 -0.17092735472E+03 -0.20024154226E+03  0.33721986527E+03  0.42782014138E+03  0.00000000000E+00 0. -1.
        -13    1    3    3    0    0 -0.13574274703E+03 -0.23989154539E+03  0.24008059866E+03  0.36553076584E+03  0.00000000000E+00 0.  1.
         22    1    1    2    0    0  0.30667010175E+03  0.44013308765E+03 -0.24923785907E+03  0.59150925314E+03  0.00000000000E+00 0.  1.
<mgrwt>
<rscale>  0 0.13454414E+04</rscale>
<asrwt>0</asrwt>
<pdfrwt beam="1">  1        2 0.13176329E+00 0.13454414E+04</pdfrwt>
<pdfrwt beam="2">  1       -2 0.81292119E-01 0.13454414E+04</pdfrwt>
<totfact> 0.40934051E+01</totfact>
</mgrwt>
</event>
<event>
 6    1  0.1568961E-005  0.1991149E+04  0.7818608E-02  0.8610770E-01
          1   -1    0    0  501    0  0.00000000000E+00  0.00000000000E+00  0.61379100685E+03  0.61379100685E+03  0.00000000000E+00 0. -1.
         -1   -1    0    0    0  501 -0.00000000000E+00 -0.00000000000E+00 -0.16148307366E+04  0.16148307366E+04  0.00000000000E+00 0.  1.
         23    2    1    2    0    0 -0.18821180612E+03  0.84233485857E+03  0.49308361112E+02  0.86914286906E+03  0.89589700542E+02 0.  0.
         13    1    3    3    0    0 -0.54428808505E+02  0.22309078468E+03  0.52695789421E+02  0.23560314010E+03  0.00000000000E+00 0. -1.
        -13    1    3    3    0    0 -0.13378299761E+03  0.61924407389E+03 -0.33874283088E+01  0.63353972896E+03  0.00000000000E+00 0.  1.
         22    1    1    2    0    0  0.18821180612E+03 -0.84233485857E+03 -0.10503480908E+04  0.13594788743E+04  0.00000000000E+00 0.  1.
<mgrwt>
<rscale>  0 0.19911490E+04</rscale>
<asrwt>0</asrwt>
<pdfrwt beam="1">  1        1 0.94429387E-01 0.19911490E+04</pdfrwt>
<pdfrwt beam="2">  1       -1 0.24843549E+00 0.19911490E+04</pdfrwt>
<totfact> 0.21957896E+00</totfact>
</mgrwt>
</event>
<event>
 6    1  0.1568961E-005  0.1321326E+04  0.7818608E-02  0.9012822E-01
          2   -1    0    0  501    0  0.00000000000E+00  0.00000000000E+00  0.81980132946E+03  0.81980132946E+03  0.00000000000E+00 0. -1.
         -2   -1    0    0    0  501 -0.00000000000E+00 -0.00000000000E+00 -0.53241663291E+03  0.53241663291E+03  0.00000000000E+00 0.  1.
         23    2    1    2    0    0 -0.59766007804E+03  0.73837711240E+02 -0.12556482478E+03  0.62202834067E+03  0.92212552798E+02 0.  0.
         11    1    3    3    0    0 -0.37597884252E+03  0.14726462729E+02 -0.45385185692E+02  0.37899442451E+03  0.00000000000E+00 0.  1.
        -11    1    3    3    0    0 -0.22168123552E+03  0.59111248511E+02 -0.80179639088E+02  0.24303391616E+03  0.00000000000E+00 0. -1.
         22    1    1    2    0    0  0.59766007804E+03 -0.73837711240E+02  0.41294952132E+03  0.73018962170E+03  0.00000000000E+00 0. -1.
<mgrwt>
<rscale>  0 0.13213264E+04</rscale>
<asrwt>0</asrwt>
<pdfrwt beam="1">  1        2 0.12612328E+00 0.13213264E+04</pdfrwt>
<pdfrwt beam="2">  1       -2 0.81910251E-01 0.13213264E+04</pdfrwt>
<totfact> 0.42777800E+01</totfact>
</mgrwt>
</event>
<event>
 6    1  0.1568961E-005  0.4107432E+04  0.7818608E-02  0.7983218E-01
         -1   -1    0    0    0  501 -0.00000000000E+00  0.00000000000E+00  0.18612745695E+04  0.18612745695E+04  0.00000000000E+00 0.  1.
          1   -1    0    0  501    0  0.00000000000E+00 -0.00000000000E+00 -0.22660544548E+04  0.22660544548E+04  0.00000000000E+00 0. -1.
         23    2    1    2    0    0  0.13117513539E+04 -0.10193701919E+04 -0.14142022406E+04  0.21834307002E+04  0.87146099116E+02 0.  0.
         11    1    3    3    0    0  0.63251383142E+03 -0.46839149683E+03 -0.72176248393E+03  0.10678976657E+04  0.00000000000E+00 0. -1.
        -11    1    3    3    0    0  0.67923752252E+03 -0.55097869505E+03 -0.69243975671E+03  0.11155330345E+04  0.00000000000E+00 0.  1.
         22    1    1    2    0    0 -0.13117513539E+04  0.10193701919E+04  0.10094223554E+04  0.19438983240E+04  0.00000000000E+00 0.  1.
<mgrwt>
<rscale>  0 0.41074321E+04</rscale>
<asrwt>0</asrwt>
<pdfrwt beam="1">  1        1 0.34862376E+00 0.41074321E+04</pdfrwt>
<pdfrwt beam="2">  1       -1 0.28634993E+00 0.41074321E+04</pdfrwt>
<totfact> 0.61676517E-02</totfact>
</mgrwt>
</event>
<event>
 6    1  0.1568961E-005  0.3614477E+04  0.7818608E-02  0.8087184E-01
         -2   -1    0    0    0  501 -0.00000000000E+00  0.00000000000E+00  0.88407011083E+03  0.88407011083E+03  0.00000000000E+00 0.  1.
          2   -1    0    0  501    0  0.00000000000E+00 -0.00000000000E+00 -0.36944021216E+04  0.36944021216E+04  0.00000000000E+00 0. -1.
         23    2    1    2    0    0 -0.25005290508E+02  0.11944819021E+04 -0.31217575019E+04  0.33438070489E+04  0.90903249266E+02 0.  0.
         11    1    3    3    0    0 -0.13761541698E+02  0.62416091815E+03 -0.17575651258E+04  0.18651545253E+04  0.00000000000E+00 0. -1.
        -11    1    3    3    0    0 -0.11243748810E+02  0.57032098399E+03 -0.13641923760E+04  0.14786525236E+04  0.00000000000E+00 0.  1.
         22    1    1    2    0    0  0.25005290508E+02 -0.11944819021E+04  0.31142549104E+03  0.12346651836E+04  0.00000000000E+00 0.  1.
<mgrwt>
<rscale>  0 0.36144767E+04</rscale>
<asrwt>0</asrwt>
<pdfrwt beam="1">  1        2 0.56836956E+00 0.36144767E+04</pdfrwt>
<pdfrwt beam="2">  1       -2 0.13601079E+00 0.36144767E+04</pdfrwt>
<totfact> 0.18527864E-01</totfact>
</mgrwt>
</event>
<event>
 6    1  0.1568961E-005  0.2080340E+04  0.7818608E-02  0.8569954E-01
         -2   -1    0    0    0  501 -0.00000000000E+00  0.00000000000E+00  0.98892801963E+03  0.98892801963E+03  0.00000000000E+00 0.  1.
          2   -1    0    0  501    0  0.00000000000E+00 -0.00000000000E+00 -0.10940670049E+04  0.10940670049E+04  0.00000000000E+00 0. -1.
         23    2    1    2    0    0  0.74702623293E+03 -0.57187076690E+03 -0.49214731754E+03  0.10657144261E+04  0.91945032871E+02 0.  0.
         11    1    3    3    0    0  0.34440194897E+03 -0.24491120278E+03 -0.17241770712E+03  0.45642312105E+03  0.00000000000E+00 0. -1.
        -11    1    3    3    0    0  0.40262428396E+03 -0.32695956412E+03 -0.31972961041E+03  0.60929130502E+03  0.00000000000E+00 0.  1.
         22    1    1    2    0    0 -0.74702623293E+03  0.57187076690E+03  0.38700833228E+03  0.10172805984E+04  0.00000000000E+00 0.  1.
<mgrwt>
<rscale>  0 0.20803399E+04</rscale>
<asrwt>0</asrwt>
<pdfrwt beam="1">  1        2 0.16831800E+00 0.20803399E+04</pdfrwt>
<pdfrwt beam="2">  1       -2 0.15214277E+00 0.20803399E+04</pdfrwt>
<totfact> 0.58511802E+00</totfact>
</mgrwt>
</event>
<event>
 6    1  0.1568961E-005  0.5005106E+04  0.7818608E-02  0.7827720E-01
         -1   -1    0    0    0  501 -0.00000000000E+00  0.00000000000E+00  0.21112488758E+04  0.21112488758E+04  0.00000000000E+00 0.  1.
          1   -1    0    0  501    0  0.00000000000E+00 -0.00000000000E+00 -0.29663829355E+04  0.29663829355E+04  0.00000000000E+00 0. -1.
         23    2    1    2    0    0 -0.49016482609E+03 -0.62228412513E+03  0.19794999821E+04  0.21343939277E+04  0.98580780893E+02 0.  0.
         11    1    3    3    0    0 -0.30618295309E+03 -0.31700087747E+03  0.11497597900E+04  0.12313346953E+04  0.00000000000E+00 0. -1.
        -11    1    3    3    0    0 -0.18398187301E+03 -0.30528324766E+03  0.82974019205E+03  0.90305923239E+03  0.00000000000E+00 0.  1.
         22    1    1    2    0    0  0.49016482609E+03  0.62228412513E+03 -0.28346340418E+04  0.29432378837E+04  0.00000000000E+00 0. -1.
<mgrwt>
<rscale>  0 0.50051064E+04</rscale>
<asrwt>0</asrwt>
<pdfrwt beam="1">  1        1 0.45636661E+00 0.50051064E+04</pdfrwt>
<pdfrwt beam="2">  1       -1 0.32480752E+00 0.50051064E+04</pdfrwt>
<totfact> 0.10390302E-02</totfact>
</mgrwt>
</event>
<event>
 6    1  0.1568961E-005  0.4463075E+04  0.7818608E-02  0.7917133E-01
         -1   -1    0    0    0  501 -0.00000000000E+00  0.00000000000E+00  0.23373272377E+04  0.23373272377E+04  0.00000000000E+00 0. -1.
          1   -1    0    0  501    0  0.00000000000E+00 -0.00000000000E+00 -0.21305354745E+04  0.21305354745E+04  0.00000000000E+00 0.  1.
         23    2    1    2    0    0 -0.72603661891E+03  0.20632392773E+04  0.54183850717E+03  0.22550948058E+04  0.88193694605E+02 0.  0.
         11    1    3    3    0    0 -0.42775514356E+03  0.12905937602E+04  0.30081796957E+03  0.13925150511E+04  0.00000000000E+00 0.  1.
        -11    1    3    3    0    0 -0.29828147535E+03  0.77264551712E+03  0.24102053761E+03  0.86257975469E+03  0.00000000000E+00 0. -1.
         22    1    1    2    0    0  0.72603661891E+03 -0.20632392773E+04 -0.33504674398E+03  0.22127679065E+04  0.00000000000E+00 0.  1.
<mgrwt>
<rscale>  0 0.44630745E+04</rscale>
<asrwt>0</asrwt>
<pdfrwt beam="1">  1        1 0.32777469E+00 0.44630745E+04</pdfrwt>
<pdfrwt beam="2">  1       -1 0.35958881E+00 0.44630745E+04</pdfrwt>
<totfact> 0.24560511E-02</totfact>
</mgrwt>
</event>
<event>
 6    1  0.1568961E-005  0.2951171E+04  0.7818608E-02  0.8257813E-01
          1   -1    0    0  501    0  0.00000000000E+00  0.00000000000E+00  0.26397156948E+04  0.26397156948E+04  0.00000000000E+00 0. -1.
         -1   -1    0    0    0  501 -0.00000000000E+00 -0.00000000000E+00 -0.82484356059E+03  0.82484356059E+03  0.00000000000E+00 0.  1.
         23    2    1    2    0    0  0.76243068316E+03  0.57970781913E+03 -0.40737753770E+03  0.10446924602E+04  0.89800757268E+02 0.  0.
         13    1    3    3    0    0  0.25976057916E+03  0.24349185875E+03 -0.17634111773E+03  0.39731603739E+03  0.00000000000E+00 0.  1.
        -13    1    3    3    0    0  0.50267010399E+03  0.33621596038E+03 -0.23103641997E+03  0.64737642281E+03  0.00000000000E+00 0. -1.
         22    1    1    2    0    0 -0.76243068316E+03 -0.57970781913E+03  0.22222496719E+04  0.24198667952E+04  0.00000000000E+00 0. -1.
<mgrwt>
<rscale>  0 0.29511709E+04</rscale>
<asrwt>0</asrwt>
<pdfrwt beam="1">  1        1 0.40611010E+00 0.29511709E+04</pdfrwt>
<pdfrwt beam="2">  1       -1 0.12689901E+00 0.29511709E+04</pdfrwt>
<totfact> 0.49817227E-01</totfact>
</mgrwt>
</event>
<event>
 6    1  0.1568961E-005  0.2872262E+04  0.7818608E-02  0.8281178E-01
          1   -1    0    0  501    0  0.00000000000E+00  0.00000000000E+00  0.18801182485E+04  0.18801182485E+04  0.00000000000E+00 0. -1.
         -1   -1    0    0    0  501 -0.00000000000E+00 -0.00000000000E+00 -0.10969909686E+04  0.10969909686E+04  0.00000000000E+00 0.  1.
         23    2    1    2    0    0  0.20530522958E+02  0.13491781425E+04  0.89734519004E+03  0.16229493692E+04  0.89627574658E+02 0.  0.
         11    1    3    3    0    0  0.21809018200E+02  0.61856388124E+03  0.46319171313E+03  0.77307404015E+03  0.00000000000E+00 0.  1.
        -11    1    3    3    0    0 -0.12784952421E+01  0.73061426130E+03  0.43415347691E+03  0.84987532902E+03  0.00000000000E+00 0. -1.
         22    1    1    2    0    0 -0.20530522958E+02 -0.13491781425E+04 -0.11421791011E+03  0.13541598479E+04  0.00000000000E+00 0.  1.
<mgrwt>
<rscale>  0 0.28722623E+04</rscale>
<asrwt>0</asrwt>
<pdfrwt beam="1">  1        1 0.28924896E+00 0.28722623E+04</pdfrwt>
<pdfrwt beam="2">  1       -1 0.16876784E+00 0.28722623E+04</pdfrwt>
<totfact> 0.77698970E-01</totfact>
</mgrwt>
</event>
<event>
 6    1  0.1568961E-005  0.2023122E+04  0.7818608E-02  0.8595886E-01
          2   -1    0    0  501    0  0.00000000000E+00  0.00000000000E+00  0.12526987100E+04  0.12526987100E+04  0.00000000000E+00 0. -1.
         -2   -1    0    0    0  501 -0.00000000000E+00 -0.00000000000E+00 -0.81684117150E+03  0.81684117150E+03  0.00000000000E+00 0.  1.
         23    2    1    2    0    0  0.54922260081E+03 -0.57618243191E+03  0.85340612554E+03  0.11706636483E+04  0.92302233786E+02 0.  0.
         13    1    3    3    0    0  0.39452726790E+03 -0.36367498108E+03  0.61016616426E+03  0.81253554076E+03  0.00000000000E+00 0. -1.
        -13    1    3    3    0    0  0.15469533291E+03 -0.21250745083E+03  0.24323996127E+03  0.35812810759E+03  0.00000000000E+00 0.  1.
         22    1    1    2    0    0 -0.54922260081E+03  0.57618243191E+03 -0.41754858700E+03  0.89887623319E+03  0.00000000000E+00 0.  1.
<mgrwt>
<rscale>  0 0.20231222E+04</rscale>
<asrwt>0</asrwt>
<pdfrwt beam="1">  1        2 0.19272288E+00 0.20231222E+04</pdfrwt>
<pdfrwt beam="2">  1       -2 0.12566787E+00 0.20231222E+04</pdfrwt>
<totfact> 0.77327760E+00</totfact>
</mgrwt>
</event>
<event>
 6    1  0.1568961E-005  0.4390366E+04  0.7818608E-02  0.7930117E-01
         -2   -1    0    0    0  501 -0.00000000000E+00  0.00000000000E+00  0.15020891417E+04  0.15020891417E+04  0.00000000000E+00 0. -1.
          2   -1    0    0  501    0  0.00000000000E+00 -0.00000000000E+00 -0.32080846530E+04  0.32080846530E+04  0.00000000000E+00 0.  1.
         23    2    1    2    0    0  0.68790659738E+03 -0.18339182630E+03 -0.30801086568E+04  0.31625837374E+04  0.89546129925E+02 0.  0.
         11    1    3    3    0    0  0.19553630106E+03 -0.68604977591E+02 -0.10690773904E+04  0.10889754610E+04  0.00000000000E+00 0.  1.
        -11    1    3    3    0    0  0.49237029632E+03 -0.11478684871E+03 -0.20110312664E+04  0.20736082764E+04  0.00000000000E+00 0. -1.
         22    1    1    2    0    0 -0.68790659738E+03  0.18339182630E+03  0.13741131455E+04  0.15475900573E+04  0.00000000000E+00 0. -1.
<mgrwt>
<rscale>  0 0.43903663E+04</rscale>
<asrwt>0</asrwt>
<pdfrwt beam="1">  1        2 0.49355148E+00 0.43903663E+04</pdfrwt>
<pdfrwt beam="2">  1       -2 0.23109064E+00 0.43903663E+04</pdfrwt>
<totfact> 0.82341058E-02</totfact>
</mgrwt>
</event>
<event>
 6    1  0.1568961E-005  0.4439055E+03  0.7818608E-02  0.1029555E+00
         -1   -1    0    0    0  501 -0.00000000000E+00  0.00000000000E+00  0.59996665898E+03  0.59996665898E+03  0.00000000000E+00 0.  1.
          1   -1    0    0  501    0  0.00000000000E+00 -0.00000000000E+00 -0.82109615098E+02  0.82109615098E+02  0.00000000000E+00 0. -1.
         23    2    1    2    0    0 -0.18219922957E+03 -0.94596040769E+00  0.10132509801E+03  0.22743760873E+03  0.90904544899E+02 0.  0.
         11    1    3    3    0    0 -0.63614885103E+02 -0.41534674497E+02  0.21954937731E+02  0.79082248849E+02  0.00000000000E+00 0. -1.
        -11    1    3    3    0    0 -0.11858434446E+03  0.40588714089E+02  0.79370160280E+02  0.14835535988E+03  0.00000000000E+00 0.  1.
         22    1    1    2    0    0  0.18219922957E+03  0.94596040769E+00  0.41653194588E+03  0.45463866535E+03  0.00000000000E+00 0. -1.
<mgrwt>
<rscale>  0 0.44390554E+03</rscale>
<asrwt>0</asrwt>
<pdfrwt beam="1">  1        1 0.12632249E-01 0.44390554E+03</pdfrwt>
<pdfrwt beam="2">  1       -1 0.92302560E-01 0.44390554E+03</pdfrwt>
<totfact> 0.56353946E+02</totfact>
</mgrwt>
</event>
<event>
 6    1  0.1568961E-005  0.2680061E+04  0.7818608E-02  0.8341503E-01
         -2   -1    0    0    0  501 -0.00000000000E+00  0.00000000000E+00  0.96510293924E+03  0.96510293924E+03  0.00000000000E+00 0.  1.
          2   -1    0    0  501    0  0.00000000000E+00 -0.00000000000E+00 -0.18606122514E+04  0.18606122514E+04  0.00000000000E+00 0. -1.
         23    2    1    2    0    0 -0.66733190583E+03  0.11369481514E+04 -0.69225431184E+03  0.14918128080E+04  0.91139729612E+02 0.  0.
         13    1    3    3    0    0 -0.52421263941E+03  0.81923007431E+03 -0.49308358648E+03  0.10904440514E+04  0.00000000000E+00 0. -1.
        -13    1    3    3    0    0 -0.14311926642E+03  0.31771807704E+03 -0.19917072537E+03  0.40136875656E+03  0.00000000000E+00 0.  1.
         22    1    1    2    0    0  0.66733190583E+03 -0.11369481514E+04 -0.20325500033E+03  0.13339023827E+04  0.00000000000E+00 0.  1.
<mgrwt>
<rscale>  0 0.26800615E+04</rscale>
<asrwt>0</asrwt>
<pdfrwt beam="1">  1        2 0.28624804E+00 0.26800615E+04</pdfrwt>
<pdfrwt beam="2">  1       -2 0.14847738E+00 0.26800615E+04</pdfrwt>
<totfact> 0.21603361E+00</totfact>
</mgrwt>
</event>
<event>
 6    1  0.1568961E-005  0.2912772E+04  0.7818608E-02  0.8269088E-01
          2   -1    0    0  501    0  0.00000000000E+00  0.00000000000E+00  0.44271913154E+04  0.44271913154E+04  0.00000000000E+00 0. -1.
         -2   -1    0    0    0  501 -0.00000000000E+00 -0.00000000000E+00 -0.47909824905E+03  0.47909824905E+03  0.00000000000E+00 0.  1.
         23    2    1    2    0    0 -0.51944283983E+03  0.44047307675E+03  0.41416507998E+04  0.41982627349E+04  0.91111188860E+02 0.  0.
         13    1    3    3    0    0 -0.44370430238E+03  0.33579181435E+03  0.32480807577E+04  0.32953995598E+04  0.00000000000E+00 0. -1.
        -13    1    3    3    0    0 -0.75738537448E+02  0.10468126240E+03  0.89357004211E+03  0.90286317508E+03  0.00000000000E+00 0.  1.
         22    1    1    2    0    0  0.51944283983E+03 -0.44047307675E+03 -0.19355773344E+03  0.70802682955E+03  0.00000000000E+00 0.  1.
<mgrwt>
<rscale>  0 0.29127716E+04</rscale>
<asrwt>0</asrwt>
<pdfrwt beam="1">  1        2 0.68110633E+00 0.29127716E+04</pdfrwt>
<pdfrwt beam="2">  1       -2 0.73707426E-01 0.29127716E+04</pdfrwt>
<totfact> 0.20701634E-01</totfact>
</mgrwt>
</event>
<event>
 6    1  0.1884171E-005  0.3434769E+04  0.7818608E-02  0.8129425E-01
          1   -1    0    0  501    0  0.00000000000E+00  0.00000000000E+00  0.32058496204E+04  0.32058496204E+04  0.00000000000E+00 0. -1.
         -1   -1    0    0    0  501 -0.00000000000E+00 -0.00000000000E+00 -0.92000850688E+03  0.92000850688E+03  0.00000000000E+00 0.  1.
         23    2    1    2    0    0  0.13407997464E+04 -0.74182421169E+03  0.21542322702E+03  0.15500713842E+04  0.90923090564E+02 0.  0.
         13    1    3    3    0    0  0.58522679873E+03 -0.28486386226E+03  0.61832975732E+02  0.65380512606E+03  0.00000000000E+00 0. -1.
        -13    1    3    3    0    0  0.75557294769E+03 -0.45696034943E+03  0.15359025129E+03  0.89626625816E+03  0.00000000000E+00 0.  1.
         22    1    1    2    0    0 -0.13407997464E+04  0.74182421169E+03  0.20704178865E+04  0.25757867431E+04  0.00000000000E+00 0.  1.
<mgrwt>
<rscale>  0 0.34347687E+04</rscale>
<asrwt>0</asrwt>
<pdfrwt beam="1">  1        1 0.49320763E+00 0.34347687E+04</pdfrwt>
<pdfrwt beam="2">  1       -1 0.14153977E+00 0.34347687E+04</pdfrwt>
<totfact> 0.14044103E-01</totfact>
</mgrwt>
</event>
<event>
 6    1  0.1568961E-005  0.2000985E+04  0.7818608E-02  0.8606160E-01
          1   -1    0    0  501    0  0.00000000000E+00  0.00000000000E+00  0.13871632528E+04  0.13871632528E+04  0.00000000000E+00 0. -1.
         -1   -1    0    0    0  501 -0.00000000000E+00 -0.00000000000E+00 -0.72160565973E+03  0.72160565973E+03  0.00000000000E+00 0.  1.
         23    2    1    2    0    0  0.21544965554E+02 -0.74806232241E+03  0.10301453888E+04  0.12763112952E+04  0.87804193504E+02 0.  0.
         13    1    3    3    0    0  0.43957840178E+02 -0.39506542341E+03  0.49523776168E+03  0.63503497627E+03  0.00000000000E+00 0.  1.
        -13    1    3    3    0    0 -0.22412874624E+02 -0.35299689899E+03  0.53490762713E+03  0.64127631892E+03  0.00000000000E+00 0. -1.
         22    1    1    2    0    0 -0.21544965554E+02  0.74806232241E+03 -0.36458779580E+03  0.83245761729E+03  0.00000000000E+00 0. -1.
<mgrwt>
<rscale>  0 0.20009846E+04</rscale>
<asrwt>0</asrwt>
<pdfrwt beam="1">  1        1 0.21340973E+00 0.20009846E+04</pdfrwt>
<pdfrwt beam="2">  1       -1 0.11101626E+00 0.20009846E+04</pdfrwt>
<totfact> 0.54333768E+00</totfact>
</mgrwt>
</event>
<event>
 6    1  0.1568961E-005  0.1722648E+04  0.7818608E-02  0.8748552E-01
         -2   -1    0    0    0  501 -0.00000000000E+00  0.00000000000E+00  0.14831437076E+04  0.14831437076E+04  0.00000000000E+00 0.  1.
          2   -1    0    0  501    0  0.00000000000E+00 -0.00000000000E+00 -0.50020711782E+03  0.50020711782E+03  0.00000000000E+00 0. -1.
         23    2    1    2    0    0  0.80929301230E+03  0.13434315151E+02  0.16177310896E+03  0.83033516082E+03  0.90278900823E+02 0.  0.
         11    1    3    3    0    0  0.16511097753E+03 -0.25942292089E+02  0.56456545641E+02  0.17641422552E+03  0.00000000000E+00 0.  1.
        -11    1    3    3    0    0  0.64418203477E+03  0.39376607240E+02  0.10531656332E+03  0.65392093530E+03  0.00000000000E+00 0. -1.
         22    1    1    2    0    0 -0.80929301230E+03 -0.13434315151E+02  0.82116348083E+03  0.11530156646E+04  0.00000000000E+00 0.  1.
<mgrwt>
<rscale>  0 0.17226480E+04</rscale>
<asrwt>0</asrwt>
<pdfrwt beam="1">  1        2 0.76954942E-01 0.17226480E+04</pdfrwt>
<pdfrwt beam="2">  1       -2 0.22817595E+00 0.17226480E+04</pdfrwt>
<totfact> 0.51291300E+00</totfact>
</mgrwt>
</event>
<event>
 6    1  0.1568961E-005  0.3186059E+04  0.7818608E-02  0.8192509E-01
          2   -1    0    0  501    0  0.00000000000E+00  0.00000000000E+00  0.16601385552E+04  0.16601385552E+04  0.00000000000E+00 0.  1.
         -2   -1    0    0    0  501 -0.00000000000E+00 -0.00000000000E+00 -0.15286328048E+04  0.15286328048E+04  0.00000000000E+00 0. -1.
         23    2    1    2    0    0 -0.12851850723E+04  0.64476723970E+03  0.74914977199E+03  0.16238721298E+04  0.91158376631E+02 0.  0.
         11    1    3    3    0    0 -0.93935144602E+03  0.43942881448E+03  0.57257988657E+03  0.11846208459E+04  0.00000000000E+00 0. -1.
        -11    1    3    3    0    0 -0.34583362626E+03  0.20533842522E+03  0.17656988542E+03  0.43925128384E+03  0.00000000000E+00 0.  1.
         22    1    1    2    0    0  0.12851850723E+04 -0.64476723970E+03 -0.61764402157E+03  0.15648992302E+04  0.00000000000E+00 0. -1.
<mgrwt>
<rscale>  0 0.31860585E+04</rscale>
<asrwt>0</asrwt>
<pdfrwt beam="1">  1        2 0.25540593E+00 0.31860585E+04</pdfrwt>
<pdfrwt beam="2">  1       -2 0.23517428E+00 0.31860585E+04</pdfrwt>
<totfact> 0.69065320E-01</totfact>
</mgrwt>
</event>
<event>
 6    1  0.1568961E-005  0.2638536E+04  0.7818608E-02  0.8355228E-01
          2   -1    0    0  501    0  0.00000000000E+00  0.00000000000E+00  0.19945172008E+04  0.19945172008E+04  0.00000000000E+00 0. -1.
         -2   -1    0    0    0  501 -0.00000000000E+00 -0.00000000000E+00 -0.87262611483E+03  0.87262611483E+03  0.00000000000E+00 0.  1.
         23    2    1    2    0    0 -0.62541683966E+03 -0.93762595763E+03  0.13033769408E+04  0.17255541710E+04  0.91962423827E+02 0.  0.
         11    1    3    3    0    0 -0.42590918603E+03 -0.71154589502E+03  0.95129526223E+03  0.12620058920E+04  0.00000000000E+00 0. -1.
        -11    1    3    3    0    0 -0.19950765362E+03 -0.22608006261E+03  0.35208167859E+03  0.46354827899E+03  0.00000000000E+00 0.  1.
         22    1    1    2    0    0  0.62541683966E+03  0.93762595763E+03 -0.18148585482E+03  0.11415891447E+04  0.00000000000E+00 0.  1.
<mgrwt>
<rscale>  0 0.26385358E+04</rscale>
<asrwt>0</asrwt>
<pdfrwt beam="1">  1        2 0.30684880E+00 0.26385358E+04</pdfrwt>
<pdfrwt beam="2">  1       -2 0.13425017E+00 0.26385358E+04</pdfrwt>
<totfact> 0.23742018E+00</totfact>
</mgrwt>
</event>
<event>
 6    1  0.1568961E-005  0.2168809E+04  0.7818608E-02  0.8531524E-01
         -2   -1    0    0    0  501 -0.00000000000E+00  0.00000000000E+00  0.15739528708E+04  0.15739528708E+04  0.00000000000E+00 0. -1.
          2   -1    0    0  501    0  0.00000000000E+00 -0.00000000000E+00 -0.74712079334E+03  0.74712079334E+03  0.00000000000E+00 0.  1.
         23    2    1    2    0    0  0.13413872715E+03 -0.21963066279E+03  0.15394088126E+04  0.15634481435E+04  0.91431826665E+02 0.  0.
         13    1    3    3    0    0  0.79374031814E+02 -0.17010209389E+03  0.12815992112E+04  0.12952727502E+04  0.00000000000E+00 0. -1.
        -13    1    3    3    0    0  0.54764695335E+02 -0.49528568904E+02  0.25780960140E+03  0.26817539329E+03  0.00000000000E+00 0.  1.
         22    1    1    2    0    0 -0.13413872715E+03  0.21963066279E+03 -0.71257673511E+03  0.75762552068E+03  0.00000000000E+00 0.  1.
<mgrwt>
<rscale>  0 0.21688088E+04</rscale>
<asrwt>0</asrwt>
<pdfrwt beam="1">  1        2 0.11494166E+00 0.21688088E+04</pdfrwt>
<pdfrwt beam="2">  1       -2 0.24214659E+00 0.21688088E+04</pdfrwt>
<totfact> 0.24805269E+00</totfact>
</mgrwt>
</event>
<event>
 6    1  0.1568961E-005  0.2671331E+04  0.7818608E-02  0.8344367E-01
          1   -1    0    0  501    0  0.00000000000E+00  0.00000000000E+00  0.17531604289E+04  0.17531604289E+04  0.00000000000E+00 0.  1.
         -1   -1    0    0    0  501 -0.00000000000E+00 -0.00000000000E+00 -0.10175924005E+04  0.10175924005E+04  0.00000000000E+00 0. -1.
         23    2    1    2    0    0  0.21274815886E+03 -0.47316009968E+03 -0.90663707004E+03  0.10485507958E+04  0.91245468854E+02 0.  0.
         13    1    3    3    0    0  0.16629075899E+03 -0.26416955423E+03 -0.51497414123E+03  0.60219310528E+03  0.00000000000E+00 0. -1.
        -13    1    3    3    0    0  0.46457399872E+02 -0.20899054545E+03 -0.39166292881E+03  0.44635769053E+03  0.00000000000E+00 0.  1.
         22    1    1    2    0    0 -0.21274815886E+03  0.47316009968E+03  0.16422050985E+04  0.17222020336E+04  0.00000000000E+00 0.  1.
<mgrwt>
<rscale>  0 0.26713313E+04</rscale>
<asrwt>0</asrwt>
<pdfrwt beam="1">  1        1 0.26971699E+00 0.26713313E+04</pdfrwt>
<pdfrwt beam="2">  1       -1 0.15655268E+00 0.26713313E+04</pdfrwt>
<totfact> 0.11914873E+00</totfact>
</mgrwt>
</event>
<event>
 6    1  0.1568961E-005  0.5777551E+04  0.7818608E-02  0.7718611E-01
         -1   -1    0    0    0  501 -0.00000000000E+00  0.00000000000E+00  0.32622317107E+04  0.32622317107E+04  0.00000000000E+00 0.  1.
          1   -1    0    0  501    0  0.00000000000E+00 -0.00000000000E+00 -0.25580722798E+04  0.25580722798E+04  0.00000000000E+00 0. -1.
         23    2    1    2    0    0 -0.70351039570E+03 -0.26705050607E+04  0.12036397895E+04  0.30138819295E+04  0.90616700768E+02 0.  0.
         11    1    3    3    0    0 -0.60789126796E+03 -0.21744692794E+04  0.97398282084E+03  0.24589613612E+04  0.00000000000E+00 0. -1.
        -11    1    3    3    0    0 -0.95619127733E+02 -0.49603578129E+03  0.22965696862E+03  0.55492056832E+03  0.00000000000E+00 0.  1.
         22    1    1    2    0    0  0.70351039570E+03  0.26705050607E+04 -0.49948035851E+03  0.28064220610E+04  0.00000000000E+00 0. -1.
<mgrwt>
<rscale>  0 0.57775512E+04</rscale>
<asrwt>0</asrwt>
<pdfrwt beam="1">  1        1 0.39354958E+00 0.57775512E+04</pdfrwt>
<pdfrwt beam="2">  1       -1 0.50188180E+00 0.57775512E+04</pdfrwt>
<totfact> 0.12270464E-03</totfact>
</mgrwt>
</event>
<event>
 6    1  0.1568961E-005  0.1652343E+04  0.7818608E-02  0.8789021E-01
          2   -1    0    0  501    0  0.00000000000E+00  0.00000000000E+00  0.15713929538E+04  0.15713929538E+04  0.00000000000E+00 0.  1.
         -2   -1    0    0    0  501 -0.00000000000E+00 -0.00000000000E+00 -0.43436603088E+03  0.43436603088E+03  0.00000000000E+00 0. -1.
         23    2    1    2    0    0  0.98073366105E+01 -0.24922310729E+03  0.15231285118E+04  0.15461039205E+04  0.91151130458E+02 0.  0.
         13    1    3    3    0    0  0.46261941093E+02 -0.81819031250E+02  0.50915323665E+03  0.51775625487E+03  0.00000000000E+00 0. -1.
        -13    1    3    3    0    0 -0.36454604482E+02 -0.16740407604E+03  0.10139752752E+04  0.10283476657E+04  0.00000000000E+00 0.  1.
         22    1    1    2    0    0 -0.98073366105E+01  0.24922310729E+03 -0.38610158888E+03  0.45965506414E+03  0.00000000000E+00 0. -1.
<mgrwt>
<rscale>  0 0.16523435E+04</rscale>
<asrwt>0</asrwt>
<pdfrwt beam="1">  1        2 0.24175276E+00 0.16523435E+04</pdfrwt>
<pdfrwt beam="2">  1       -2 0.66825544E-01 0.16523435E+04</pdfrwt>
<totfact> 0.22724764E+01</totfact>
</mgrwt>
</event>
<event>
 6    1  0.1568961E-005  0.8030398E+03  0.7818608E-02  0.9555628E-01
          2   -1    0    0  501    0  0.00000000000E+00  0.00000000000E+00  0.51471207603E+03  0.51471207603E+03  0.00000000000E+00 0. -1.
         -2   -1    0    0    0  501 -0.00000000000E+00 -0.00000000000E+00 -0.31322019873E+03  0.31322019873E+03  0.00000000000E+00 0.  1.
         23    2    1    2    0    0  0.45666492152E+02 -0.11429693809E+03  0.49080569341E+03  0.51352536843E+03  0.87572009102E+02 0.  0.
         13    1    3    3    0    0  0.39511525196E+02 -0.30284270556E+02  0.31107450974E+03  0.31503277333E+03  0.00000000000E+00 0.  1.
        -13    1    3    3    0    0  0.61549669565E+01 -0.84012667535E+02  0.17973118367E+03  0.19849259510E+03  0.00000000000E+00 0. -1.
         22    1    1    2    0    0 -0.45666492152E+02  0.11429693809E+03 -0.28931381610E+03  0.31440690633E+03  0.00000000000E+00 0.  1.
<mgrwt>
<rscale>  0 0.80303977E+03</rscale>
<asrwt>0</asrwt>
<pdfrwt beam="1">  1        2 0.79186473E-01 0.80303977E+03</pdfrwt>
<pdfrwt beam="2">  1       -2 0.48187723E-01 0.80303977E+03</pdfrwt>
<totfact> 0.24451342E+02</totfact>
</mgrwt>
</event>
<event>
 6    1  0.1568961E-005  0.2323241E+04  0.7818608E-02  0.8468813E-01
         -2   -1    0    0    0  501 -0.00000000000E+00  0.00000000000E+00  0.59395288422E+03  0.59395288422E+03  0.00000000000E+00 0.  1.
          2   -1    0    0  501    0  0.00000000000E+00 -0.00000000000E+00 -0.22718338891E+04  0.22718338891E+04  0.00000000000E+00 0. -1.
         23    2    1    2    0    0  0.59422920251E+03 -0.43827809803E+03  0.26304242257E+03  0.78915975154E+03  0.91573801102E+02 0.  0.
         13    1    3    3    0    0  0.39755098523E+03 -0.32443313789E+03  0.21784081497E+03  0.55745696469E+03  0.00000000000E+00 0. -1.
        -13    1    3    3    0    0  0.19667821728E+03 -0.11384496014E+03  0.45201607596E+02  0.23170278685E+03  0.00000000000E+00 0.  1.
         22    1    1    2    0    0 -0.59422920251E+03  0.43827809803E+03 -0.19409234274E+04  0.20766270217E+04  0.00000000000E+00 0. -1.
<mgrwt>
<rscale>  0 0.23232411E+04</rscale>
<asrwt>0</asrwt>
<pdfrwt beam="1">  1        2 0.34951290E+00 0.23232411E+04</pdfrwt>
<pdfrwt beam="2">  1       -2 0.91377368E-01 0.23232411E+04</pdfrwt>
<totfact> 0.43419977E+00</totfact>
</mgrwt>
</event>
<event>
 6    1  0.1568961E-005  0.1405633E+04  0.7818608E-02  0.8949751E-01
          1   -1    0    0  501    0  0.00000000000E+00  0.00000000000E+00  0.10510952413E+04  0.10510952413E+04  0.00000000000E+00 0. -1.
         -1   -1    0    0    0  501 -0.00000000000E+00 -0.00000000000E+00 -0.46993961290E+03  0.46993961290E+03  0.00000000000E+00 0.  1.
         23    2    1    2    0    0 -0.19754917011E+03 -0.58568001122E+03  0.64697511922E+03  0.89944097109E+03  0.91490466281E+02 0.  0.
         13    1    3    3    0    0 -0.98624725677E+02 -0.16269843079E+03  0.18715049831E+03  0.26687623520E+03  0.00000000000E+00 0. -1.
        -13    1    3    3    0    0 -0.98924444432E+02 -0.42298158043E+03  0.45982462091E+03  0.63256473588E+03  0.00000000000E+00 0.  1.
         22    1    1    2    0    0  0.19754917011E+03  0.58568001122E+03 -0.65819490831E+02  0.62159388311E+03  0.00000000000E+00 0.  1.
<mgrwt>
<rscale>  0 0.14056334E+04</rscale>
<asrwt>0</asrwt>
<pdfrwt beam="1">  1        1 0.16170696E+00 0.14056334E+04</pdfrwt>
<pdfrwt beam="2">  1       -1 0.72298402E-01 0.14056334E+04</pdfrwt>
<totfact> 0.25986010E+01</totfact>
</mgrwt>
</event>
<event>
 6    1  0.1568961E-005  0.2587818E+04  0.7818608E-02  0.8372351E-01
         -2   -1    0    0    0  501 -0.00000000000E+00  0.00000000000E+00  0.14908936821E+04  0.14908936821E+04  0.00000000000E+00 0.  1.
          2   -1    0    0  501    0  0.00000000000E+00 -0.00000000000E+00 -0.11229507125E+04  0.11229507125E+04  0.00000000000E+00 0. -1.
         23    2    1    2    0    0  0.17919495829E+03  0.12160017012E+04 -0.21875647776E+03  0.12518652420E+04  0.92418706034E+02 0.  0.
         11    1    3    3    0    0  0.69663963732E+02  0.77053837588E+03 -0.14798000799E+03  0.78770587107E+03  0.00000000000E+00 0.  1.
        -11    1    3    3    0    0  0.10953099456E+03  0.44546332532E+03 -0.70776469770E+02  0.46415937096E+03  0.00000000000E+00 0. -1.
         22    1    1    2    0    0 -0.17919495829E+03 -0.12160017012E+04  0.58669944742E+03  0.13619791526E+04  0.00000000000E+00 0.  1.
<mgrwt>
<rscale>  0 0.25878177E+04</rscale>
<asrwt>0</asrwt>
<pdfrwt beam="1">  1        2 0.17276165E+00 0.25878177E+04</pdfrwt>
<pdfrwt beam="2">  1       -2 0.22936826E+00 0.25878177E+04</pdfrwt>
<totfact> 0.16110312E+00</totfact>
</mgrwt>
</event>
<event>
 6    1  0.1568961E-005  0.3745299E+04  0.7818608E-02  0.8057997E-01
         -2   -1    0    0    0  501 -0.00000000000E+00  0.00000000000E+00  0.10530104253E+04  0.10530104253E+04  0.00000000000E+00 0.  1.
          2   -1    0    0  501    0  0.00000000000E+00 -0.00000000000E+00 -0.33302765830E+04  0.33302765830E+04  0.00000000000E+00 0. -1.
         23    2    1    2    0    0 -0.18303954630E+04 -0.32215446429E+03 -0.88202159951E+03  0.20593166069E+04  0.93229477048E+02 0.  0.
         13    1    3    3    0    0 -0.77906634367E+03 -0.12372329967E+03 -0.42333777563E+03  0.89524672298E+03  0.00000000000E+00 0.  1.
        -13    1    3    3    0    0 -0.10513291193E+04 -0.19843116462E+03 -0.45868382388E+03  0.11640698839E+04  0.00000000000E+00 0. -1.
         22    1    1    2    0    0  0.18303954630E+04  0.32215446429E+03 -0.13952445581E+04  0.23239704015E+04  0.00000000000E+00 0. -1.
<mgrwt>
<rscale>  0 0.37452989E+04</rscale>
<asrwt>0</asrwt>
<pdfrwt beam="1">  1        2 0.51235024E+00 0.37452989E+04</pdfrwt>
<pdfrwt beam="2">  1       -2 0.16200160E+00 0.37452989E+04</pdfrwt>
<totfact> 0.20818200E-01</totfact>
</mgrwt>
</event>
<event>
 6    1  0.1568961E-005  0.2853044E+04  0.7818608E-02  0.8286987E-01
         -2   -1    0    0    0  501 -0.00000000000E+00  0.00000000000E+00  0.12684749667E+04  0.12684749667E+04  0.00000000000E+00 0.  1.
          2   -1    0    0  501    0  0.00000000000E+00 -0.00000000000E+00 -0.16042614442E+04  0.16042614442E+04  0.00000000000E+00 0. -1.
         23    2    1    2    0    0 -0.21573860166E+03  0.99567803684E+03 -0.11714254067E+04  0.15550830736E+04  0.90155337211E+02 0.  0.
         13    1    3    3    0    0 -0.16309132237E+03  0.62511699188E+03 -0.68922714475E+03  0.94467141908E+03  0.00000000000E+00 0. -1.
        -13    1    3    3    0    0 -0.52647279293E+02  0.37056104496E+03 -0.48219826199E+03  0.61041165448E+03  0.00000000000E+00 0.  1.
         22    1    1    2    0    0  0.21573860166E+03 -0.99567803684E+03  0.83563892924E+03  0.13176533373E+04  0.00000000000E+00 0.  1.
<mgrwt>
<rscale>  0 0.28530443E+04</rscale>
<asrwt>0</asrwt>
<pdfrwt beam="1">  1        2 0.24680945E+00 0.28530443E+04</pdfrwt>
<pdfrwt beam="2">  1       -2 0.19515000E+00 0.28530443E+04</pdfrwt>
<totfact> 0.13760657E+00</totfact>
</mgrwt>
</event>
<event>
 6    1  0.1568961E-005  0.2823880E+04  0.7818608E-02  0.8295893E-01
          2   -1    0    0  501    0  0.00000000000E+00  0.00000000000E+00  0.17746815088E+04  0.17746815088E+04  0.00000000000E+00 0. -1.
         -2   -1    0    0    0  501 -0.00000000000E+00 -0.00000000000E+00 -0.11233424049E+04  0.11233424049E+04  0.00000000000E+00 0.  1.
         23    2    1    2    0    0 -0.75981051195E+03 -0.95769814278E+03  0.10482891100E+04  0.16126963080E+04  0.85916103746E+02 0.  0.
         11    1    3    3    0    0 -0.68780662168E+03 -0.82624388335E+03  0.90355751542E+03  0.14043408017E+04  0.00000000000E+00 0.  1.
        -11    1    3    3    0    0 -0.72003890271E+02 -0.13145425943E+03  0.14473159455E+03  0.20835550628E+03  0.00000000000E+00 0. -1.
         22    1    1    2    0    0  0.75981051195E+03  0.95769814278E+03 -0.39695000611E+03  0.12853276057E+04  0.00000000000E+00 0.  1.
<mgrwt>
<rscale>  0 0.28238803E+04</rscale>
<asrwt>0</asrwt>
<pdfrwt beam="1">  1        2 0.27302793E+00 0.28238803E+04</pdfrwt>
<pdfrwt beam="2">  1       -2 0.17282191E+00 0.28238803E+04</pdfrwt>
<totfact> 0.15757198E+00</totfact>
</mgrwt>
</event>
<event>
 6    1  0.1568961E-005  0.5897479E+03  0.7818608E-02  0.9926907E-01
          1   -1    0    0  501    0  0.00000000000E+00  0.00000000000E+00  0.44743145381E+03  0.44743145381E+03  0.00000000000E+00 0. -1.
         -1   -1    0    0    0  501 -0.00000000000E+00 -0.00000000000E+00 -0.19433290160E+03  0.19433290160E+03  0.00000000000E+00 0.  1.
         23    2    1    2    0    0  0.77211451158E+02 -0.27495397699E+03  0.16797206499E+03  0.34375795199E+03  0.91616686746E+02 0.  0.
         11    1    3    3    0    0 -0.99504450795E+01 -0.30389202684E+02  0.48171179639E+02  0.57818487915E+02  0.00000000000E+00 0. -1.
        -11    1    3    3    0    0  0.87161896237E+02 -0.24456477430E+03  0.11980088535E+03  0.28593946407E+03  0.00000000000E+00 0.  1.
         22    1    1    2    0    0 -0.77211451158E+02  0.27495397699E+03  0.85126487224E+02  0.29800640342E+03  0.00000000000E+00 0.  1.
<mgrwt>
<rscale>  0 0.58974792E+03</rscale>
<asrwt>0</asrwt>
<pdfrwt beam="1">  1        1 0.68835608E-01 0.58974792E+03</pdfrwt>
<pdfrwt beam="2">  1       -1 0.29897370E-01 0.58974792E+03</pdfrwt>
<totfact> 0.53507477E+02</totfact>
</mgrwt>
</event>
<event>
 6    1  0.1568961E-005  0.1442097E+04  0.7818608E-02  0.8923898E-01
         -2   -1    0    0    0  501 -0.00000000000E+00  0.00000000000E+00  0.13519794469E+04  0.13519794469E+04  0.00000000000E+00 0.  1.
          2   -1    0    0  501    0  0.00000000000E+00 -0.00000000000E+00 -0.38455555935E+03  0.38455555935E+03  0.00000000000E+00 0. -1.
         23    2    1    2    0    0  0.36248639819E+03  0.41195017636E+03 -0.72604088981E+02  0.56062789740E+03  0.89067103487E+02 0.  0.
         13    1    3    3    0    0  0.13672678293E+03  0.15220911341E+03  0.16115048511E+02  0.20523528489E+03  0.00000000000E+00 0. -1.
        -13    1    3    3    0    0  0.22575961527E+03  0.25974106295E+03 -0.88719137492E+02  0.35539261251E+03  0.00000000000E+00 0.  1.
         22    1    1    2    0    0 -0.36248639819E+03 -0.41195017636E+03  0.10400279765E+04  0.11759071089E+04  0.00000000000E+00 0.  1.
<mgrwt>
<rscale>  0 0.14420974E+04</rscale>
<asrwt>0</asrwt>
<pdfrwt beam="1">  1        2 0.59162394E-01 0.14420974E+04</pdfrwt>
<pdfrwt beam="2">  1       -2 0.20799684E+00 0.14420974E+04</pdfrwt>
<totfact> 0.95078885E+00</totfact>
</mgrwt>
</event>
<event>
 6    1  0.1568961E-005  0.6597600E+03  0.7818608E-02  0.9788636E-01
          2   -1    0    0  501    0  0.00000000000E+00  0.00000000000E+00  0.60811918946E+03  0.60811918946E+03  0.00000000000E+00 0. -1.
         -2   -1    0    0    0  501 -0.00000000000E+00 -0.00000000000E+00 -0.17894653008E+03  0.17894653008E+03  0.00000000000E+00 0.  1.
         23    2    1    2    0    0  0.87404340993E+02 -0.30442331949E+03  0.14044559137E+03  0.35849087650E+03  0.92074253326E+02 0.  0.
         13    1    3    3    0    0  0.30395196945E+02 -0.22719266478E+03  0.12555148689E+03  0.26134948018E+03  0.00000000000E+00 0. -1.
        -13    1    3    3    0    0  0.57009144047E+02 -0.77230654709E+02  0.14894104480E+02  0.97141396325E+02  0.00000000000E+00 0.  1.
         22    1    1    2    0    0 -0.87404340993E+02  0.30442331949E+03  0.28872706801E+03  0.42857484303E+03  0.00000000000E+00 0. -1.
<mgrwt>
<rscale>  0 0.65976001E+03</rscale>
<asrwt>0</asrwt>
<pdfrwt beam="1">  1        2 0.93556797E-01 0.65976001E+03</pdfrwt>
<pdfrwt beam="2">  1       -2 0.27530236E-01 0.65976001E+03</pdfrwt>
<totfact> 0.59003110E+02</totfact>
</mgrwt>
</event>
<event>
 6    1  0.1568961E-005  0.2416271E+04  0.7818608E-02  0.8433437E-01
          1   -1    0    0  501    0  0.00000000000E+00  0.00000000000E+00  0.10249347759E+04  0.10249347759E+04  0.00000000000E+00 0. -1.
         -1   -1    0    0    0  501 -0.00000000000E+00 -0.00000000000E+00 -0.14240816617E+04  0.14240816617E+04  0.00000000000E+00 0.  1.
         23    2    1    2    0    0  0.11399571462E+04 -0.36812858467E+03 -0.34449296599E+03  0.12498467245E+04  0.91763179788E+02 0.  0.
         13    1    3    3    0    0  0.53957386320E+03 -0.17382030782E+03 -0.21073495312E+03  0.60478316257E+03  0.00000000000E+00 0.  1.
        -13    1    3    3    0    0  0.60038328298E+03 -0.19430827685E+03 -0.13375801287E+03  0.64506356194E+03  0.00000000000E+00 0. -1.
         22    1    1    2    0    0 -0.11399571462E+04  0.36812858467E+03 -0.54653919799E+02  0.11991697131E+04  0.00000000000E+00 0.  1.
<mgrwt>
<rscale>  0 0.24162705E+04</rscale>
<asrwt>0</asrwt>
<pdfrwt beam="1">  1        1 0.15768227E+00 0.24162705E+04</pdfrwt>
<pdfrwt beam="2">  1       -1 0.21908949E+00 0.24162705E+04</pdfrwt>
<totfact> 0.14450571E+00</totfact>
</mgrwt>
</event>
<event>
 6    1  0.1568961E-005  0.4560645E+04  0.7818608E-02  0.7900105E-01
         -1   -1    0    0    0  501 -0.00000000000E+00  0.00000000000E+00  0.36340989196E+04  0.36340989196E+04  0.00000000000E+00 0.  1.
          1   -1    0    0  501    0  0.00000000000E+00 -0.00000000000E+00 -0.14308557753E+04  0.14308557753E+04  0.00000000000E+00 0. -1.
         23    2    1    2    0    0  0.65186987354E+03  0.69766109189E+03  0.34007277965E+04  0.35334081486E+04  0.91423560958E+02 0.  0.
         11    1    3    3    0    0  0.26778593645E+03  0.32860873020E+03  0.16378192920E+04  0.16917875276E+04  0.00000000000E+00 0. -1.
        -11    1    3    3    0    0  0.38408393709E+03  0.36905236169E+03  0.17629085044E+04  0.18416206209E+04  0.00000000000E+00 0.  1.
         22    1    1    2    0    0 -0.65186987354E+03 -0.69766109189E+03 -0.11974846523E+04  0.15315465463E+04  0.00000000000E+00 0. -1.
<mgrwt>
<rscale>  0 0.45606453E+04</rscale>
<asrwt>0</asrwt>
<pdfrwt beam="1">  1        1 0.22013166E+00 0.45606453E+04</pdfrwt>
<pdfrwt beam="2">  1       -1 0.55909214E+00 0.45606453E+04</pdfrwt>
<totfact> 0.37038568E-03</totfact>
</mgrwt>
</event>
<event>
 6    1  0.1568961E-005  0.1060157E+04  0.7818608E-02  0.9244920E-01
          2   -1    0    0  501    0  0.00000000000E+00  0.00000000000E+00  0.20505135685E+04  0.20505135685E+04  0.00000000000E+00 0.  1.
         -2   -1    0    0    0  501 -0.00000000000E+00 -0.00000000000E+00 -0.13703068364E+03  0.13703068364E+03  0.00000000000E+00 0. -1.
         23    2    1    2    0    0  0.51976221394E+03 -0.55480240399E+02  0.84022432260E+03  0.99376254782E+03  0.91412652510E+02 0.  0.
         13    1    3    3    0    0  0.30109349984E+03 -0.64765116418E+02  0.54868714279E+03  0.62921331567E+03  0.00000000000E+00 0.  1.
        -13    1    3    3    0    0  0.21866871410E+03  0.92848760199E+01  0.29153717982E+03  0.36454923215E+03  0.00000000000E+00 0. -1.
         22    1    1    2    0    0 -0.51976221394E+03  0.55480240399E+02  0.10732585623E+04  0.11937817044E+04  0.00000000000E+00 0. -1.
<mgrwt>
<rscale>  0 0.10601571E+04</rscale>
<asrwt>0</asrwt>
<pdfrwt beam="1">  1        2 0.31546360E+00 0.10601571E+04</pdfrwt>
<pdfrwt beam="2">  1       -2 0.21081645E-01 0.10601571E+04</pdfrwt>
<totfact> 0.12176491E+02</totfact>
</mgrwt>
</event>
<event>
 6    1  0.1568961E-005  0.3416583E+04  0.7818608E-02  0.8133848E-01
         -2   -1    0    0    0  501 -0.00000000000E+00  0.00000000000E+00  0.12954914038E+04  0.12954914038E+04  0.00000000000E+00 0.  1.
          2   -1    0    0  501    0  0.00000000000E+00 -0.00000000000E+00 -0.22526278296E+04  0.22526278296E+04  0.00000000000E+00 0. -1.
         23    2    1    2    0    0  0.12902674937E+02  0.15394256133E+04  0.28727160779E+03  0.15685866997E+04  0.89115430878E+02 0.  0.
         11    1    3    3    0    0 -0.20404931944E+02  0.12096370100E+04  0.24592736106E+03  0.12345518718E+04  0.00000000000E+00 0.  1.
        -11    1    3    3    0    0  0.33307606881E+02  0.32978860326E+03  0.41344246736E+02  0.33403482791E+03  0.00000000000E+00 0. -1.
         22    1    1    2    0    0 -0.12902674937E+02 -0.15394256133E+04 -0.12444080336E+04  0.19795325337E+04  0.00000000000E+00 0. -1.
<mgrwt>
<rscale>  0 0.34165831E+04</rscale>
<asrwt>0</asrwt>
<pdfrwt beam="1">  1        2 0.34655812E+00 0.34165831E+04</pdfrwt>
<pdfrwt beam="2">  1       -2 0.19930637E+00 0.34165831E+04</pdfrwt>
<totfact> 0.53625290E-01</totfact>
</mgrwt>
</event>
<event>
 6    1  0.1568961E-005  0.3044533E+04  0.7818608E-02  0.8231127E-01
         -2   -1    0    0    0  501 -0.00000000000E+00  0.00000000000E+00  0.11908247835E+04  0.11908247835E+04  0.00000000000E+00 0.  1.
          2   -1    0    0  501    0  0.00000000000E+00 -0.00000000000E+00 -0.19459581444E+04  0.19459581444E+04  0.00000000000E+00 0. -1.
         23    2    1    2    0    0  0.11842569854E+04  0.72316766440E+03 -0.10196235982E+04  0.17241997750E+04  0.88297812173E+02 0.  0.
         11    1    3    3    0    0  0.19874797322E+03  0.14262631588E+03 -0.14543612118E+03  0.28459565735E+03  0.00000000000E+00 0.  1.
        -11    1    3    3    0    0  0.98550901222E+03  0.58054134852E+03 -0.87418747698E+03  0.14396041176E+04  0.00000000000E+00 0. -1.
         22    1    1    2    0    0 -0.11842569854E+04 -0.72316766440E+03  0.26449023720E+03  0.14125831529E+04  0.00000000000E+00 0. -1.
<mgrwt>
<rscale>  0 0.30445329E+04</rscale>
<asrwt>0</asrwt>
<pdfrwt beam="1">  1        2 0.29937817E+00 0.30445329E+04</pdfrwt>
<pdfrwt beam="2">  1       -2 0.18320381E+00 0.30445329E+04</pdfrwt>
<totfact> 0.10526042E+00</totfact>
</mgrwt>
</event>
<event>
 6    1  0.1568961E-005  0.4451722E+04  0.7818608E-02  0.7919144E-01
          3   -1    0    0  501    0  0.00000000000E+00  0.00000000000E+00  0.13860450618E+04  0.13860450618E+04  0.00000000000E+00 0. -1.
         -3   -1    0    0    0  501 -0.00000000000E+00 -0.00000000000E+00 -0.35745280068E+04  0.35745280068E+04  0.00000000000E+00 0.  1.
         23    2    1    2    0    0 -0.67300091592E+03 -0.13059019402E+04 -0.29566136810E+04  0.33027627845E+04  0.91473721339E+02 0.  0.
         13    1    3    3    0    0 -0.21753218064E+03 -0.40111308441E+03 -0.10127901087E+04  0.11108356136E+04  0.00000000000E+00 0. -1.
        -13    1    3    3    0    0 -0.45546873528E+03 -0.90478885583E+03 -0.19438235723E+04  0.21919271709E+04  0.00000000000E+00 0.  1.
         22    1    1    2    0    0  0.67300091592E+03  0.13059019402E+04  0.76813073595E+03  0.16578102840E+04  0.00000000000E+00 0. -1.
<mgrwt>
<rscale>  0 0.44517219E+04</rscale>
<asrwt>0</asrwt>
<pdfrwt beam="1">  1        3 0.21323771E+00 0.44517219E+04</pdfrwt>
<pdfrwt beam="2">  1       -3 0.54992737E+00 0.44517219E+04</pdfrwt>
<totfact> 0.39614914E-04</totfact>
</mgrwt>
</event>
<event>
 6    1  0.1568961E-005  0.1260408E+04  0.7818608E-02  0.9061565E-01
          1   -1    0    0  501    0  0.00000000000E+00  0.00000000000E+00  0.16070840208E+04  0.16070840208E+04  0.00000000000E+00 0. -1.
         -1   -1    0    0    0  501 -0.00000000000E+00 -0.00000000000E+00 -0.24712888521E+03  0.24712888521E+03  0.00000000000E+00 0.  1.
         23    2    1    2    0    0  0.67824615406E+02 -0.39425073712E+03  0.13936147441E+04  0.14527570660E+04  0.91143928252E+02 0.  0.
         11    1    3    3    0    0  0.63007919392E+02 -0.38052333252E+03  0.12436432798E+04  0.13020816456E+04  0.00000000000E+00 0. -1.
        -11    1    3    3    0    0  0.48166960136E+01 -0.13727404602E+02  0.14997146436E+03  0.15067542043E+03  0.00000000000E+00 0.  1.
         22    1    1    2    0    0 -0.67824615406E+02  0.39425073712E+03 -0.33659608575E+02  0.40145583994E+03  0.00000000000E+00 0.  1.
<mgrwt>
<rscale>  0 0.12604077E+04</rscale>
<asrwt>0</asrwt>
<pdfrwt beam="1">  1        1 0.24724369E+00 0.12604077E+04</pdfrwt>
<pdfrwt beam="2">  1       -1 0.38019830E-01 0.12604077E+04</pdfrwt>
<totfact> 0.36334206E+01</totfact>
</mgrwt>
</event>
<event>
 6    1  0.1568961E-005  0.1053400E+04  0.7818608E-02  0.9251841E-01
          1   -1    0    0  501    0  0.00000000000E+00  0.00000000000E+00  0.17218295939E+04  0.17218295939E+04  0.00000000000E+00 0. -1.
         -1   -1    0    0    0  501 -0.00000000000E+00 -0.00000000000E+00 -0.16111518691E+03  0.16111518691E+03  0.00000000000E+00 0.  1.
         23    2    1    2    0    0  0.35523206578E+03  0.25704607425E+03  0.12950151055E+04  0.13702473811E+04  0.90836430583E+02 0.  0.
         11    1    3    3    0    0  0.13362069839E+03  0.76256240922E+02  0.58250945443E+03  0.60248383365E+03  0.00000000000E+00 0. -1.
        -11    1    3    3    0    0  0.22161136739E+03  0.18078983332E+03  0.71250565104E+03  0.76776354742E+03  0.00000000000E+00 0.  1.
         22    1    1    2    0    0 -0.35523206578E+03 -0.25704607425E+03  0.26569930148E+03  0.51269739969E+03  0.00000000000E+00 0.  1.
<mgrwt>
<rscale>  0 0.10534000E+04</rscale>
<asrwt>0</asrwt>
<pdfrwt beam="1">  1        1 0.26489685E+00 0.10534000E+04</pdfrwt>
<pdfrwt beam="2">  1       -1 0.24786953E-01 0.10534000E+04</pdfrwt>
<totfact> 0.65496587E+01</totfact>
</mgrwt>
</event>
<event>
 6    1  0.1568961E-005  0.2855308E+04  0.7818608E-02  0.8286300E-01
          2   -1    0    0  501    0  0.00000000000E+00  0.00000000000E+00  0.80444391301E+03  0.80444391301E+03  0.00000000000E+00 0. -1.
         -2   -1    0    0    0  501 -0.00000000000E+00 -0.00000000000E+00 -0.25336698599E+04  0.25336698599E+04  0.00000000000E+00 0.  1.
         23    2    1    2    0    0  0.13676872856E+04  0.20661888009E+03 -0.12715392317E+04  0.18811522079E+04  0.93068462847E+02 0.  0.
         11    1    3    3    0    0  0.11724376927E+04  0.18428444049E+03 -0.10458221936E+04  0.15818707150E+04  0.00000000000E+00 0.  1.
        -11    1    3    3    0    0  0.19524959281E+03  0.22334439599E+02 -0.22571703812E+03  0.29928149288E+03  0.00000000000E+00 0. -1.
         22    1    1    2    0    0 -0.13676872856E+04 -0.20661888009E+03 -0.45768671516E+03  0.14569615650E+04  0.00000000000E+00 0. -1.
<mgrwt>
<rscale>  0 0.28553075E+04</rscale>
<asrwt>0</asrwt>
<pdfrwt beam="1">  1        2 0.12376060E+00 0.28553075E+04</pdfrwt>
<pdfrwt beam="2">  1       -2 0.38979536E+00 0.28553075E+04</pdfrwt>
<totfact> 0.25613946E-01</totfact>
</mgrwt>
</event>
<event>
 6    1  0.1568961E-005  0.1413464E+04  0.7818608E-02  0.8944130E-01
          1   -1    0    0  501    0  0.00000000000E+00  0.00000000000E+00  0.18167599177E+04  0.18167599177E+04  0.00000000000E+00 0. -1.
         -1   -1    0    0    0  501 -0.00000000000E+00 -0.00000000000E+00 -0.27492365955E+03  0.27492365955E+03  0.00000000000E+00 0.  1.
         23    2    1    2    0    0  0.45842961798E+03 -0.30903562776E+03  0.14184253650E+04  0.15252111751E+04  0.93155132728E+02 0.  0.
         13    1    3    3    0    0  0.29060499063E+03 -0.18094639780E+03  0.99153341756E+03  0.10489668143E+04  0.00000000000E+00 0.  1.
        -13    1    3    3    0    0  0.16782462735E+03 -0.12808922996E+03  0.42689194744E+03  0.47624436077E+03  0.00000000000E+00 0. -1.
         22    1    1    2    0    0 -0.45842961798E+03  0.30903562776E+03  0.12341089321E+03  0.56647240218E+03  0.00000000000E+00 0.  1.
<mgrwt>
<rscale>  0 0.14134642E+04</rscale>
<asrwt>0</asrwt>
<pdfrwt beam="1">  1        1 0.27950152E+00 0.14134642E+04</pdfrwt>
<pdfrwt beam="2">  1       -1 0.42295949E-01 0.14134642E+04</pdfrwt>
<totfact> 0.21251677E+01</totfact>
</mgrwt>
</event>
<event>
 6    1  0.1568961E-005  0.1692702E+04  0.7818608E-02  0.8765537E-01
         -1   -1    0    0    0  501 -0.00000000000E+00  0.00000000000E+00  0.81243029739E+03  0.81243029739E+03  0.00000000000E+00 0.  1.
          1   -1    0    0  501    0  0.00000000000E+00 -0.00000000000E+00 -0.88168829516E+03  0.88168829516E+03  0.00000000000E+00 0. -1.
         23    2    1    2    0    0 -0.61076244226E+03  0.35736839159E+03  0.42527013822E+03  0.83081041729E+03  0.92996402219E+02 0.  0.
         11    1    3    3    0    0 -0.29649716486E+03  0.21967290040E+03  0.19254163432E+03  0.41621993331E+03  0.00000000000E+00 0.  1.
        -11    1    3    3    0    0 -0.31426527740E+03  0.13769549119E+03  0.23272850391E+03  0.41459048398E+03  0.00000000000E+00 0. -1.
         22    1    1    2    0    0  0.61076244226E+03 -0.35736839159E+03 -0.49452813599E+03  0.86330817526E+03  0.00000000000E+00 0. -1.
<mgrwt>
<rscale>  0 0.16927023E+04</rscale>
<asrwt>0</asrwt>
<pdfrwt beam="1">  1        1 0.13564435E+00 0.16927023E+04</pdfrwt>
<pdfrwt beam="2">  1       -1 0.12498928E+00 0.16927023E+04</pdfrwt>
<totfact> 0.10044165E+01</totfact>
</mgrwt>
</event>
<event>
 6    1  0.1568961E-005  0.3856142E+04  0.7818608E-02  0.8034213E-01
         -1   -1    0    0    0  501 -0.00000000000E+00  0.00000000000E+00  0.11611550517E+04  0.11611550517E+04  0.00000000000E+00 0.  1.
          1   -1    0    0  501    0  0.00000000000E+00 -0.00000000000E+00 -0.32015174040E+04  0.32015174040E+04  0.00000000000E+00 0. -1.
         23    2    1    2    0    0  0.26526418937E+03 -0.99716507754E+03  0.82040443886E+03  0.13215065748E+04  0.92805721403E+02 0.  0.
         11    1    3    3    0    0  0.13436849500E+03 -0.35984204072E+03  0.33644680509E+03  0.51062475398E+03  0.00000000000E+00 0. -1.
        -11    1    3    3    0    0  0.13089569437E+03 -0.63732303682E+03  0.48395763376E+03  0.81088182082E+03  0.00000000000E+00 0.  1.
         22    1    1    2    0    0 -0.26526418937E+03  0.99716507754E+03 -0.28607667911E+04  0.30411658809E+04  0.00000000000E+00 0. -1.
<mgrwt>
<rscale>  0 0.38561422E+04</rscale>
<asrwt>0</asrwt>
<pdfrwt beam="1">  1        1 0.49254114E+00 0.38561422E+04</pdfrwt>
<pdfrwt beam="2">  1       -1 0.17863924E+00 0.38561422E+04</pdfrwt>
<totfact> 0.71402148E-02</totfact>
</mgrwt>
</event>
<event>
 6    1  0.1568961E-005  0.3304328E+04  0.7818608E-02  0.8161795E-01
          2   -1    0    0  501    0  0.00000000000E+00  0.00000000000E+00  0.14671609623E+04  0.14671609623E+04  0.00000000000E+00 0. -1.
         -2   -1    0    0    0  501 -0.00000000000E+00 -0.00000000000E+00 -0.18604955780E+04  0.18604955780E+04  0.00000000000E+00 0.  1.
         23    2    1    2    0    0 -0.37047876709E+03  0.14761247352E+04 -0.84085945618E+03  0.17413157088E+04  0.94535823387E+02 0.  0.
         11    1    3    3    0    0 -0.25893150366E+03  0.97825469378E+03 -0.50976332121E+03  0.11330871163E+04  0.00000000000E+00 0. -1.
        -11    1    3    3    0    0 -0.11154726343E+03  0.49787004140E+03 -0.33109613498E+03  0.60822859247E+03  0.00000000000E+00 0.  1.
         22    1    1    2    0    0  0.37047876709E+03 -0.14761247352E+04  0.44752484052E+03  0.15863408315E+04  0.00000000000E+00 0. -1.
<mgrwt>
<rscale>  0 0.33043284E+04</rscale>
<asrwt>0</asrwt>
<pdfrwt beam="1">  1        2 0.22571707E+00 0.33043284E+04</pdfrwt>
<pdfrwt beam="2">  1       -2 0.28623009E+00 0.33043284E+04</pdfrwt>
<totfact> 0.42677308E-01</totfact>
</mgrwt>
</event>
<event>
 6    1  0.1568961E-005  0.4510519E+04  0.7818608E-02  0.7908798E-01
          2   -1    0    0  501    0  0.00000000000E+00  0.00000000000E+00  0.37445768352E+04  0.37445768352E+04  0.00000000000E+00 0. -1.
         -2   -1    0    0    0  501 -0.00000000000E+00 -0.00000000000E+00 -0.13582828089E+04  0.13582828089E+04  0.00000000000E+00 0.  1.
         23    2    1    2    0    0 -0.86419670427E+03 -0.13805924916E+03 -0.11566097741E+04  0.14534674153E+04  0.94472524825E+02 0.  0.
         13    1    3    3    0    0 -0.39627885365E+03 -0.73871384389E+02 -0.60891863421E+03  0.73025736174E+03  0.00000000000E+00 0.  1.
        -13    1    3    3    0    0 -0.46791785062E+03 -0.64187864775E+02 -0.54769113989E+03  0.72321005360E+03  0.00000000000E+00 0. -1.
         22    1    1    2    0    0  0.86419670427E+03  0.13805924916E+03  0.35429038005E+04  0.36493922287E+04  0.00000000000E+00 0. -1.
<mgrwt>
<rscale>  0 0.45105185E+04</rscale>
<asrwt>0</asrwt>
<pdfrwt beam="1">  1        2 0.57608874E+00 0.45105185E+04</pdfrwt>
<pdfrwt beam="2">  1       -2 0.20896659E+00 0.45105185E+04</pdfrwt>
<totfact> 0.47467485E-02</totfact>
</mgrwt>
</event>
<event>
 6    1  0.1568961E-005  0.6641984E+03  0.7818608E-02  0.9780496E-01
          2   -1    0    0  501    0  0.00000000000E+00  0.00000000000E+00  0.90528531428E+03  0.90528531428E+03  0.00000000000E+00 0. -1.
         -2   -1    0    0    0  501 -0.00000000000E+00 -0.00000000000E+00 -0.12182884655E+03  0.12182884655E+03  0.00000000000E+00 0.  1.
         23    2    1    2    0    0 -0.62648368031E+01  0.19680123624E+03  0.80107434007E+03  0.82942661901E+03  0.86362278989E+02 0.  0.
         13    1    3    3    0    0  0.52236125683E+01 -0.61332005983E+01  0.75220369674E+02  0.75650553810E+02  0.00000000000E+00 0. -1.
        -13    1    3    3    0    0 -0.11488449371E+02  0.20293443684E+03  0.72585397040E+03  0.75377606520E+03  0.00000000000E+00 0.  1.
         22    1    1    2    0    0  0.62648368031E+01 -0.19680123624E+03 -0.17617872344E+02  0.19768754182E+03  0.00000000000E+00 0.  1.
<mgrwt>
<rscale>  0 0.66419836E+03</rscale>
<asrwt>0</asrwt>
<pdfrwt beam="1">  1        2 0.13927466E+00 0.66419836E+03</pdfrwt>
<pdfrwt beam="2">  1       -2 0.18742900E-01 0.66419836E+03</pdfrwt>
<totfact> 0.69975437E+02</totfact>
</mgrwt>
</event>
<event>
 6    1  0.1568961E-005  0.1364409E+04  0.7818608E-02  0.8979992E-01
          2   -1    0    0  501    0  0.00000000000E+00  0.00000000000E+00  0.30828487755E+04  0.30828487755E+04  0.00000000000E+00 0. -1.
         -2   -1    0    0    0  501 -0.00000000000E+00 -0.00000000000E+00 -0.15096530880E+03  0.15096530880E+03  0.00000000000E+00 0.  1.
         23    2    1    2    0    0  0.52835453146E+03  0.37497186420E+03  0.19546291401E+04  0.20613003621E+04  0.92853097225E+02 0.  0.
         11    1    3    3    0    0  0.15429926695E+03  0.63809560113E+02  0.55000219307E+03  0.57478894920E+03  0.00000000000E+00 0. -1.
        -11    1    3    3    0    0  0.37405526451E+03  0.31116230409E+03  0.14046269471E+04  0.14865114129E+04  0.00000000000E+00 0.  1.
         22    1    1    2    0    0 -0.52835453146E+03 -0.37497186420E+03  0.97725432653E+03  0.11725137221E+04  0.00000000000E+00 0.  1.
<mgrwt>
<rscale>  0 0.13644093E+04</rscale>
<asrwt>0</asrwt>
<pdfrwt beam="1">  1        2 0.47428438E+00 0.13644093E+04</pdfrwt>
<pdfrwt beam="2">  1       -2 0.23225434E-01 0.13644093E+04</pdfrwt>
<totfact> 0.24952600E+01</totfact>
</mgrwt>
</event>
<event>
 6    1  0.1568961E-005  0.1913778E+04  0.7818608E-02  0.8648028E-01
          2   -1    0    0  501    0  0.00000000000E+00  0.00000000000E+00  0.16782094537E+04  0.16782094537E+04  0.00000000000E+00 0. -1.
         -2   -1    0    0    0  501 -0.00000000000E+00 -0.00000000000E+00 -0.54560354985E+03  0.54560354985E+03  0.00000000000E+00 0.  1.
         23    2    1    2    0    0 -0.19832407270E+03  0.25417284192E+03 -0.47695379150E+03  0.58228362998E+03  0.87367242915E+02 0.  0.
         13    1    3    3    0    0 -0.12517674573E+03  0.10014476532E+03 -0.27143672641E+03  0.31523973121E+03  0.00000000000E+00 0.  1.
        -13    1    3    3    0    0 -0.73147326970E+02  0.15402807660E+03 -0.20551706509E+03  0.26704389877E+03  0.00000000000E+00 0. -1.
         22    1    1    2    0    0  0.19832407270E+03 -0.25417284192E+03  0.16095596954E+04  0.16415293736E+04  0.00000000000E+00 0. -1.
<mgrwt>
<rscale>  0 0.19137785E+04</rscale>
<asrwt>0</asrwt>
<pdfrwt beam="1">  1        2 0.25818607E+00 0.19137785E+04</pdfrwt>
<pdfrwt beam="2">  1       -2 0.83939008E-01 0.19137785E+04</pdfrwt>
<totfact> 0.11697219E+01</totfact>
</mgrwt>
</event>
<event>
 6    1  0.1568961E-005  0.1448128E+04  0.7818608E-02  0.8919700E-01
         -2   -1    0    0    0  501 -0.00000000000E+00  0.00000000000E+00  0.15043177330E+03  0.15043177330E+03  0.00000000000E+00 0.  1.
          2   -1    0    0  501    0  0.00000000000E+00 -0.00000000000E+00 -0.34850907627E+04  0.34850907627E+04  0.00000000000E+00 0. -1.
         23    2    1    2    0    0 -0.51492594367E+03  0.27675165208E+03 -0.27340109765E+04  0.27973589244E+04  0.93063031983E+02 0.  0.
         13    1    3    3    0    0 -0.10329484109E+03  0.76196620932E+02 -0.45248271342E+03  0.47033642766E+03  0.00000000000E+00 0. -1.
        -13    1    3    3    0    0 -0.41163110258E+03  0.20055503115E+03 -0.22815282631E+04  0.23270224968E+04  0.00000000000E+00 0.  1.
         22    1    1    2    0    0  0.51492594367E+03 -0.27675165208E+03 -0.60064801286E+03  0.83816361156E+03  0.00000000000E+00 0.  1.
<mgrwt>
<rscale>  0 0.14481276E+04</rscale>
<asrwt>0</asrwt>
<pdfrwt beam="1">  1        2 0.53616777E+00 0.14481276E+04</pdfrwt>
<pdfrwt beam="2">  1       -2 0.23143351E-01 0.14481276E+04</pdfrwt>
<totfact> 0.13526658E+01</totfact>
</mgrwt>
</event>
<event>
 6    1  0.1568961E-005  0.8572623E+03  0.7818608E-02  0.9480641E-01
          2   -1    0    0  501    0  0.00000000000E+00  0.00000000000E+00  0.11102938177E+04  0.11102938177E+04  0.00000000000E+00 0.  1.
         -2   -1    0    0    0  501 -0.00000000000E+00 -0.00000000000E+00 -0.16547392595E+03  0.16547392595E+03  0.00000000000E+00 0. -1.
         23    2    1    2    0    0 -0.19558417607E+03 -0.17124128113E+03 -0.19709072222E+02  0.27682186492E+03  0.93086793249E+02 0.  0.
         13    1    3    3    0    0 -0.15535336487E+03 -0.13265823384E+03 -0.54095021923E+02  0.21132710754E+03  0.00000000000E+00 0. -1.
        -13    1    3    3    0    0 -0.40230811202E+02 -0.38583047283E+02  0.34385949701E+02  0.65494757382E+02  0.00000000000E+00 0.  1.
         22    1    1    2    0    0  0.19558417607E+03  0.17124128113E+03  0.96452896398E+03  0.99894587874E+03  0.00000000000E+00 0.  1.
<mgrwt>
<rscale>  0 0.85726233E+03</rscale>
<asrwt>0</asrwt>
<pdfrwt beam="1">  1        2 0.17081443E+00 0.85726233E+03</pdfrwt>
<pdfrwt beam="2">  1       -2 0.25457528E-01 0.85726233E+03</pdfrwt>
<totfact> 0.29873385E+02</totfact>
</mgrwt>
</event>
<event>
 6    1  0.1568961E-005  0.2020898E+04  0.7818608E-02  0.8596912E-01
         -2   -1    0    0    0  501 -0.00000000000E+00  0.00000000000E+00  0.71912229781E+03  0.71912229781E+03  0.00000000000E+00 0.  1.
          2   -1    0    0  501    0  0.00000000000E+00 -0.00000000000E+00 -0.14197962572E+04  0.14197962572E+04  0.00000000000E+00 0. -1.
         23    2    1    2    0    0 -0.31468197053E+03  0.83347654873E+03 -0.85114820866E+03  0.12353974432E+04  0.89697656516E+02 0.  0.
         11    1    3    3    0    0 -0.17884102132E+03  0.55990029150E+03 -0.51843111920E+03  0.78373673685E+03  0.00000000000E+00 0.  1.
        -11    1    3    3    0    0 -0.13584094922E+03  0.27357625723E+03 -0.33271708945E+03  0.45166070631E+03  0.00000000000E+00 0. -1.
         22    1    1    2    0    0  0.31468197053E+03 -0.83347654873E+03  0.15047424927E+03  0.90352111185E+03  0.00000000000E+00 0.  1.
<mgrwt>
<rscale>  0 0.20208980E+04</rscale>
<asrwt>0</asrwt>
<pdfrwt beam="1">  1        2 0.21843019E+00 0.20208980E+04</pdfrwt>
<pdfrwt beam="2">  1       -2 0.11063420E+00 0.20208980E+04</pdfrwt>
<totfact> 0.84735183E+00</totfact>
</mgrwt>
</event>
<event>
 6    1  0.1568961E-005  0.8448217E+03  0.7818608E-02  0.9497314E-01
         -2   -1    0    0    0  501 -0.00000000000E+00  0.00000000000E+00  0.10069396092E+03  0.10069396092E+03  0.00000000000E+00 0.  1.
          2   -1    0    0  501    0  0.00000000000E+00 -0.00000000000E+00 -0.17720120350E+04  0.17720120350E+04  0.00000000000E+00 0. -1.
         23    2    1    2    0    0  0.15472330911E+03 -0.33880232865E+03 -0.12637775441E+04  0.13206049147E+04  0.90207203319E+02 0.  0.
         13    1    3    3    0    0  0.14616249886E+03 -0.30783118627E+03 -0.10368220981E+04  0.10913860813E+04  0.00000000000E+00 0.  1.
        -13    1    3    3    0    0  0.85608102468E+01 -0.30971142375E+02 -0.22695544597E+03  0.22921883341E+03  0.00000000000E+00 0. -1.
         22    1    1    2    0    0 -0.15472330911E+03  0.33880232865E+03 -0.40754052995E+03  0.55210108117E+03  0.00000000000E+00 0.  1.
<mgrwt>
<rscale>  0 0.84482166E+03</rscale>
<asrwt>0</asrwt>
<pdfrwt beam="1">  1        2 0.27261720E+00 0.84482166E+03</pdfrwt>
<pdfrwt beam="2">  1       -2 0.15491380E-01 0.84482166E+03</pdfrwt>
<totfact> 0.30009322E+02</totfact>
</mgrwt>
</event>
<event>
 6    1  0.1568961E-005  0.1724503E+04  0.7818608E-02  0.8747511E-01
          2   -1    0    0  501    0  0.00000000000E+00  0.00000000000E+00  0.14723384302E+04  0.14723384302E+04  0.00000000000E+00 0. -1.
         -2   -1    0    0    0  501 -0.00000000000E+00 -0.00000000000E+00 -0.50496394090E+03  0.50496394090E+03  0.00000000000E+00 0.  1.
         23    2    1    2    0    0 -0.18407772330E+02 -0.65954607405E+03  0.11173390814E+04  0.13006715642E+04  0.89218973041E+02 0.  0.
         11    1    3    3    0    0 -0.13103573072E+02 -0.35782612973E+03  0.51886558470E+03  0.63042266594E+03  0.00000000000E+00 0.  1.
        -11    1    3    3    0    0 -0.53041992585E+01 -0.30171994432E+03  0.59847349675E+03  0.67024889828E+03  0.00000000000E+00 0. -1.
         22    1    1    2    0    0  0.18407772330E+02  0.65954607405E+03 -0.14996459217E+03  0.67663080685E+03  0.00000000000E+00 0.  1.
<mgrwt>
<rscale>  0 0.17245032E+04</rscale>
<asrwt>0</asrwt>
<pdfrwt beam="1">  1        2 0.22651360E+00 0.17245032E+04</pdfrwt>
<pdfrwt beam="2">  1       -2 0.77686761E-01 0.17245032E+04</pdfrwt>
<totfact> 0.18451929E+01</totfact>
</mgrwt>
</event>
<event>
 6    1  0.1568961E-005  0.1499376E+04  0.7818608E-02  0.8884868E-01
         -2   -1    0    0    0  501 -0.00000000000E+00  0.00000000000E+00  0.65701254583E+03  0.65701254583E+03  0.00000000000E+00 0.  1.
          2   -1    0    0  501    0  0.00000000000E+00 -0.00000000000E+00 -0.85543577265E+03  0.85543577265E+03  0.00000000000E+00 0. -1.
         23    2    1    2    0    0 -0.48052345050E+03  0.33383884775E+03  0.36881262882E+03  0.69752029793E+03  0.90336305494E+02 0.  0.
         13    1    3    3    0    0 -0.25895931145E+03  0.13746480129E+03  0.14967253082E+03  0.32917831500E+03  0.00000000000E+00 0. -1.
        -13    1    3    3    0    0 -0.22156413905E+03  0.19637404646E+03  0.21914009801E+03  0.36834198293E+03  0.00000000000E+00 0.  1.
         22    1    1    2    0    0  0.48052345050E+03 -0.33383884775E+03 -0.56723585565E+03  0.81492802055E+03  0.00000000000E+00 0. -1.
<mgrwt>
<rscale>  0 0.14993759E+04</rscale>
<asrwt>0</asrwt>
<pdfrwt beam="1">  1        2 0.13160550E+00 0.14993759E+04</pdfrwt>
<pdfrwt beam="2">  1       -2 0.10107885E+00 0.14993759E+04</pdfrwt>
<totfact> 0.24483002E+01</totfact>
</mgrwt>
</event>
<event>
 6    1  0.1568961E-005  0.1827627E+04  0.7818608E-02  0.8691744E-01
          2   -1    0    0  501    0  0.00000000000E+00  0.00000000000E+00  0.70096682478E+03  0.70096682478E+03  0.00000000000E+00 0. -1.
         -2   -1    0    0    0  501 -0.00000000000E+00 -0.00000000000E+00 -0.11912910209E+04  0.11912910209E+04  0.00000000000E+00 0.  1.
         23    2    1    2    0    0  0.12910467523E+03 -0.26047612722E+03 -0.11403033933E+04  0.11802263950E+04  0.90148126423E+02 0.  0.
         11    1    3    3    0    0  0.60183513616E+02 -0.37589144888E+02 -0.27988347701E+03  0.28873822025E+03  0.00000000000E+00 0.  1.
        -11    1    3    3    0    0  0.68921161609E+02 -0.22288698233E+03 -0.86041991627E+03  0.89148817475E+03  0.00000000000E+00 0. -1.
         22    1    1    2    0    0 -0.12910467523E+03  0.26047612722E+03  0.64997919717E+03  0.71203145068E+03  0.00000000000E+00 0. -1.
<mgrwt>
<rscale>  0 0.18276274E+04</rscale>
<asrwt>0</asrwt>
<pdfrwt beam="1">  1        2 0.10784105E+00 0.18276274E+04</pdfrwt>
<pdfrwt beam="2">  1       -2 0.18327554E+00 0.18276274E+04</pdfrwt>
<totfact> 0.66282316E+00</totfact>
</mgrwt>
</event>
<event>
 6    1  0.1568961E-005  0.4137783E+04  0.7818608E-02  0.7977314E-01
          1   -1    0    0  501    0  0.00000000000E+00  0.00000000000E+00  0.27107013830E+04  0.27107013830E+04  0.00000000000E+00 0. -1.
         -1   -1    0    0    0  501 -0.00000000000E+00 -0.00000000000E+00 -0.15790422957E+04  0.15790422957E+04  0.00000000000E+00 0.  1.
         23    2    1    2    0    0  0.26920123114E+03  0.19972997583E+04  0.10461466372E+04  0.22725704073E+04  0.92075198660E+02 0.  0.
         13    1    3    3    0    0  0.23616270994E+03  0.15596943681E+04  0.78660654905E+03  0.17627164294E+04  0.00000000000E+00 0. -1.
        -13    1    3    3    0    0  0.33038521205E+02  0.43760539018E+03  0.25954008820E+03  0.50985397789E+03  0.00000000000E+00 0.  1.
         22    1    1    2    0    0 -0.26920123114E+03 -0.19972997583E+04  0.85512450066E+02  0.20171732713E+04  0.00000000000E+00 0.  1.
<mgrwt>
<rscale>  0 0.41377830E+04</rscale>
<asrwt>0</asrwt>
<pdfrwt beam="1">  1        1 0.41703098E+00 0.41377830E+04</pdfrwt>
<pdfrwt beam="2">  1       -1 0.24292958E+00 0.41377830E+04</pdfrwt>
<totfact> 0.57884437E-02</totfact>
</mgrwt>
</event>
<event>
 6    1  0.1568961E-005  0.1571874E+04  0.7818608E-02  0.8838016E-01
         -1   -1    0    0    0  501 -0.00000000000E+00  0.00000000000E+00  0.65526022463E+03  0.65526022463E+03  0.00000000000E+00 0.  1.
          1   -1    0    0  501    0  0.00000000000E+00 -0.00000000000E+00 -0.94267403726E+03  0.94267403726E+03  0.00000000000E+00 0. -1.
         23    2    1    2    0    0 -0.73167233536E+03  0.17550906599E+03 -0.36560687915E+03  0.84145425936E+03  0.90714066969E+02 0.  0.
         11    1    3    3    0    0 -0.44069061729E+03  0.83900928109E+02 -0.17375712479E+03  0.48108120346E+03  0.00000000000E+00 0. -1.
        -11    1    3    3    0    0 -0.29098171807E+03  0.91608137876E+02 -0.19184975436E+03  0.36037305591E+03  0.00000000000E+00 0.  1.
         22    1    1    2    0    0  0.73167233536E+03 -0.17550906599E+03  0.78193066527E+02  0.75648000253E+03  0.00000000000E+00 0.  1.
<mgrwt>
<rscale>  0 0.15718738E+04</rscale>
<asrwt>0</asrwt>
<pdfrwt beam="1">  1        1 0.14502677E+00 0.15718738E+04</pdfrwt>
<pdfrwt beam="2">  1       -1 0.10080927E+00 0.15718738E+04</pdfrwt>
<totfact> 0.15121856E+01</totfact>
</mgrwt>
</event>
<event>
 6    1  0.1568961E-005  0.2297814E+04  0.7818608E-02  0.8478783E-01
         -1   -1    0    0    0  501 -0.00000000000E+00  0.00000000000E+00  0.77575075904E+03  0.77575075904E+03  0.00000000000E+00 0.  1.
          1   -1    0    0  501    0  0.00000000000E+00 -0.00000000000E+00 -0.17015613386E+04  0.17015613386E+04  0.00000000000E+00 0. -1.
         23    2    1    2    0    0  0.25345267476E+03  0.73639369765E+03 -0.13716325741E+04  0.15799430615E+04  0.91270054482E+02 0.  0.
         11    1    3    3    0    0  0.41470275973E+02  0.13985556735E+03 -0.19158427779E+03  0.24079846138E+03  0.00000000000E+00 0. -1.
        -11    1    3    3    0    0  0.21198239879E+03  0.59653813030E+03 -0.11800482963E+04  0.13391446001E+04  0.00000000000E+00 0.  1.
         22    1    1    2    0    0 -0.25345267476E+03 -0.73639369765E+03  0.44582199454E+03  0.89736903618E+03  0.00000000000E+00 0.  1.
<mgrwt>
<rscale>  0 0.22978142E+04</rscale>
<asrwt>0</asrwt>
<pdfrwt beam="1">  1        1 0.26177867E+00 0.22978142E+04</pdfrwt>
<pdfrwt beam="2">  1       -1 0.11934627E+00 0.22978142E+04</pdfrwt>
<totfact> 0.26966046E+00</totfact>
</mgrwt>
</event>
<event>
 6    1  0.1568961E-005  0.2057653E+04  0.7818608E-02  0.8580130E-01
          1   -1    0    0  501    0  0.00000000000E+00  0.00000000000E+00  0.25068099448E+04  0.25068099448E+04  0.00000000000E+00 0.  1.
         -1   -1    0    0    0  501 -0.00000000000E+00 -0.00000000000E+00 -0.42224356279E+03  0.42224356279E+03  0.00000000000E+00 0. -1.
         23    2    1    2    0    0 -0.26097192032E+03 -0.98712854218E+03  0.89192064801E+03  0.13590430144E+04  0.94585255673E+02 0.  0.
         13    1    3    3    0    0 -0.91632367662E+02 -0.24298656735E+03  0.26932944597E+03  0.37413542092E+03  0.00000000000E+00 0. -1.
        -13    1    3    3    0    0 -0.16933955266E+03 -0.74414197483E+03  0.62259120204E+03  0.98490759346E+03  0.00000000000E+00 0.  1.
         22    1    1    2    0    0  0.26097192032E+03  0.98712854218E+03  0.11926457340E+04  0.15700104932E+04  0.00000000000E+00 0.  1.
<mgrwt>
<rscale>  0 0.20576534E+04</rscale>
<asrwt>0</asrwt>
<pdfrwt beam="1">  1        1 0.38566306E+00 0.20576534E+04</pdfrwt>
<pdfrwt beam="2">  1       -1 0.64960550E-01 0.20576534E+04</pdfrwt>
<totfact> 0.29729849E+00</totfact>
</mgrwt>
</event>
<event>
 6    1  0.1945189E-005  0.4071478E+04  0.7818608E-02  0.7990280E-01
         -1   -1    0    0    0  501 -0.00000000000E+00  0.00000000000E+00  0.16935196630E+04  0.16935196630E+04  0.00000000000E+00 0.  1.
          1   -1    0    0  501    0  0.00000000000E+00 -0.00000000000E+00 -0.24471125664E+04  0.24471125664E+04  0.00000000000E+00 0. -1.
         23    2    1    2    0    0 -0.13412618022E+04  0.15287174619E+04 -0.44210428439E+03  0.20832101871E+04  0.91368401947E+02 0.  0.
         13    1    3    3    0    0 -0.61640612081E+03  0.65811042469E+03 -0.16050468847E+03  0.91587531459E+03  0.00000000000E+00 0.  1.
        -13    1    3    3    0    0 -0.72485568143E+03  0.87060703720E+03 -0.28159959591E+03  0.11673348725E+04  0.00000000000E+00 0. -1.
         22    1    1    2    0    0  0.13412618022E+04 -0.15287174619E+04 -0.31148861907E+03  0.20574220423E+04  0.00000000000E+00 0. -1.
<mgrwt>
<rscale>  0 0.40714780E+04</rscale>
<asrwt>0</asrwt>
<pdfrwt beam="1">  1        1 0.37647886E+00 0.40714780E+04</pdfrwt>
<pdfrwt beam="2">  1       -1 0.26054149E+00 0.40714780E+04</pdfrwt>
<totfact> 0.68265245E-02</totfact>
</mgrwt>
</event>
<event>
 6    1  0.1568961E-005  0.2266093E+04  0.7818608E-02  0.8491411E-01
         -2   -1    0    0    0  501 -0.00000000000E+00  0.00000000000E+00  0.48958929739E+03  0.48958929739E+03  0.00000000000E+00 0.  1.
          2   -1    0    0  501    0  0.00000000000E+00 -0.00000000000E+00 -0.26221865159E+04  0.26221865159E+04  0.00000000000E+00 0. -1.
         23    2    1    2    0    0  0.68576583539E+03  0.45838398311E+03 -0.51752852519E+01  0.83004078506E+03  0.92467639293E+02 0.  0.
         13    1    3    3    0    0  0.57618490301E+03  0.35300261463E+03  0.19594890003E+02  0.67600580479E+03  0.00000000000E+00 0.  1.
        -13    1    3    3    0    0  0.10958093239E+03  0.10538136848E+03 -0.24770175255E+02  0.15403498027E+03  0.00000000000E+00 0. -1.
         22    1    1    2    0    0 -0.68576583539E+03 -0.45838398311E+03 -0.21274219332E+04  0.22817350282E+04  0.00000000000E+00 0. -1.
<mgrwt>
<rscale>  0 0.22660931E+04</rscale>
<asrwt>0</asrwt>
<pdfrwt beam="1">  1        2 0.40341331E+00 0.22660931E+04</pdfrwt>
<pdfrwt beam="2">  1       -2 0.75321431E-01 0.22660931E+04</pdfrwt>
<totfact> 0.42471013E+00</totfact>
</mgrwt>
</event>
<event>
 6    1  0.1568961E-005  0.3129661E+04  0.7818608E-02  0.8207645E-01
          2   -1    0    0  501    0  0.00000000000E+00  0.00000000000E+00  0.25579590751E+04  0.25579590751E+04  0.00000000000E+00 0. -1.
         -2   -1    0    0    0  501 -0.00000000000E+00 -0.00000000000E+00 -0.95728449623E+03  0.95728449623E+03  0.00000000000E+00 0.  1.
         23    2    1    2    0    0  0.48149650322E+03 -0.20938488367E+03  0.24551863478E+04  0.25123122300E+04  0.89954579747E+02 0.  0.
         11    1    3    3    0    0  0.12048823705E+03 -0.65651314142E+02  0.83381778745E+03  0.84503231476E+03  0.00000000000E+00 0. -1.
        -11    1    3    3    0    0  0.36100826617E+03 -0.14373356953E+03  0.16213685604E+04  0.16672799152E+04  0.00000000000E+00 0.  1.
         22    1    1    2    0    0 -0.48149650322E+03  0.20938488367E+03 -0.85451176895E+03  0.10029313413E+04  0.00000000000E+00 0.  1.
<mgrwt>
<rscale>  0 0.31296610E+04</rscale>
<asrwt>0</asrwt>
<pdfrwt beam="1">  1        2 0.39353216E+00 0.31296610E+04</pdfrwt>
<pdfrwt beam="2">  1       -2 0.14727454E+00 0.31296610E+04</pdfrwt>
<totfact> 0.85775938E-01</totfact>
</mgrwt>
</event>
<event>
 6    1  0.1568961E-005  0.6743225E+04  0.7818608E-02  0.7604512E-01
         -2   -1    0    0    0  501 -0.00000000000E+00  0.00000000000E+00  0.24480839303E+04  0.24480839303E+04  0.00000000000E+00 0.  1.
          2   -1    0    0  501    0  0.00000000000E+00 -0.00000000000E+00 -0.46435386661E+04  0.46435386661E+04  0.00000000000E+00 0. -1.
         23    2    1    2    0    0  0.12739355158E+04 -0.22057559655E+04  0.12241967830E+04  0.28275532268E+04  0.90157690374E+02 0.  0.
         13    1    3    3    0    0  0.77024349211E+03 -0.13347562625E+04  0.78936633455E+03  0.17314584972E+04  0.00000000000E+00 0.  1.
        -13    1    3    3    0    0  0.50369202372E+03 -0.87099970296E+03  0.43483044847E+03  0.10960947296E+04  0.00000000000E+00 0. -1.
         22    1    1    2    0    0 -0.12739355158E+04  0.22057559655E+04 -0.34196515188E+04  0.42640693695E+04  0.00000000000E+00 0. -1.
<mgrwt>
<rscale>  0 0.67432255E+04</rscale>
<asrwt>0</asrwt>
<pdfrwt beam="1">  1        2 0.71439056E+00 0.67432255E+04</pdfrwt>
<pdfrwt beam="2">  1       -2 0.37662830E+00 0.67432255E+04</pdfrwt>
<totfact> 0.58078317E-04</totfact>
</mgrwt>
</event>
<event>
 6    1  0.1568961E-005  0.4292067E+04  0.7818608E-02  0.7948087E-01
         -2   -1    0    0    0  501 -0.00000000000E+00  0.00000000000E+00  0.15737464637E+04  0.15737464637E+04  0.00000000000E+00 0.  1.
          2   -1    0    0  501    0  0.00000000000E+00 -0.00000000000E+00 -0.29264311440E+04  0.29264311440E+04  0.00000000000E+00 0. -1.
         23    2    1    2    0    0  0.61736704985E+03 -0.11093651779E+04 -0.24895010305E+04  0.27960107772E+04  0.90706743212E+02 0.  0.
         13    1    3    3    0    0  0.12041721892E+03 -0.15297350172E+03 -0.35814410617E+03  0.40763758368E+03  0.00000000000E+00 0. -1.
        -13    1    3    3    0    0  0.49694983093E+03 -0.95639167614E+03 -0.21313569244E+04  0.23883731936E+04  0.00000000000E+00 0.  1.
         22    1    1    2    0    0 -0.61736704985E+03  0.11093651779E+04  0.11368163502E+04  0.17041668305E+04  0.00000000000E+00 0.  1.
<mgrwt>
<rscale>  0 0.42920674E+04</rscale>
<asrwt>0</asrwt>
<pdfrwt beam="1">  1        2 0.45022017E+00 0.42920674E+04</pdfrwt>
<pdfrwt beam="2">  1       -2 0.24211484E+00 0.42920674E+04</pdfrwt>
<totfact> 0.10711729E-01</totfact>
</mgrwt>
</event>
<event>
 6    1  0.1568961E-005  0.1743987E+04  0.7818608E-02  0.8736667E-01
         -2   -1    0    0    0  501 -0.00000000000E+00  0.00000000000E+00  0.29688690897E+03  0.29688690897E+03  0.00000000000E+00 0. -1.
          2   -1    0    0  501    0  0.00000000000E+00 -0.00000000000E+00 -0.25611532115E+04  0.25611532115E+04  0.00000000000E+00 0.  1.
         23    2    1    2    0    0 -0.82128530447E+02 -0.24343210289E+03 -0.24967443810E+04  0.25115573053E+04  0.90461647073E+02 0.  0.
         11    1    3    3    0    0 -0.56916240584E+02 -0.14373130517E+03 -0.18753228368E+04  0.18816837909E+04  0.00000000000E+00 0. -1.
        -11    1    3    3    0    0 -0.25212289863E+02 -0.99700797721E+02 -0.62142154420E+03  0.62987351446E+03  0.00000000000E+00 0.  1.
         22    1    1    2    0    0  0.82128530447E+02  0.24343210289E+03  0.23247807847E+03  0.34648281516E+03  0.00000000000E+00 0. -1.
<mgrwt>
<rscale>  0 0.17439872E+04</rscale>
<asrwt>0</asrwt>
<pdfrwt beam="1">  1        2 0.39402359E+00 0.17439872E+04</pdfrwt>
<pdfrwt beam="2">  1       -2 0.45674907E-01 0.17439872E+04</pdfrwt>
<totfact> 0.13846829E+01</totfact>
</mgrwt>
</event>
<event>
 6    1  0.1568961E-005  0.2071485E+04  0.7818608E-02  0.8573910E-01
          2   -1    0    0  501    0  0.00000000000E+00  0.00000000000E+00  0.34977572295E+04  0.34977572295E+04  0.00000000000E+00 0. -1.
         -2   -1    0    0    0  501 -0.00000000000E+00 -0.00000000000E+00 -0.30670011299E+03  0.30670011299E+03  0.00000000000E+00 0.  1.
         23    2    1    2    0    0  0.42343536236E+03 -0.87010381104E+03  0.93105430169E+03  0.13460043999E+04  0.92128082941E+02 0.  0.
         13    1    3    3    0    0  0.15706555801E+03 -0.29771658771E+03  0.38383289662E+03  0.51052174159E+03  0.00000000000E+00 0.  1.
        -13    1    3    3    0    0  0.26636980435E+03 -0.57238722333E+03  0.54722140507E+03  0.83548265827E+03  0.00000000000E+00 0. -1.
         22    1    1    2    0    0 -0.42343536236E+03  0.87010381104E+03  0.22600028148E+04  0.24584529426E+04  0.00000000000E+00 0. -1.
<mgrwt>
<rscale>  0 0.20714850E+04</rscale>
<asrwt>0</asrwt>
<pdfrwt beam="1">  1        2 0.53811647E+00 0.20714850E+04</pdfrwt>
<pdfrwt beam="2">  1       -2 0.47184635E-01 0.20714850E+04</pdfrwt>
<totfact> 0.32240024E+00</totfact>
</mgrwt>
</event>
<event>
 6    1  0.1568961E-005  0.2932131E+04  0.7818608E-02  0.8263381E-01
         -2   -1    0    0    0  501 -0.00000000000E+00  0.00000000000E+00  0.87872001279E+03  0.87872001279E+03  0.00000000000E+00 0.  1.
          2   -1    0    0  501    0  0.00000000000E+00 -0.00000000000E+00 -0.24459995296E+04  0.24459995296E+04  0.00000000000E+00 0. -1.
         23    2    1    2    0    0  0.14270059206E+04  0.13090245347E+03 -0.11277943511E+04  0.18258437768E+04  0.91126555792E+02 0.  0.
         13    1    3    3    0    0  0.79913100289E+03  0.11868900465E+03 -0.63573310364E+03  0.10280340552E+04  0.00000000000E+00 0.  1.
        -13    1    3    3    0    0  0.62787491773E+03  0.12213448824E+02 -0.49206124747E+03  0.79780972162E+03  0.00000000000E+00 0. -1.
         22    1    1    2    0    0 -0.14270059206E+04 -0.13090245347E+03 -0.43948516574E+03  0.14988757656E+04  0.00000000000E+00 0.  1.
<mgrwt>
<rscale>  0 0.29321315E+04</rscale>
<asrwt>0</asrwt>
<pdfrwt beam="1">  1        2 0.37630762E+00 0.29321315E+04</pdfrwt>
<pdfrwt beam="2">  1       -2 0.13518770E+00 0.29321315E+04</pdfrwt>
<totfact> 0.12655632E+00</totfact>
</mgrwt>
</event>
<event>
 6    1  0.1568961E-005  0.2131845E+04  0.7818608E-02  0.8547344E-01
         -2   -1    0    0    0  501 -0.00000000000E+00  0.00000000000E+00  0.30545459946E+03  0.30545459946E+03  0.00000000000E+00 0. -1.
          2   -1    0    0  501    0  0.00000000000E+00 -0.00000000000E+00 -0.37196722846E+04  0.37196722846E+04  0.00000000000E+00 0.  1.
         23    2    1    2    0    0 -0.43664808617E+03  0.58313444381E+03 -0.24593402926E+03  0.77416877070E+03  0.90257454348E+02 0.  0.
         13    1    3    3    0    0 -0.25099120920E+03  0.29191718950E+03 -0.16843171199E+03  0.42021598521E+03  0.00000000000E+00 0. -1.
        -13    1    3    3    0    0 -0.18565687697E+03  0.29121725431E+03 -0.77502317266E+02  0.35395278549E+03  0.00000000000E+00 0.  1.
         22    1    1    2    0    0  0.43664808617E+03 -0.58313444381E+03 -0.31682836558E+04  0.32509581133E+04  0.00000000000E+00 0.  1.
<mgrwt>
<rscale>  0 0.21318452E+04</rscale>
<asrwt>0</asrwt>
<pdfrwt beam="1">  1        2 0.57225728E+00 0.21318452E+04</pdfrwt>
<pdfrwt beam="2">  1       -2 0.46993015E-01 0.21318452E+04</pdfrwt>
<totfact> 0.22397937E+00</totfact>
</mgrwt>
</event>
<event>
 6    1  0.1568961E-005  0.3604767E+04  0.7818608E-02  0.8089401E-01
         -1   -1    0    0    0  501 -0.00000000000E+00  0.00000000000E+00  0.15392872856E+04  0.15392872856E+04  0.00000000000E+00 0.  1.
          1   -1    0    0  501    0  0.00000000000E+00 -0.00000000000E+00 -0.21104481725E+04  0.21104481725E+04  0.00000000000E+00 0. -1.
         23    2    1    2    0    0 -0.16993590379E+04 -0.27317946859E+03 -0.82330548839E+03  0.19101880854E+04  0.92403640340E+02 0.  0.
         11    1    3    3    0    0 -0.37118485593E+03 -0.95448918776E+02 -0.16649434784E+03  0.41786249082E+03  0.00000000000E+00 0. -1.
        -11    1    3    3    0    0 -0.13281741820E+04 -0.17773054982E+03 -0.65681114055E+03  0.14923255946E+04  0.00000000000E+00 0.  1.
         22    1    1    2    0    0  0.16993590379E+04  0.27317946859E+03  0.25214460156E+03  0.17395473727E+04  0.00000000000E+00 0.  1.
<mgrwt>
<rscale>  0 0.36047669E+04</rscale>
<asrwt>0</asrwt>
<pdfrwt beam="1">  1        1 0.32468433E+00 0.36047669E+04</pdfrwt>
<pdfrwt beam="2">  1       -1 0.23681343E+00 0.36047669E+04</pdfrwt>
<totfact> 0.17253251E-01</totfact>
</mgrwt>
</event>
<event>
 6    1  0.1568961E-005  0.3407938E+04  0.7818608E-02  0.8135961E-01
         -2   -1    0    0    0  501 -0.00000000000E+00  0.00000000000E+00  0.19573680021E+04  0.19573680021E+04  0.00000000000E+00 0. -1.
          2   -1    0    0  501    0  0.00000000000E+00 -0.00000000000E+00 -0.14833745747E+04  0.14833745747E+04  0.00000000000E+00 0.  1.
         23    2    1    2    0    0 -0.73578904804E+03  0.11007677999E+04  0.13181430184E+04  0.18704993458E+04  0.90506980199E+02 0.  0.
         13    1    3    3    0    0 -0.59104390938E+03  0.81491111456E+03  0.10051669375E+04  0.14225939687E+04  0.00000000000E+00 0. -1.
        -13    1    3    3    0    0 -0.14474513865E+03  0.28585668530E+03  0.31297608083E+03  0.44790537714E+03  0.00000000000E+00 0.  1.
         22    1    1    2    0    0  0.73578904804E+03 -0.11007677999E+04 -0.84414959104E+03  0.15702432310E+04  0.00000000000E+00 0.  1.
<mgrwt>
<rscale>  0 0.34079378E+04</rscale>
<asrwt>0</asrwt>
<pdfrwt beam="1">  1        2 0.22821147E+00 0.34079378E+04</pdfrwt>
<pdfrwt beam="2">  1       -2 0.30113354E+00 0.34079378E+04</pdfrwt>
<totfact> 0.33588553E-01</totfact>
</mgrwt>
</event>
<event>
 6    1  0.1568961E-005  0.3048953E+04  0.7818608E-02  0.8229889E-01
          2   -1    0    0  501    0  0.00000000000E+00  0.00000000000E+00  0.10331468793E+04  0.10331468793E+04  0.00000000000E+00 0. -1.
         -2   -1    0    0    0  501 -0.00000000000E+00 -0.00000000000E+00 -0.22494653029E+04  0.22494653029E+04  0.00000000000E+00 0.  1.
         23    2    1    2    0    0 -0.14491097220E+04  0.20424180211E+03 -0.15258740846E+03  0.14734252454E+04  0.77880269273E+02 0.  0.
         13    1    3    3    0    0 -0.60530510344E+03  0.11533487815E+03 -0.39695014406E+02  0.61747234475E+03  0.00000000000E+00 0. -1.
        -13    1    3    3    0    0 -0.84380461857E+03  0.88906923953E+02 -0.11289239406E+03  0.85595290062E+03  0.00000000000E+00 0.  1.
         22    1    1    2    0    0  0.14491097220E+04 -0.20424180211E+03 -0.10637310151E+04  0.18091869369E+04  0.00000000000E+00 0.  1.
<mgrwt>
<rscale>  0 0.30489526E+04</rscale>
<asrwt>0</asrwt>
<pdfrwt beam="1">  1        2 0.15894567E+00 0.30489526E+04</pdfrwt>
<pdfrwt beam="2">  1       -2 0.34607159E+00 0.30489526E+04</pdfrwt>
<totfact> 0.33677820E-01</totfact>
</mgrwt>
</event>
<event>
 6    1  0.1568961E-005  0.3166592E+04  0.7818608E-02  0.8197696E-01
          1   -1    0    0  501    0  0.00000000000E+00  0.00000000000E+00  0.17100206621E+04  0.17100206621E+04  0.00000000000E+00 0. -1.
         -1   -1    0    0    0  501 -0.00000000000E+00 -0.00000000000E+00 -0.14659626983E+04  0.14659626983E+04  0.00000000000E+00 0.  1.
         23    2    1    2    0    0  0.15657601984E+04  0.19557902832E+03  0.23154101061E+03  0.15980059115E+04  0.10077449228E+03 0.  0.
         13    1    3    3    0    0  0.10871432115E+03  0.15444798638E+02  0.42512269163E+02  0.11774819939E+03  0.00000000000E+00 0.  1.
        -13    1    3    3    0    0  0.14570458772E+04  0.18013422968E+03  0.18902874145E+03  0.14802577121E+04  0.00000000000E+00 0. -1.
         22    1    1    2    0    0 -0.15657601984E+04 -0.19557902832E+03  0.12516953198E+02  0.15779774489E+04  0.00000000000E+00 0.  1.
<mgrwt>
<rscale>  0 0.31665922E+04</rscale>
<asrwt>0</asrwt>
<pdfrwt beam="1">  1        1 0.26308010E+00 0.31665922E+04</pdfrwt>
<pdfrwt beam="2">  1       -1 0.22553272E+00 0.31665922E+04</pdfrwt>
<totfact> 0.39787453E-01</totfact>
</mgrwt>
</event>
<event>
 6    1  0.1568961E-005  0.2692811E+04  0.7818608E-02  0.8337341E-01
         -1   -1    0    0    0  501 -0.00000000000E+00  0.00000000000E+00  0.10215655992E+04  0.10215655992E+04  0.00000000000E+00 0.  1.
          1   -1    0    0  501    0  0.00000000000E+00 -0.00000000000E+00 -0.17745383195E+04  0.17745383195E+04  0.00000000000E+00 0. -1.
         23    2    1    2    0    0 -0.26202313658E+02 -0.69748329624E+03  0.81580018633E+03  0.10790663704E+04  0.10809615174E+03 0.  0.
         13    1    3    3    0    0 -0.32691108639E+02 -0.36220302077E+03  0.50128524049E+03  0.61931141535E+03  0.00000000000E+00 0. -1.
        -13    1    3    3    0    0  0.64887949803E+01 -0.33528027546E+03  0.31451494583E+03  0.45975495509E+03  0.00000000000E+00 0.  1.
         22    1    1    2    0    0  0.26202313658E+02  0.69748329624E+03 -0.15687729066E+04  0.17170375483E+04  0.00000000000E+00 0. -1.
<mgrwt>
<rscale>  0 0.26928107E+04</rscale>
<asrwt>0</asrwt>
<pdfrwt beam="1">  1        1 0.27300589E+00 0.26928107E+04</pdfrwt>
<pdfrwt beam="2">  1       -1 0.15716394E+00 0.26928107E+04</pdfrwt>
<totfact> 0.11377475E+00</totfact>
</mgrwt>
</event>
<event>
 6    1  0.1568961E-005  0.1757737E+04  0.7818608E-02  0.8729103E-01
          2   -1    0    0  501    0  0.00000000000E+00  0.00000000000E+00  0.16997472921E+04  0.16997472921E+04  0.00000000000E+00 0. -1.
         -2   -1    0    0    0  501 -0.00000000000E+00 -0.00000000000E+00 -0.45442641850E+03  0.45442641850E+03  0.00000000000E+00 0.  1.
         23    2    1    2    0    0 -0.67275014875E+03 -0.62520235160E+02 -0.59715411754E+02  0.68460872444E+03  0.92852747588E+02 0.  0.
         11    1    3    3    0    0 -0.43569464009E+03 -0.16595478643E+01 -0.15997717358E+02  0.43599139953E+03  0.00000000000E+00 0.  1.
        -11    1    3    3    0    0 -0.23705550866E+03 -0.60860687296E+02 -0.43717694396E+02  0.24861732492E+03  0.00000000000E+00 0. -1.
         22    1    1    2    0    0  0.67275014875E+03  0.62520235160E+02  0.13050362854E+04  0.14695649862E+04  0.00000000000E+00 0.  1.
<mgrwt>
<rscale>  0 0.17577373E+04</rscale>
<asrwt>0</asrwt>
<pdfrwt beam="1">  1        2 0.26149958E+00 0.17577373E+04</pdfrwt>
<pdfrwt beam="2">  1       -2 0.69911758E-01 0.17577373E+04</pdfrwt>
<totfact> 0.17319942E+01</totfact>
</mgrwt>
</event>
<event>
 6    1  0.1568961E-005  0.2858864E+04  0.7818608E-02  0.8285223E-01
         -3   -1    0    0    0  501 -0.00000000000E+00  0.00000000000E+00  0.99254794662E+03  0.99254794662E+03  0.00000000000E+00 0.  1.
          3   -1    0    0  501    0  0.00000000000E+00 -0.00000000000E+00 -0.20586161118E+04  0.20586161118E+04  0.00000000000E+00 0. -1.
         23    2    1    2    0    0 -0.12067427984E+04 -0.30766067410E+03 -0.12792266085E+04  0.17877085611E+04  0.92724924529E+02 0.  0.
         13    1    3    3    0    0 -0.36152740847E+03 -0.66869230329E+02 -0.42760165417E+03  0.56392972584E+03  0.00000000000E+00 0. -1.
        -13    1    3    3    0    0 -0.84521538992E+03 -0.24079144377E+03 -0.85162495433E+03  0.12237788352E+04  0.00000000000E+00 0.  1.
         22    1    1    2    0    0  0.12067427984E+04  0.30766067410E+03  0.21315844329E+03  0.12634554974E+04  0.00000000000E+00 0.  1.
<mgrwt>
<rscale>  0 0.28588635E+04</rscale>
<asrwt>0</asrwt>
<pdfrwt beam="1">  1        3 0.31671017E+00 0.28588635E+04</pdfrwt>
<pdfrwt beam="2">  1       -3 0.15269969E+00 0.28588635E+04</pdfrwt>
<totfact> 0.21682970E-02</totfact>
</mgrwt>
</event>
<event>
 6    1  0.1568961E-005  0.2692095E+04  0.7818608E-02  0.8337574E-01
          1   -1    0    0  501    0  0.00000000000E+00  0.00000000000E+00  0.18127103425E+04  0.18127103425E+04  0.00000000000E+00 0. -1.
         -1   -1    0    0    0  501 -0.00000000000E+00 -0.00000000000E+00 -0.99952227222E+03  0.99952227222E+03  0.00000000000E+00 0.  1.
         23    2    1    2    0    0 -0.23496946787E+03 -0.46189038152E+03  0.17029807472E+04  0.17825315011E+04  0.93390318661E+02 0.  0.
         11    1    3    3    0    0 -0.13918176094E+03 -0.35302689059E+03  0.13001819531E+04  0.13544270594E+04  0.00000000000E+00 0. -1.
        -11    1    3    3    0    0 -0.95787706931E+02 -0.10886349093E+03  0.40279879409E+03  0.42810444167E+03  0.00000000000E+00 0.  1.
         22    1    1    2    0    0  0.23496946787E+03  0.46189038152E+03 -0.88979267696E+03  0.10297011136E+04  0.00000000000E+00 0.  1.
<mgrwt>
<rscale>  0 0.26920954E+04</rscale>
<asrwt>0</asrwt>
<pdfrwt beam="1">  1        1 0.27887851E+00 0.26920954E+04</pdfrwt>
<pdfrwt beam="2">  1       -1 0.15377266E+00 0.26920954E+04</pdfrwt>
<totfact> 0.11380543E+00</totfact>
</mgrwt>
</event>
<event>
 6    1  0.1568961E-005  0.4852573E+03  0.7818608E-02  0.1017700E+00
          2   -1    0    0  501    0  0.00000000000E+00  0.00000000000E+00  0.21452042211E+04  0.21452042211E+04  0.00000000000E+00 0. -1.
         -2   -1    0    0    0  501 -0.00000000000E+00 -0.00000000000E+00 -0.27441989778E+02  0.27441989778E+02  0.00000000000E+00 0.  1.
         23    2    1    2    0    0  0.29981311607E+01  0.12615789028E+03  0.19792196424E+04  0.19852459681E+04  0.89254460196E+02 0.  0.
         11    1    3    3    0    0 -0.42722012771E+02  0.68949403319E+02  0.10930889860E+04  0.10960943033E+04  0.00000000000E+00 0. -1.
        -11    1    3    3    0    0  0.45720143931E+02  0.57208486961E+02  0.88613065647E+03  0.88915166472E+03  0.00000000000E+00 0.  1.
         22    1    1    2    0    0 -0.29981311607E+01 -0.12615789028E+03  0.13854258890E+03  0.18740024282E+03  0.00000000000E+00 0.  1.
<mgrwt>
<rscale>  0 0.48525734E+03</rscale>
<asrwt>0</asrwt>
<pdfrwt beam="1">  1        2 0.33003129E+00 0.48525734E+03</pdfrwt>
<pdfrwt beam="2">  1       -2 0.42218463E-02 0.48525734E+03</pdfrwt>
<totfact> 0.15511068E+03</totfact>
</mgrwt>
</event>
<event>
 6    1  0.1568961E-005  0.1322910E+04  0.7818608E-02  0.9011592E-01
          2   -1    0    0  501    0  0.00000000000E+00  0.00000000000E+00  0.25802550640E+04  0.25802550640E+04  0.00000000000E+00 0. -1.
         -2   -1    0    0    0  501 -0.00000000000E+00 -0.00000000000E+00 -0.16956566523E+03  0.16956566523E+03  0.00000000000E+00 0.  1.
         23    2    1    2    0    0  0.43838266947E+03 -0.18745404000E+03  0.21545024209E+04  0.22085720344E+04  0.92689629904E+02 0.  0.
         13    1    3    3    0    0  0.35114656672E+03 -0.18831757126E+03  0.17725747785E+04  0.18168072997E+04  0.00000000000E+00 0. -1.
        -13    1    3    3    0    0  0.87236102748E+02  0.86353126089E+00  0.38192764245E+03  0.39176473473E+03  0.00000000000E+00 0.  1.
         22    1    1    2    0    0 -0.43838266947E+03  0.18745404000E+03  0.25618697782E+03  0.54124869478E+03  0.00000000000E+00 0.  1.
<mgrwt>
<rscale>  0 0.13229099E+04</rscale>
<asrwt>0</asrwt>
<pdfrwt beam="1">  1        2 0.39696229E+00 0.13229099E+04</pdfrwt>
<pdfrwt beam="2">  1       -2 0.26087027E-01 0.13229099E+04</pdfrwt>
<totfact> 0.40824820E+01</totfact>
</mgrwt>
</event>
<event>
 6    1  0.1568961E-005  0.3290681E+04  0.7818608E-02  0.8165271E-01
          2   -1    0    0  501    0  0.00000000000E+00  0.00000000000E+00  0.29162643505E+04  0.29162643505E+04  0.00000000000E+00 0. -1.
         -2   -1    0    0    0  501 -0.00000000000E+00 -0.00000000000E+00 -0.92829198270E+03  0.92829198270E+03  0.00000000000E+00 0.  1.
         23    2    1    2    0    0 -0.13906642615E+04  0.24382842118E+03  0.19789090359E+04  0.24326492785E+04  0.91116150301E+02 0.  0.
         13    1    3    3    0    0 -0.89850568933E+03  0.14252446554E+03  0.12031757722E+04  0.15083957160E+04  0.00000000000E+00 0.  1.
        -13    1    3    3    0    0 -0.49215857215E+03  0.10130395564E+03  0.77573326368E+03  0.92425356259E+03  0.00000000000E+00 0. -1.
         22    1    1    2    0    0  0.13906642615E+04 -0.24382842118E+03  0.90633319314E+01  0.14119070547E+04  0.00000000000E+00 0.  1.
<mgrwt>
<rscale>  0 0.32906807E+04</rscale>
<asrwt>0</asrwt>
<pdfrwt beam="1">  1        2 0.44865605E+00 0.32906807E+04</pdfrwt>
<pdfrwt beam="2">  1       -2 0.14281415E+00 0.32906807E+04</pdfrwt>
<totfact> 0.55918692E-01</totfact>
</mgrwt>
</event>
<event>
 6    1  0.1568961E-005  0.1230955E+04  0.7818608E-02  0.9086185E-01
          2   -1    0    0  501    0  0.00000000000E+00  0.00000000000E+00  0.15930834785E+04  0.15930834785E+04  0.00000000000E+00 0. -1.
         -2   -1    0    0    0  501 -0.00000000000E+00 -0.00000000000E+00 -0.23778578733E+03  0.23778578733E+03  0.00000000000E+00 0.  1.
         23    2    1    2    0    0  0.48321432923E+03 -0.25687333474E+03  0.27360863675E+03  0.61862704230E+03  0.91420639254E+02 0.  0.
         11    1    3    3    0    0  0.15832407752E+03 -0.56367303359E+02  0.12278537087E+03  0.20813465283E+03  0.00000000000E+00 0. -1.
        -11    1    3    3    0    0  0.32489025171E+03 -0.20050603138E+03  0.15082326588E+03  0.41049238947E+03  0.00000000000E+00 0.  1.
         22    1    1    2    0    0 -0.48321432923E+03  0.25687333474E+03  0.10816890544E+04  0.12122422235E+04  0.00000000000E+00 0. -1.
<mgrwt>
<rscale>  0 0.12309551E+04</rscale>
<asrwt>0</asrwt>
<pdfrwt beam="1">  1        2 0.24508976E+00 0.12309551E+04</pdfrwt>
<pdfrwt beam="2">  1       -2 0.36582430E-01 0.12309551E+04</pdfrwt>
<totfact> 0.77932989E+01</totfact>
</mgrwt>
</event>
<event>
 6    1  0.1568961E-005  0.1297570E+04  0.7818608E-02  0.9031495E-01
          1   -1    0    0  501    0  0.00000000000E+00  0.00000000000E+00  0.72964914830E+03  0.72964914830E+03  0.00000000000E+00 0. -1.
         -1   -1    0    0    0  501 -0.00000000000E+00 -0.00000000000E+00 -0.57688257696E+03  0.57688257696E+03  0.00000000000E+00 0.  1.
         23    2    1    2    0    0  0.23926787156E+03 -0.52964617565E+03 -0.20599906076E+03  0.62353321535E+03  0.92649187096E+02 0.  0.
         11    1    3    3    0    0  0.14942711222E+03 -0.21953975748E+03 -0.87364660072E+02  0.27956886595E+03  0.00000000000E+00 0. -1.
        -11    1    3    3    0    0  0.89840759340E+02 -0.31010641817E+03 -0.11863440069E+03  0.34396434940E+03  0.00000000000E+00 0.  1.
         22    1    1    2    0    0 -0.23926787156E+03  0.52964617565E+03  0.35876563210E+03  0.68299850990E+03  0.00000000000E+00 0. -1.
<mgrwt>
<rscale>  0 0.12975699E+04</rscale>
<asrwt>0</asrwt>
<pdfrwt beam="1">  1        1 0.11225371E+00 0.12975699E+04</pdfrwt>
<pdfrwt beam="2">  1       -1 0.88751166E-01 0.12975699E+04</pdfrwt>
<totfact> 0.31309812E+01</totfact>
</mgrwt>
</event>
<event>
 6    1  0.1568961E-005  0.2502898E+04  0.7818608E-02  0.8401954E-01
          1   -1    0    0  501    0  0.00000000000E+00  0.00000000000E+00  0.27262915202E+04  0.27262915202E+04  0.00000000000E+00 0. -1.
         -1   -1    0    0    0  501 -0.00000000000E+00 -0.00000000000E+00 -0.57445249567E+03  0.57445249567E+03  0.00000000000E+00 0.  1.
         23    2    1    2    0    0  0.10977473235E+04  0.50057744152E+03  0.64528552893E+03  0.13706325175E+04  0.81321110297E+02 0.  0.
         11    1    3    3    0    0  0.75733713699E+03  0.35507444375E+03  0.40545401160E+03  0.92953233144E+03  0.00000000000E+00 0. -1.
        -11    1    3    3    0    0  0.34041018648E+03  0.14550299777E+03  0.23983151733E+03  0.44110018604E+03  0.00000000000E+00 0.  1.
         22    1    1    2    0    0 -0.10977473235E+04 -0.50057744152E+03  0.15065534956E+04  0.19301114984E+04  0.00000000000E+00 0. -1.
<mgrwt>
<rscale>  0 0.25028983E+04</rscale>
<asrwt>0</asrwt>
<pdfrwt beam="1">  1        1 0.41942946E+00 0.25028983E+04</pdfrwt>
<pdfrwt beam="2">  1       -1 0.88377308E-01 0.25028983E+04</pdfrwt>
<totfact> 0.10497763E+00</totfact>
</mgrwt>
</event>
<event>
 6    1  0.1568961E-005  0.4861655E+03  0.7818608E-02  0.1017454E+00
         -2   -1    0    0    0  501 -0.00000000000E+00  0.00000000000E+00  0.21804128564E+03  0.21804128564E+03  0.00000000000E+00 0.  1.
          2   -1    0    0  501    0  0.00000000000E+00 -0.00000000000E+00 -0.27100013077E+03  0.27100013077E+03  0.00000000000E+00 0. -1.
         23    2    1    2    0    0 -0.31015227327E+02  0.13216638190E+03  0.16461655260E+03  0.23258683850E+03  0.92564200560E+02 0.  0.
         13    1    3    3    0    0  0.27991817244E+02  0.14986324985E+02  0.21012732516E+02  0.38074488794E+02  0.00000000000E+00 0. -1.
        -13    1    3    3    0    0 -0.59007044570E+02  0.11718005691E+03  0.14360382008E+03  0.19451234971E+03  0.00000000000E+00 0.  1.
         22    1    1    2    0    0  0.31015227327E+02 -0.13216638190E+03 -0.21757539773E+03  0.25645457791E+03  0.00000000000E+00 0. -1.
<mgrwt>
<rscale>  0 0.48616547E+03</rscale>
<asrwt>0</asrwt>
<pdfrwt beam="1">  1        2 0.41692328E-01 0.48616547E+03</pdfrwt>
<pdfrwt beam="2">  1       -2 0.33544813E-01 0.48616547E+03</pdfrwt>
<totfact> 0.10225132E+03</totfact>
</mgrwt>
</event>
<event>
 6    1  0.1568961E-005  0.2390093E+04  0.7818608E-02  0.8443222E-01
          2   -1    0    0  501    0  0.00000000000E+00  0.00000000000E+00  0.29725086100E+04  0.29725086100E+04  0.00000000000E+00 0. -1.
         -2   -1    0    0    0  501 -0.00000000000E+00 -0.00000000000E+00 -0.48044820039E+03  0.48044820039E+03  0.00000000000E+00 0.  1.
         23    2    1    2    0    0  0.67284150355E+03  0.24156014826E+03  0.26282286026E+04  0.27252145684E+04  0.90232267608E+02 0.  0.
         13    1    3    3    0    0  0.34604676648E+03  0.14592965385E+03  0.12257205746E+04  0.12819651927E+04  0.00000000000E+00 0.  1.
        -13    1    3    3    0    0  0.32679473708E+03  0.95630494408E+02  0.14025080280E+04  0.14432493756E+04  0.00000000000E+00 0. -1.
         22    1    1    2    0    0 -0.67284150355E+03 -0.24156014826E+03 -0.13616819292E+03  0.72774224207E+03  0.00000000000E+00 0.  1.
<mgrwt>
<rscale>  0 0.23900932E+04</rscale>
<asrwt>0</asrwt>
<pdfrwt beam="1">  1        2 0.45730901E+00 0.23900932E+04</pdfrwt>
<pdfrwt beam="2">  1       -2 0.73915109E-01 0.23900932E+04</pdfrwt>
<totfact> 0.26898575E+00</totfact>
</mgrwt>
</event>
<event>
 6    1  0.1568961E-005  0.4321177E+04  0.7818608E-02  0.7942714E-01
         -2   -1    0    0    0  501 -0.00000000000E+00  0.00000000000E+00  0.11173565374E+04  0.11173565374E+04  0.00000000000E+00 0.  1.
          2   -1    0    0  501    0  0.00000000000E+00 -0.00000000000E+00 -0.41778447411E+04  0.41778447411E+04  0.00000000000E+00 0. -1.
         23    2    1    2    0    0  0.90710429937E+03  0.19100677825E+04 -0.99292954814E+03  0.23378382745E+04  0.91550894581E+02 0.  0.
         11    1    3    3    0    0  0.75768604593E+03  0.15607362061E+04 -0.77887333289E+03  0.19017437572E+04  0.00000000000E+00 0.  1.
        -11    1    3    3    0    0  0.14941825344E+03  0.34933157644E+03 -0.21405621526E+03  0.43609451734E+03  0.00000000000E+00 0. -1.
         22    1    1    2    0    0 -0.90710429937E+03 -0.19100677825E+04 -0.20675586555E+04  0.29573630041E+04  0.00000000000E+00 0.  1.
<mgrwt>
<rscale>  0 0.43211768E+04</rscale>
<asrwt>0</asrwt>
<pdfrwt beam="1">  1        2 0.64274534E+00 0.43211768E+04</pdfrwt>
<pdfrwt beam="2">  1       -2 0.17190101E+00 0.43211768E+04</pdfrwt>
<totfact> 0.38397542E-02</totfact>
</mgrwt>
</event>
<event>
 6    1  0.1568961E-005  0.2850880E+04  0.7818608E-02  0.8287644E-01
         -1   -1    0    0    0  501 -0.00000000000E+00  0.00000000000E+00  0.22876735355E+04  0.22876735355E+04  0.00000000000E+00 0. -1.
          1   -1    0    0  501    0  0.00000000000E+00 -0.00000000000E+00 -0.88818557495E+03  0.88818557495E+03  0.00000000000E+00 0.  1.
         23    2    1    2    0    0 -0.12797778493E+04  0.27010470392E+03  0.13276111147E+04  0.18659147697E+04  0.91097537056E+02 0.  0.
         13    1    3    3    0    0 -0.93467910432E+03  0.19389340154E+03  0.91001936701E+03  0.13188460591E+04  0.00000000000E+00 0.  1.
        -13    1    3    3    0    0 -0.34509874500E+03  0.76211302375E+02  0.41759174774E+03  0.54706871066E+03  0.00000000000E+00 0. -1.
         22    1    1    2    0    0  0.12797778493E+04 -0.27010470392E+03  0.71876845762E+02  0.13099443407E+04  0.00000000000E+00 0.  1.
<mgrwt>
<rscale>  0 0.28508796E+04</rscale>
<asrwt>0</asrwt>
<pdfrwt beam="1">  1        1 0.13664394E+00 0.28508796E+04</pdfrwt>
<pdfrwt beam="2">  1       -1 0.35194977E+00 0.28508796E+04</pdfrwt>
<totfact> 0.24187460E-01</totfact>
</mgrwt>
</event>
<event>
 6    1  0.1568961E-005  0.3194477E+04  0.7818608E-02  0.8190277E-01
         -2   -1    0    0    0  501 -0.00000000000E+00  0.00000000000E+00  0.87249680298E+03  0.87249680298E+03  0.00000000000E+00 0.  1.
          2   -1    0    0  501    0  0.00000000000E+00 -0.00000000000E+00 -0.29239890972E+04  0.29239890972E+04  0.00000000000E+00 0. -1.
         23    2    1    2    0    0  0.99217935198E+03  0.32499875632E+03 -0.24610882160E+04  0.26749633292E+04  0.91812567476E+02 0.  0.
         13    1    3    3    0    0  0.86926091981E+03  0.28728222571E+03 -0.22280790634E+04  0.24088341447E+04  0.00000000000E+00 0. -1.
        -13    1    3    3    0    0  0.12291843217E+03  0.37716530603E+02 -0.23300915259E+03  0.26612918450E+03  0.00000000000E+00 0.  1.
         22    1    1    2    0    0 -0.99217935198E+03 -0.32499875632E+03  0.40959592178E+03  0.11215225710E+04  0.00000000000E+00 0.  1.
<mgrwt>
<rscale>  0 0.31944772E+04</rscale>
<asrwt>0</asrwt>
<pdfrwt beam="1">  1        2 0.44984448E+00 0.31944772E+04</pdfrwt>
<pdfrwt beam="2">  1       -2 0.13423028E+00 0.31944772E+04</pdfrwt>
<totfact> 0.65443395E-01</totfact>
</mgrwt>
</event>
<event>
 6    1  0.1568961E-005  0.3709711E+04  0.7818608E-02  0.8065813E-01
         -2   -1    0    0    0  501 -0.00000000000E+00  0.00000000000E+00  0.12079380833E+04  0.12079380833E+04  0.00000000000E+00 0.  1.
          2   -1    0    0  501    0  0.00000000000E+00 -0.00000000000E+00 -0.28482321843E+04  0.28482321843E+04  0.00000000000E+00 0. -1.
         23    2    1    2    0    0 -0.15231894395E+04  0.29480958895E+03 -0.19303978865E+04  0.24778233575E+04  0.78446340441E+02 0.  0.
         13    1    3    3    0    0 -0.58381966416E+03  0.78413926104E+02 -0.70488006290E+03  0.91861311070E+03  0.00000000000E+00 0. -1.
        -13    1    3    3    0    0 -0.93936977539E+03  0.21639566284E+03 -0.12255178236E+04  0.15592102468E+04  0.00000000000E+00 0.  1.
         22    1    1    2    0    0  0.15231894395E+04 -0.29480958895E+03  0.29010378550E+03  0.15783469102E+04  0.00000000000E+00 0.  1.
<mgrwt>
<rscale>  0 0.37097106E+04</rscale>
<asrwt>0</asrwt>
<pdfrwt beam="1">  1        2 0.43818956E+00 0.37097106E+04</pdfrwt>
<pdfrwt beam="2">  1       -2 0.18583663E+00 0.37097106E+04</pdfrwt>
<totfact> 0.28859693E-01</totfact>
</mgrwt>
</event>
<event>
 6    1  0.1568961E-005  0.9469075E+03  0.7818608E-02  0.9368772E-01
         -2   -1    0    0    0  501 -0.00000000000E+00  0.00000000000E+00  0.31402332480E+03  0.31402332480E+03  0.00000000000E+00 0.  1.
          2   -1    0    0  501    0  0.00000000000E+00 -0.00000000000E+00 -0.71382745860E+03  0.71382745860E+03  0.00000000000E+00 0. -1.
         23    2    1    2    0    0 -0.10544467229E+03 -0.62208527875E+02 -0.69276780047E+03  0.71033513048E+03  0.98286786411E+02 0.  0.
         11    1    3    3    0    0 -0.20109590566E+02 -0.46181961015E+02 -0.10814827895E+03  0.11930305695E+03  0.00000000000E+00 0. -1.
        -11    1    3    3    0    0 -0.85335081722E+02 -0.16026566860E+02 -0.58461952151E+03  0.59103207354E+03  0.00000000000E+00 0.  1.
         22    1    1    2    0    0  0.10544467229E+03  0.62208527875E+02  0.29296366667E+03  0.31751565291E+03  0.00000000000E+00 0.  1.
<mgrwt>
<rscale>  0 0.94690754E+03</rscale>
<asrwt>0</asrwt>
<pdfrwt beam="1">  1        2 0.10981961E+00 0.94690754E+03</pdfrwt>
<pdfrwt beam="2">  1       -2 0.48311281E-01 0.94690754E+03</pdfrwt>
<totfact> 0.16236206E+02</totfact>
</mgrwt>
</event>
<event>
 6    1  0.1568961E-005  0.3336214E+03  0.7818608E-02  0.1069546E+00
         -2   -1    0    0    0  501 -0.00000000000E+00  0.00000000000E+00  0.15791211093E+03  0.15791211093E+03  0.00000000000E+00 0.  1.
          2   -1    0    0  501    0  0.00000000000E+00 -0.00000000000E+00 -0.17621077533E+03  0.17621077533E+03  0.00000000000E+00 0. -1.
         23    2    1    2    0    0 -0.10408301517E+03 -0.95776798335E+02 -0.71619257682E+02  0.18296219423E+03  0.91320191078E+02 0.  0.
         11    1    3    3    0    0 -0.80329061239E+02 -0.12244114370E+02 -0.39711452813E+02  0.90441560694E+02  0.00000000000E+00 0. -1.
        -11    1    3    3    0    0 -0.23753953935E+02 -0.83532683964E+02 -0.31907804869E+02  0.92520633533E+02  0.00000000000E+00 0.  1.
         22    1    1    2    0    0  0.10408301517E+03  0.95776798335E+02  0.53320593277E+02  0.15116069203E+03  0.00000000000E+00 0.  1.
<mgrwt>
<rscale>  0 0.33362144E+03</rscale>
<asrwt>0</asrwt>
<pdfrwt beam="1">  1        2 0.27109350E-01 0.33362144E+03</pdfrwt>
<pdfrwt beam="2">  1       -2 0.24294171E-01 0.33362144E+03</pdfrwt>
<totfact> 0.29446114E+03</totfact>
</mgrwt>
</event>
<event>
 6    1  0.1568961E-005  0.4520885E+04  0.7818608E-02  0.7906991E-01
         -1   -1    0    0    0  501 -0.00000000000E+00  0.00000000000E+00  0.15044721201E+04  0.15044721201E+04  0.00000000000E+00 0.  1.
          1   -1    0    0  501    0  0.00000000000E+00 -0.00000000000E+00 -0.33962749330E+04  0.33962749330E+04  0.00000000000E+00 0. -1.
         23    2    1    2    0    0 -0.88287647080E+03  0.21750240024E+03 -0.31885571248E+04  0.33169699532E+04  0.92816890101E+02 0.  0.
         13    1    3    3    0    0 -0.30482552667E+03  0.12034606135E+03 -0.11690480193E+04  0.12141149236E+04  0.00000000000E+00 0.  1.
        -13    1    3    3    0    0 -0.57805094413E+03  0.97156338892E+02 -0.20195091055E+04  0.21028550296E+04  0.00000000000E+00 0. -1.
         22    1    1    2    0    0  0.88287647080E+03 -0.21750240024E+03  0.12967543119E+04  0.15837770999E+04  0.00000000000E+00 0.  1.
<mgrwt>
<rscale>  0 0.45208853E+04</rscale>
<asrwt>0</asrwt>
<pdfrwt beam="1">  1        1 0.52250383E+00 0.45208853E+04</pdfrwt>
<pdfrwt beam="2">  1       -1 0.23145725E+00 0.45208853E+04</pdfrwt>
<totfact> 0.20835959E-02</totfact>
</mgrwt>
</event>
<event>
 6    1  0.1568961E-005  0.3842463E+04  0.7818608E-02  0.8037103E-01
         -2   -1    0    0    0  501 -0.00000000000E+00  0.00000000000E+00  0.17717727799E+04  0.17717727799E+04  0.00000000000E+00 0.  1.
          2   -1    0    0  501    0  0.00000000000E+00 -0.00000000000E+00 -0.20832980933E+04  0.20832980933E+04  0.00000000000E+00 0. -1.
         23    2    1    2    0    0  0.62830456937E+03  0.41643648205E+03  0.16159087242E+04  0.17854844544E+04  0.92777996261E+02 0.  0.
         11    1    3    3    0    0  0.50009429296E+03  0.30725583246E+03  0.11732269173E+04  0.13118543547E+04  0.00000000000E+00 0. -1.
        -11    1    3    3    0    0  0.12821027641E+03  0.10918064959E+03  0.44268180690E+03  0.47363009975E+03  0.00000000000E+00 0.  1.
         22    1    1    2    0    0 -0.62830456937E+03 -0.41643648205E+03 -0.19274340376E+04  0.20695864187E+04  0.00000000000E+00 0. -1.
<mgrwt>
<rscale>  0 0.38424632E+04</rscale>
<asrwt>0</asrwt>
<pdfrwt beam="1">  1        2 0.32050740E+00 0.38424632E+04</pdfrwt>
<pdfrwt beam="2">  1       -2 0.27258043E+00 0.38424632E+04</pdfrwt>
<totfact> 0.22422690E-01</totfact>
</mgrwt>
</event>
<event>
 6    1  0.1568961E-005  0.1338291E+04  0.7818608E-02  0.8999739E-01
          1   -1    0    0  501    0  0.00000000000E+00  0.00000000000E+00  0.69741944481E+03  0.69741944481E+03  0.00000000000E+00 0. -1.
         -1   -1    0    0    0  501 -0.00000000000E+00 -0.00000000000E+00 -0.64201816449E+03  0.64201816449E+03  0.00000000000E+00 0.  1.
         23    2    1    2    0    0 -0.61042861325E+03  0.38459485296E+00  0.29636780086E+03  0.68316929236E+03  0.79140184797E+02 0.  0.
         13    1    3    3    0    0 -0.22469739039E+03 -0.32140611449E+02  0.87079952370E+02  0.24311489929E+03  0.00000000000E+00 0. -1.
        -13    1    3    3    0    0 -0.38573122286E+03  0.32525206302E+02  0.20928784849E+03  0.44005439307E+03  0.00000000000E+00 0.  1.
         22    1    1    2    0    0  0.61042861325E+03 -0.38459485296E+00 -0.24096652054E+03  0.65626831694E+03  0.00000000000E+00 0.  1.
<mgrwt>
<rscale>  0 0.13382914E+04</rscale>
<asrwt>0</asrwt>
<pdfrwt beam="1">  1        1 0.10729530E+00 0.13382914E+04</pdfrwt>
<pdfrwt beam="2">  1       -1 0.98772025E-01 0.13382914E+04</pdfrwt>
<totfact> 0.26328363E+01</totfact>
</mgrwt>
</event>
<event>
 6    1  0.1568961E-005  0.5012636E+04  0.7818608E-02  0.7826561E-01
         -2   -1    0    0    0  501 -0.00000000000E+00  0.00000000000E+00  0.13501523345E+04  0.13501523345E+04  0.00000000000E+00 0.  1.
          2   -1    0    0  501    0  0.00000000000E+00 -0.00000000000E+00 -0.46525341465E+04  0.46525341465E+04  0.00000000000E+00 0. -1.
         23    2    1    2    0    0 -0.17907826549E+04  0.14925477357E+04 -0.55224829131E+03  0.23974353605E+04  0.90093684234E+02 0.  0.
         13    1    3    3    0    0 -0.31508819412E+03  0.24476484711E+03 -0.62821986476E+02  0.40390221891E+03  0.00000000000E+00 0. -1.
        -13    1    3    3    0    0 -0.14756944607E+04  0.12477828886E+04 -0.48942630484E+03  0.19935331415E+04  0.00000000000E+00 0.  1.
         22    1    1    2    0    0  0.17907826549E+04 -0.14925477357E+04 -0.27501335207E+04  0.36052511205E+04  0.00000000000E+00 0. -1.
<mgrwt>
<rscale>  0 0.50126360E+04</rscale>
<asrwt>0</asrwt>
<pdfrwt beam="1">  1        2 0.71577448E+00 0.50126360E+04</pdfrwt>
<pdfrwt beam="2">  1       -2 0.20771574E+00 0.50126360E+04</pdfrwt>
<totfact> 0.73387614E-03</totfact>
</mgrwt>
</event>
<event>
 6    1  0.1568961E-005  0.1717212E+04  0.7818608E-02  0.8751608E-01
         -2   -1    0    0    0  501 -0.00000000000E+00  0.00000000000E+00  0.16831202820E+03  0.16831202820E+03  0.00000000000E+00 0.  1.
          2   -1    0    0  501    0  0.00000000000E+00 -0.00000000000E+00 -0.43799862910E+04  0.43799862910E+04  0.00000000000E+00 0. -1.
         23    2    1    2    0    0 -0.41749554135E+03 -0.12418019117E+03 -0.40628022989E+04  0.40879874367E+04  0.12472175121E+03 0.  0.
         13    1    3    3    0    0 -0.14961284718E+03  0.15701066011E+02 -0.12669730575E+04  0.12758727429E+04  0.00000000000E+00 0. -1.
        -13    1    3    3    0    0 -0.26788269418E+03 -0.13988125718E+03 -0.27958292414E+04  0.28121146938E+04  0.00000000000E+00 0.  1.
         22    1    1    2    0    0  0.41749554135E+03  0.12418019117E+03 -0.14887196383E+03  0.46031088250E+03  0.00000000000E+00 0.  1.
<mgrwt>
<rscale>  0 0.17172121E+04</rscale>
<asrwt>0</asrwt>
<pdfrwt beam="1">  1        2 0.67384400E+00 0.17172121E+04</pdfrwt>
<pdfrwt beam="2">  1       -2 0.25894160E-01 0.17172121E+04</pdfrwt>
<totfact> 0.20975022E+00</totfact>
</mgrwt>
</event>
<event>
 6    1  0.1568961E-005  0.1191822E+04  0.7818608E-02  0.9120045E-01
         -1   -1    0    0    0  501 -0.00000000000E+00  0.00000000000E+00  0.33645552474E+03  0.33645552474E+03  0.00000000000E+00 0. -1.
          1   -1    0    0  501    0  0.00000000000E+00 -0.00000000000E+00 -0.10554445770E+04  0.10554445770E+04  0.00000000000E+00 0.  1.
         23    2    1    2    0    0  0.12702852368E+03 -0.22092005350E+03 -0.98626145961E+03  0.10226082719E+04  0.89855968651E+02 0.  0.
         11    1    3    3    0    0  0.38622603269E+02 -0.10222547287E+02 -0.10946019651E+03  0.11652356233E+03  0.00000000000E+00 0. -1.
        -11    1    3    3    0    0  0.88405920412E+02 -0.21069750621E+03 -0.87680126310E+03  0.90608470954E+03  0.00000000000E+00 0.  1.
         22    1    1    2    0    0 -0.12702852368E+03  0.22092005350E+03  0.26727240737E+03  0.36929182987E+03  0.00000000000E+00 0. -1.
<mgrwt>
<rscale>  0 0.11918224E+04</rscale>
<asrwt>0</asrwt>
<pdfrwt beam="1">  1        1 0.16237609E+00 0.11918224E+04</pdfrwt>
<pdfrwt beam="2">  1       -1 0.51762389E-01 0.11918224E+04</pdfrwt>
<totfact> 0.50977153E+01</totfact>
</mgrwt>
</event>
<event>
 6    1  0.1568961E-005  0.1670793E+04  0.7818608E-02  0.8778200E-01
          1   -1    0    0  501    0  0.00000000000E+00  0.00000000000E+00  0.17651160658E+04  0.17651160658E+04  0.00000000000E+00 0. -1.
         -1   -1    0    0    0  501 -0.00000000000E+00 -0.00000000000E+00 -0.39537753464E+03  0.39537753464E+03  0.00000000000E+00 0.  1.
         23    2    1    2    0    0  0.80211611886E+01  0.62100359658E+03  0.14045519885E+04  0.15384632292E+04  0.91613389204E+02 0.  0.
         13    1    3    3    0    0 -0.20636645971E+02  0.27949894491E+03  0.72753812306E+03  0.77965200691E+03  0.00000000000E+00 0.  1.
        -13    1    3    3    0    0  0.28657807159E+02  0.34150465167E+03  0.67701386548E+03  0.75881122229E+03  0.00000000000E+00 0. -1.
         22    1    1    2    0    0 -0.80211611886E+01 -0.62100359658E+03 -0.34813457343E+02  0.62203037129E+03  0.00000000000E+00 0.  1.
<mgrwt>
<rscale>  0 0.16707929E+04</rscale>
<asrwt>0</asrwt>
<pdfrwt beam="1">  1        1 0.27155631E+00 0.16707929E+04</pdfrwt>
<pdfrwt beam="2">  1       -1 0.60827314E-01 0.16707929E+04</pdfrwt>
<totfact> 0.11251140E+01</totfact>
</mgrwt>
</event>
<event>
 6    1  0.1568961E-005  0.3030258E+04  0.7818608E-02  0.8235143E-01
          1   -1    0    0  501    0  0.00000000000E+00  0.00000000000E+00  0.11435914982E+04  0.11435914982E+04  0.00000000000E+00 0. -1.
         -1   -1    0    0    0  501 -0.00000000000E+00 -0.00000000000E+00 -0.20073745399E+04  0.20073745399E+04  0.00000000000E+00 0.  1.
         23    2    1    2    0    0  0.96994552336E+03  0.11291491886E+04 -0.14540578994E+03  0.14981387378E+04  0.86629242044E+02 0.  0.
         13    1    3    3    0    0  0.45947848104E+03  0.55256855682E+03 -0.28272034169E+02  0.71920219163E+03  0.00000000000E+00 0.  1.
        -13    1    3    3    0    0  0.51046704232E+03  0.57658063179E+03 -0.11713375577E+03  0.77893654619E+03  0.00000000000E+00 0. -1.
         22    1    1    2    0    0 -0.96994552336E+03 -0.11291491886E+04 -0.71837725176E+03  0.16528273002E+04  0.00000000000E+00 0.  1.
<mgrwt>
<rscale>  0 0.30302584E+04</rscale>
<asrwt>0</asrwt>
<pdfrwt beam="1">  1        1 0.17593715E+00 0.30302584E+04</pdfrwt>
<pdfrwt beam="2">  1       -1 0.30882685E+00 0.30302584E+04</pdfrwt>
<totfact> 0.28887583E-01</totfact>
</mgrwt>
</event>
<event>
 6    1  0.1568961E-005  0.2085116E+04  0.7818608E-02  0.8567828E-01
         -2   -1    0    0    0  501 -0.00000000000E+00  0.00000000000E+00  0.87063834898E+03  0.87063834898E+03  0.00000000000E+00 0. -1.
          2   -1    0    0  501    0  0.00000000000E+00 -0.00000000000E+00 -0.12484255308E+04  0.12484255308E+04  0.00000000000E+00 0.  1.
         23    2    1    2    0    0  0.21443448324E+03  0.39416827045E+03 -0.11433405146E+04  0.12316954792E+04  0.92170755387E+02 0.  0.
         11    1    3    3    0    0  0.11163654998E+03  0.29012618203E+03 -0.73934923310E+03  0.80204314677E+03  0.00000000000E+00 0. -1.
        -11    1    3    3    0    0  0.10279793326E+03  0.10404208842E+03 -0.40399128147E+03  0.42965233241E+03  0.00000000000E+00 0.  1.
         22    1    1    2    0    0 -0.21443448324E+03 -0.39416827045E+03  0.76555333277E+03  0.88736840058E+03  0.00000000000E+00 0. -1.
<mgrwt>
<rscale>  0 0.20851160E+04</rscale>
<asrwt>0</asrwt>
<pdfrwt beam="1">  1        2 0.19206547E+00 0.20851160E+04</pdfrwt>
<pdfrwt beam="2">  1       -2 0.13394436E+00 0.20851160E+04</pdfrwt>
<totfact> 0.65839248E+00</totfact>
</mgrwt>
</event>
<event>
 6    1  0.1568961E-005  0.5087268E+03  0.7818608E-02  0.1011526E+00
          1   -1    0    0  501    0  0.00000000000E+00  0.00000000000E+00  0.87305464602E+03  0.87305464602E+03  0.00000000000E+00 0. -1.
         -1   -1    0    0    0  501 -0.00000000000E+00 -0.00000000000E+00 -0.74108474942E+02  0.74108474942E+02  0.00000000000E+00 0.  1.
         23    2    1    2    0    0  0.16520138865E+03 -0.16201349345E+03  0.56957213710E+03  0.62135287199E+03  0.90150437023E+02 0.  0.
         11    1    3    3    0    0  0.59675501614E+02 -0.12133227953E+03  0.30632061931E+03  0.33483579463E+03  0.00000000000E+00 0.  1.
        -11    1    3    3    0    0  0.10552588704E+03 -0.40681213919E+02  0.26325151779E+03  0.28651707736E+03  0.00000000000E+00 0. -1.
         22    1    1    2    0    0 -0.16520138865E+03  0.16201349345E+03  0.22937403398E+03  0.32581024897E+03  0.00000000000E+00 0.  1.
<mgrwt>
<rscale>  0 0.50872684E+03</rscale>
<asrwt>0</asrwt>
<pdfrwt beam="1">  1        1 0.13431609E+00 0.50872684E+03</pdfrwt>
<pdfrwt beam="2">  1       -1 0.11401304E-01 0.50872684E+03</pdfrwt>
<totfact> 0.99195893E+02</totfact>
</mgrwt>
</event>
<event>
 6    1  0.1568961E-005  0.2092696E+04  0.7818608E-02  0.8564468E-01
          2   -1    0    0  501    0  0.00000000000E+00  0.00000000000E+00  0.81057748727E+03  0.81057748727E+03  0.00000000000E+00 0.  1.
         -2   -1    0    0    0  501 -0.00000000000E+00 -0.00000000000E+00 -0.13506968159E+04  0.13506968159E+04  0.00000000000E+00 0. -1.
         23    2    1    2    0    0  0.21572641942E+03 -0.10156811696E+04 -0.15634368669E+03  0.10542829438E+04  0.94461901927E+02 0.  0.
         11    1    3    3    0    0  0.46801117862E+02 -0.43172470161E+03 -0.49498743335E+02  0.43706599983E+03  0.00000000000E+00 0.  1.
        -11    1    3    3    0    0  0.16892530155E+03 -0.58395646800E+03 -0.10684494335E+03  0.61721694398E+03  0.00000000000E+00 0. -1.
         22    1    1    2    0    0 -0.21572641942E+03  0.10156811696E+04 -0.38377564193E+03  0.11069913593E+04  0.00000000000E+00 0.  1.
<mgrwt>
<rscale>  0 0.20926963E+04</rscale>
<asrwt>0</asrwt>
<pdfrwt beam="1">  1        2 0.12470423E+00 0.20926963E+04</pdfrwt>
<pdfrwt beam="2">  1       -2 0.20779951E+00 0.20926963E+04</pdfrwt>
<totfact> 0.36908109E+00</totfact>
</mgrwt>
</event>
<event>
 6    1  0.1568961E-005  0.2802692E+04  0.7818608E-02  0.8302433E-01
         -2   -1    0    0    0  501 -0.00000000000E+00  0.00000000000E+00  0.17727721122E+04  0.17727721122E+04  0.00000000000E+00 0.  1.
          2   -1    0    0  501    0  0.00000000000E+00 -0.00000000000E+00 -0.11077399681E+04  0.11077399681E+04  0.00000000000E+00 0. -1.
         23    2    1    2    0    0 -0.10005648876E+04 -0.64121806024E+03 -0.42769978782E+03  0.12660915125E+04  0.88147118572E+02 0.  0.
         11    1    3    3    0    0 -0.54866116335E+03 -0.37554604706E+03 -0.28031545791E+03  0.72155433722E+03  0.00000000000E+00 0. -1.
        -11    1    3    3    0    0 -0.45190372422E+03 -0.26567201318E+03 -0.14738432991E+03  0.54453717527E+03  0.00000000000E+00 0.  1.
         22    1    1    2    0    0  0.10005648876E+04  0.64121806024E+03  0.10927319319E+04  0.16144205679E+04  0.00000000000E+00 0.  1.
<mgrwt>
<rscale>  0 0.28026919E+04</rscale>
<asrwt>0</asrwt>
<pdfrwt beam="1">  1        2 0.17042153E+00 0.28026919E+04</pdfrwt>
<pdfrwt beam="2">  1       -2 0.27273417E+00 0.28026919E+04</pdfrwt>
<totfact> 0.87426054E-01</totfact>
</mgrwt>
</event>
<event>
 6    1  0.1568961E-005  0.3232030E+04  0.7818608E-02  0.8180409E-01
          1   -1    0    0  501    0  0.00000000000E+00  0.00000000000E+00  0.32196400479E+04  0.32196400479E+04  0.00000000000E+00 0. -1.
         -1   -1    0    0    0  501 -0.00000000000E+00 -0.00000000000E+00 -0.81111705277E+03  0.81111705277E+03  0.00000000000E+00 0.  1.
         23    2    1    2    0    0 -0.23582180339E+03 -0.87093620845E+02  0.31944129591E+04  0.32056387714E+04  0.92997621063E+02 0.  0.
         11    1    3    3    0    0 -0.89790360952E+02 -0.77404193143E+01  0.71424043998E+03  0.71990390270E+03  0.00000000000E+00 0. -1.
        -11    1    3    3    0    0 -0.14603144244E+03 -0.79353201531E+02  0.24801725192E+04  0.24857348687E+04  0.00000000000E+00 0.  1.
         22    1    1    2    0    0  0.23582180339E+03  0.87093620845E+02 -0.78588996401E+03  0.82511832926E+03  0.00000000000E+00 0.  1.
<mgrwt>
<rscale>  0 0.32320303E+04</rscale>
<asrwt>0</asrwt>
<pdfrwt beam="1">  1        1 0.49532923E+00 0.32320303E+04</pdfrwt>
<pdfrwt beam="2">  1       -1 0.12478724E+00 0.32320303E+04</pdfrwt>
<totfact> 0.19245990E-01</totfact>
</mgrwt>
</event>
<event>
 6    1  0.1568961E-005  0.1625370E+04  0.7818608E-02  0.8805112E-01
         -2   -1    0    0    0  501 -0.00000000000E+00  0.00000000000E+00  0.66030067977E+03  0.66030067977E+03  0.00000000000E+00 0.  1.
          2   -1    0    0  501    0  0.00000000000E+00 -0.00000000000E+00 -0.10002369007E+04  0.10002369007E+04  0.00000000000E+00 0. -1.
         23    2    1    2    0    0 -0.79290460632E+03  0.11150719518E+03 -0.45105616406E+02  0.80727522066E+03  0.92342817590E+02 0.  0.
         11    1    3    3    0    0 -0.22666473124E+03  0.16440887506E+02 -0.51725088725E+02  0.23307228057E+03  0.00000000000E+00 0. -1.
        -11    1    3    3    0    0 -0.56623987509E+03  0.95066307677E+02  0.66194723197E+01  0.57420294009E+03  0.00000000000E+00 0.  1.
         22    1    1    2    0    0  0.79290460632E+03 -0.11150719518E+03 -0.29483060454E+03  0.85326235982E+03  0.00000000000E+00 0.  1.
<mgrwt>
<rscale>  0 0.16253702E+04</rscale>
<asrwt>0</asrwt>
<pdfrwt beam="1">  1        2 0.15388260E+00 0.16253702E+04</pdfrwt>
<pdfrwt beam="2">  1       -2 0.10158472E+00 0.16253702E+04</pdfrwt>
<totfact> 0.19177716E+01</totfact>
</mgrwt>
</event>
<event>
 6    1  0.1568961E-005  0.3116067E+04  0.7818608E-02  0.8211342E-01
          2   -1    0    0  501    0  0.00000000000E+00  0.00000000000E+00  0.19335945398E+04  0.19335945398E+04  0.00000000000E+00 0. -1.
         -2   -1    0    0    0  501 -0.00000000000E+00 -0.00000000000E+00 -0.12554173587E+04  0.12554173587E+04  0.00000000000E+00 0.  1.
         23    2    1    2    0    0  0.27249122969E+03 -0.91642369243E+03 -0.91825976118E+03  0.13281801585E+04  0.82326727662E+02 0.  0.
         13    1    3    3    0    0  0.24548191661E+03 -0.75772404072E+03 -0.72932783639E+03  0.10799658264E+04  0.00000000000E+00 0. -1.
        -13    1    3    3    0    0  0.27009313079E+02 -0.15869965170E+03 -0.18893192478E+03  0.24821433207E+03  0.00000000000E+00 0.  1.
         22    1    1    2    0    0 -0.27249122969E+03  0.91642369243E+03  0.15964369422E+04  0.18608317401E+04  0.00000000000E+00 0. -1.
<mgrwt>
<rscale>  0 0.31160668E+04</rscale>
<asrwt>0</asrwt>
<pdfrwt beam="1">  1        2 0.29747608E+00 0.31160668E+04</pdfrwt>
<pdfrwt beam="2">  1       -2 0.19314113E+00 0.31160668E+04</pdfrwt>
<totfact> 0.91088385E-01</totfact>
</mgrwt>
</event>
<event>
 6    1  0.1568961E-005  0.1596273E+04  0.7818608E-02  0.8822841E-01
          1   -1    0    0  501    0  0.00000000000E+00  0.00000000000E+00  0.13880615729E+04  0.13880615729E+04  0.00000000000E+00 0. -1.
         -1   -1    0    0    0  501 -0.00000000000E+00 -0.00000000000E+00 -0.45892926527E+03  0.45892926527E+03  0.00000000000E+00 0.  1.
         23    2    1    2    0    0 -0.35915214675E+03 -0.17603518692E+03 -0.33006204985E+03  0.52579854276E+03  0.86859077076E+02 0.  0.
         11    1    3    3    0    0 -0.78763727534E+02 -0.81557732278E+02 -0.88309301262E+02  0.14371472144E+03  0.00000000000E+00 0.  1.
        -11    1    3    3    0    0 -0.28038841921E+03 -0.94477454645E+02 -0.24175274859E+03  0.38208382132E+03  0.00000000000E+00 0. -1.
         22    1    1    2    0    0  0.35915214675E+03  0.17603518692E+03  0.12591943575E+04  0.13211922954E+04  0.00000000000E+00 0. -1.
<mgrwt>
<rscale>  0 0.15962733E+04</rscale>
<asrwt>0</asrwt>
<pdfrwt beam="1">  1        1 0.21354793E+00 0.15962733E+04</pdfrwt>
<pdfrwt beam="2">  1       -1 0.70604503E-01 0.15962733E+04</pdfrwt>
<totfact> 0.15239305E+01</totfact>
</mgrwt>
</event>
<event>
 6    1  0.1568961E-005  0.2255541E+04  0.7818608E-02  0.8495660E-01
          1   -1    0    0  501    0  0.00000000000E+00  0.00000000000E+00  0.10018996385E+04  0.10018996385E+04  0.00000000000E+00 0. -1.
         -1   -1    0    0    0  501 -0.00000000000E+00 -0.00000000000E+00 -0.12694542529E+04  0.12694542529E+04  0.00000000000E+00 0.  1.
         23    2    1    2    0    0 -0.74613218517E+03  0.70360225613E+03 -0.60181729343E+03  0.11926968972E+04  0.92587587649E+02 0.  0.
         13    1    3    3    0    0 -0.45996281530E+03  0.37185629246E+03 -0.33617574571E+03  0.68033596532E+03  0.00000000000E+00 0.  1.
        -13    1    3    3    0    0 -0.28616936987E+03  0.33174596368E+03 -0.26564154772E+03  0.51236093190E+03  0.00000000000E+00 0. -1.
         22    1    1    2    0    0  0.74613218517E+03 -0.70360225613E+03  0.33426267894E+03  0.10786569942E+04  0.00000000000E+00 0. -1.
<mgrwt>
<rscale>  0 0.22555405E+04</rscale>
<asrwt>0</asrwt>
<pdfrwt beam="1">  1        1 0.15413841E+00 0.22555405E+04</pdfrwt>
<pdfrwt beam="2">  1       -1 0.19530065E+00 0.22555405E+04</pdfrwt>
<totfact> 0.22196803E+00</totfact>
</mgrwt>
</event>
<event>
 6    1  0.1568961E-005  0.1334018E+04  0.7818608E-02  0.9003015E-01
         -1   -1    0    0    0  501 -0.00000000000E+00  0.00000000000E+00  0.64202729097E+03  0.64202729097E+03  0.00000000000E+00 0.  1.
          1   -1    0    0  501    0  0.00000000000E+00 -0.00000000000E+00 -0.69296280506E+03  0.69296280506E+03  0.00000000000E+00 0. -1.
         23    2    1    2    0    0 -0.22028889492E+03 -0.52763807526E+03 -0.36269887691E+03  0.68374088867E+03  0.94984166225E+02 0.  0.
         11    1    3    3    0    0 -0.15511039551E+03 -0.28406217738E+03 -0.24243712104E+03  0.40438386846E+03  0.00000000000E+00 0. -1.
        -11    1    3    3    0    0 -0.65178499414E+02 -0.24357589788E+03 -0.12026175587E+03  0.27935702021E+03  0.00000000000E+00 0.  1.
         22    1    1    2    0    0  0.22028889492E+03  0.52763807526E+03  0.31176336282E+03  0.65124920736E+03  0.00000000000E+00 0. -1.
<mgrwt>
<rscale>  0 0.13340180E+04</rscale>
<asrwt>0</asrwt>
<pdfrwt beam="1">  1        1 0.10660966E+00 0.13340180E+04</pdfrwt>
<pdfrwt beam="2">  1       -1 0.98773429E-01 0.13340180E+04</pdfrwt>
<totfact> 0.26593969E+01</totfact>
</mgrwt>
</event>
<event>
 6    1  0.1568961E-005  0.1385003E+04  0.7818608E-02  0.8964746E-01
          1   -1    0    0  501    0  0.00000000000E+00  0.00000000000E+00  0.23190444814E+04  0.23190444814E+04  0.00000000000E+00 0. -1.
         -1   -1    0    0    0  501 -0.00000000000E+00 -0.00000000000E+00 -0.20679139575E+03  0.20679139575E+03  0.00000000000E+00 0.  1.
         23    2    1    2    0    0 -0.62344417164E+03  0.23766978159E+03  0.74397628162E+03  0.10035510902E+04  0.91894084359E+02 0.  0.
         13    1    3    3    0    0 -0.15044879920E+03  0.16482579604E+02  0.16608042484E+03  0.22469807326E+03  0.00000000000E+00 0.  1.
        -13    1    3    3    0    0 -0.47299537244E+03  0.22118720198E+03  0.57789585678E+03  0.77885301692E+03  0.00000000000E+00 0. -1.
         22    1    1    2    0    0  0.62344417164E+03 -0.23766978159E+03  0.13682768040E+04  0.15222847870E+04  0.00000000000E+00 0. -1.
<mgrwt>
<rscale>  0 0.13850032E+04</rscale>
<asrwt>0</asrwt>
<pdfrwt beam="1">  1        1 0.35677606E+00 0.13850032E+04</pdfrwt>
<pdfrwt beam="2">  1       -1 0.31814063E-01 0.13850032E+04</pdfrwt>
<totfact> 0.16259578E+01</totfact>
</mgrwt>
</event>
<event>
 6    1  0.1568961E-005  0.1353770E+04  0.7818608E-02  0.8987979E-01
          2   -1    0    0  501    0  0.00000000000E+00  0.00000000000E+00  0.17338682502E+04  0.17338682502E+04  0.00000000000E+00 0. -1.
         -2   -1    0    0    0  501 -0.00000000000E+00 -0.00000000000E+00 -0.26424931562E+03  0.26424931562E+03  0.00000000000E+00 0.  1.
         23    2    1    2    0    0  0.38480287666E+03 -0.55195299688E+03  0.79372565449E+03  0.10444105402E+04  0.89819804459E+02 0.  0.
         13    1    3    3    0    0  0.13939064450E+03 -0.23965511312E+03  0.26885447777E+03  0.38619561784E+03  0.00000000000E+00 0. -1.
        -13    1    3    3    0    0  0.24541223215E+03 -0.31229788375E+03  0.52487117672E+03  0.65821492237E+03  0.00000000000E+00 0.  1.
         22    1    1    2    0    0 -0.38480287666E+03  0.55195299688E+03  0.67589328012E+03  0.95370702564E+03  0.00000000000E+00 0. -1.
<mgrwt>
<rscale>  0 0.13537703E+04</rscale>
<asrwt>0</asrwt>
<pdfrwt beam="1">  1        2 0.26674895E+00 0.13537703E+04</pdfrwt>
<pdfrwt beam="2">  1       -2 0.40653742E-01 0.13537703E+04</pdfrwt>
<totfact> 0.52530499E+01</totfact>
</mgrwt>
</event>
<event>
 6    1  0.1568961E-005  0.3295657E+04  0.7818608E-02  0.8164001E-01
          2   -1    0    0  501    0  0.00000000000E+00  0.00000000000E+00  0.37303912223E+04  0.37303912223E+04  0.00000000000E+00 0.  1.
         -2   -1    0    0    0  501 -0.00000000000E+00 -0.00000000000E+00 -0.72789640159E+03  0.72789640159E+03  0.00000000000E+00 0. -1.
         23    2    1    2    0    0 -0.99816029601E+03  0.53946757743E+02  0.32723154771E+04  0.34228952268E+04  0.94492979150E+02 0.  0.
         13    1    3    3    0    0 -0.38998317217E+03  0.13912985460E+01  0.11360996461E+04  0.12011707690E+04  0.00000000000E+00 0.  1.
        -13    1    3    3    0    0 -0.60817712384E+03  0.52555459197E+02  0.21362158310E+04  0.22217244579E+04  0.00000000000E+00 0. -1.
         22    1    1    2    0    0  0.99816029601E+03 -0.53946757743E+02 -0.26982065640E+03  0.10353923970E+04  0.00000000000E+00 0. -1.
<mgrwt>
<rscale>  0 0.32956567E+04</rscale>
<asrwt>0</asrwt>
<pdfrwt beam="1">  1        2 0.57390633E+00 0.32956567E+04</pdfrwt>
<pdfrwt beam="2">  1       -2 0.11198406E+00 0.32956567E+04</pdfrwt>
<totfact> 0.29077276E-01</totfact>
</mgrwt>
</event>
<event>
 6    1  0.1568961E-005  0.2315384E+04  0.7818608E-02  0.8471880E-01
          2   -1    0    0  501    0  0.00000000000E+00  0.00000000000E+00  0.25263272755E+04  0.25263272755E+04  0.00000000000E+00 0.  1.
         -2   -1    0    0    0  501 -0.00000000000E+00 -0.00000000000E+00 -0.53051364461E+03  0.53051364461E+03  0.00000000000E+00 0. -1.
         23    2    1    2    0    0  0.11018878532E+04 -0.34022763791E+03  0.11029537300E+04  0.15983792342E+04  0.91638196790E+02 0.  0.
         13    1    3    3    0    0  0.69037471702E+03 -0.25550310435E+03  0.72618623772E+03  0.10340432960E+04  0.00000000000E+00 0.  1.
        -13    1    3    3    0    0  0.41151313621E+03 -0.84724533565E+02  0.37676749225E+03  0.56433593814E+03  0.00000000000E+00 0. -1.
         22    1    1    2    0    0 -0.11018878532E+04  0.34022763791E+03  0.89285990093E+03  0.14584616860E+04  0.00000000000E+00 0. -1.
<mgrwt>
<rscale>  0 0.23153843E+04</rscale>
<asrwt>0</asrwt>
<pdfrwt beam="1">  1        2 0.38866573E+00 0.23153843E+04</pdfrwt>
<pdfrwt beam="2">  1       -2 0.81617485E-01 0.23153843E+04</pdfrwt>
<totfact> 0.40204808E+00</totfact>
</mgrwt>
</event>
<event>
 6    1  0.1568961E-005  0.2371172E+04  0.7818608E-02  0.8450376E-01
          1   -1    0    0  501    0  0.00000000000E+00  0.00000000000E+00  0.10486102400E+04  0.10486102400E+04  0.00000000000E+00 0. -1.
         -1   -1    0    0    0  501 -0.00000000000E+00 -0.00000000000E+00 -0.13404539937E+04  0.13404539937E+04  0.00000000000E+00 0.  1.
         23    2    1    2    0    0  0.91069073908E+03 -0.67767397509E+03 -0.48456656346E+03  0.12376556528E+04  0.91581229838E+02 0.  0.
         13    1    3    3    0    0  0.61605260898E+03 -0.50919589555E+03 -0.32957252418E+03  0.86453416692E+03  0.00000000000E+00 0.  1.
        -13    1    3    3    0    0  0.29463813009E+03 -0.16847807954E+03 -0.15499403928E+03  0.37312148585E+03  0.00000000000E+00 0. -1.
         22    1    1    2    0    0 -0.91069073908E+03  0.67767397509E+03  0.19272280981E+03  0.11514085809E+04  0.00000000000E+00 0. -1.
<mgrwt>
<rscale>  0 0.23711717E+04</rscale>
<asrwt>0</asrwt>
<pdfrwt beam="1">  1        1 0.16132465E+00 0.23711717E+04</pdfrwt>
<pdfrwt beam="2">  1       -1 0.20622369E+00 0.23711717E+04</pdfrwt>
<totfact> 0.16999388E+00</totfact>
</mgrwt>
</event>
<event>
 6    1  0.1568961E-005  0.1494245E+04  0.7818608E-02  0.8888289E-01
          2   -1    0    0  501    0  0.00000000000E+00  0.00000000000E+00  0.20824383394E+04  0.20824383394E+04  0.00000000000E+00 0. -1.
         -2   -1    0    0    0  501 -0.00000000000E+00 -0.00000000000E+00 -0.26804740666E+03  0.26804740666E+03  0.00000000000E+00 0.  1.
         23    2    1    2    0    0 -0.54884998237E+03 -0.49849994712E+03  0.10140057908E+04  0.12594518896E+04  0.90955033283E+02 0.  0.
         13    1    3    3    0    0 -0.50102412693E+03 -0.47402440281E+03  0.90446025573E+03  0.11374412795E+04  0.00000000000E+00 0. -1.
        -13    1    3    3    0    0 -0.47825855443E+02 -0.24475544314E+02  0.10954553507E+03  0.12201061008E+03  0.00000000000E+00 0.  1.
         22    1    1    2    0    0  0.54884998237E+03  0.49849994712E+03  0.80038514190E+03  0.10910338564E+04  0.00000000000E+00 0.  1.
<mgrwt>
<rscale>  0 0.14942452E+04</rscale>
<asrwt>0</asrwt>
<pdfrwt beam="1">  1        2 0.32037512E+00 0.14942452E+04</pdfrwt>
<pdfrwt beam="2">  1       -2 0.41238064E-01 0.14942452E+04</pdfrwt>
<totfact> 0.32381374E+01</totfact>
</mgrwt>
</event>
<event>
 6    1  0.1568961E-005  0.1568892E+04  0.7818608E-02  0.8839890E-01
         -2   -1    0    0    0  501 -0.00000000000E+00  0.00000000000E+00  0.10021386760E+04  0.10021386760E+04  0.00000000000E+00 0. -1.
          2   -1    0    0  501    0  0.00000000000E+00 -0.00000000000E+00 -0.61404250746E+03  0.61404250746E+03  0.00000000000E+00 0.  1.
         23    2    1    2    0    0 -0.51373799419E+03  0.26889214871E+02  0.80120564315E+03  0.95640152734E+03  0.90131250627E+02 0.  0.
         11    1    3    3    0    0 -0.10535185485E+03 -0.24869805632E+02  0.20603027452E+03  0.23273589016E+03  0.00000000000E+00 0. -1.
        -11    1    3    3    0    0 -0.40838613934E+03  0.51759020503E+02  0.59517536863E+03  0.72366563718E+03  0.00000000000E+00 0.  1.
         22    1    1    2    0    0  0.51373799419E+03 -0.26889214871E+02 -0.41310947464E+03  0.65977965609E+03  0.00000000000E+00 0.  1.
<mgrwt>
<rscale>  0 0.15688923E+04</rscale>
<asrwt>0</asrwt>
<pdfrwt beam="1">  1        2 0.94468078E-01 0.15688923E+04</pdfrwt>
<pdfrwt beam="2">  1       -2 0.15417518E+00 0.15688923E+04</pdfrwt>
<totfact> 0.12897654E+01</totfact>
</mgrwt>
</event>
<event>
 6    1  0.1568961E-005  0.1465966E+04  0.7818608E-02  0.8907406E-01
         -2   -1    0    0    0  501 -0.00000000000E+00  0.00000000000E+00  0.27122762800E+03  0.27122762800E+03  0.00000000000E+00 0.  1.
          2   -1    0    0  501    0  0.00000000000E+00 -0.00000000000E+00 -0.19808601206E+04  0.19808601206E+04  0.00000000000E+00 0. -1.
         23    2    1    2    0    0  0.66398939310E+02 -0.47562075247E+03 -0.17030822934E+04  0.17718098870E+04  0.90537605154E+02 0.  0.
         11    1    3    3    0    0 -0.13346721545E+02 -0.13623097889E+03 -0.39407360207E+03  0.41717025114E+03  0.00000000000E+00 0. -1.
        -11    1    3    3    0    0  0.79745660855E+02 -0.33938977358E+03 -0.13090086914E+04  0.13546396358E+04  0.00000000000E+00 0.  1.
         22    1    1    2    0    0 -0.66398939310E+02  0.47562075247E+03 -0.65501992003E+01  0.48027786169E+03  0.00000000000E+00 0.  1.
<mgrwt>
<rscale>  0 0.14659659E+04</rscale>
<asrwt>0</asrwt>
<pdfrwt beam="1">  1        2 0.30474772E+00 0.14659659E+04</pdfrwt>
<pdfrwt beam="2">  1       -2 0.41727326E-01 0.14659659E+04</pdfrwt>
<totfact> 0.36108270E+01</totfact>
</mgrwt>
</event>
<event>
 6    1  0.1568961E-005  0.1653782E+04  0.7818608E-02  0.8788172E-01
          1   -1    0    0  501    0  0.00000000000E+00  0.00000000000E+00  0.13593674358E+04  0.13593674358E+04  0.00000000000E+00 0. -1.
         -1   -1    0    0    0  501 -0.00000000000E+00 -0.00000000000E+00 -0.50299060226E+03  0.50299060226E+03  0.00000000000E+00 0.  1.
         23    2    1    2    0    0 -0.42378795124E+03 -0.60925603760E+03  0.83366923226E+03  0.11198590265E+04  0.91053300638E+02 0.  0.
         11    1    3    3    0    0 -0.88854716978E+02 -0.81255816788E+02  0.16662932886E+03  0.20557967246E+03  0.00000000000E+00 0. -1.
        -11    1    3    3    0    0 -0.33493323426E+03 -0.52800022081E+03  0.66703990340E+03  0.91427935409E+03  0.00000000000E+00 0.  1.
         22    1    1    2    0    0  0.42378795124E+03  0.60925603760E+03  0.22707601300E+02  0.74249901153E+03  0.00000000000E+00 0.  1.
<mgrwt>
<rscale>  0 0.16537824E+04</rscale>
<asrwt>0</asrwt>
<pdfrwt beam="1">  1        1 0.20913345E+00 0.16537824E+04</pdfrwt>
<pdfrwt beam="2">  1       -1 0.77383170E-01 0.16537824E+04</pdfrwt>
<totfact> 0.13124540E+01</totfact>
</mgrwt>
</event>
<event>
 6    1  0.1568961E-005  0.2039316E+04  0.7818608E-02  0.8588457E-01
         -1   -1    0    0    0  501 -0.00000000000E+00  0.00000000000E+00  0.12749723042E+04  0.12749723042E+04  0.00000000000E+00 0.  1.
          1   -1    0    0  501    0  0.00000000000E+00 -0.00000000000E+00 -0.81547061941E+03  0.81547061941E+03  0.00000000000E+00 0. -1.
         23    2    1    2    0    0  0.66234317003E+03  0.69453894305E+03 -0.11654131063E+03  0.97110903648E+03  0.91586381860E+02 0.  0.
         11    1    3    3    0    0  0.43471541172E+03  0.40804338595E+03 -0.10218479192E+03  0.60491208097E+03  0.00000000000E+00 0. -1.
        -11    1    3    3    0    0  0.22762775831E+03  0.28649555711E+03 -0.14356518716E+02  0.36619695551E+03  0.00000000000E+00 0.  1.
         22    1    1    2    0    0 -0.66234317003E+03 -0.69453894305E+03  0.57604299542E+03  0.11193338871E+04  0.00000000000E+00 0.  1.
<mgrwt>
<rscale>  0 0.20393160E+04</rscale>
<asrwt>0</asrwt>
<pdfrwt beam="1">  1        1 0.12545702E+00 0.20393160E+04</pdfrwt>
<pdfrwt beam="2">  1       -1 0.19614959E+00 0.20393160E+04</pdfrwt>
<totfact> 0.31713353E+00</totfact>
</mgrwt>
</event>
<event>
 6    1  0.1568961E-005  0.2141897E+04  0.7818608E-02  0.8543009E-01
         -1   -1    0    0    0  501 -0.00000000000E+00  0.00000000000E+00  0.91247384363E+03  0.91247384363E+03  0.00000000000E+00 0.  1.
          1   -1    0    0  501    0  0.00000000000E+00 -0.00000000000E+00 -0.12569464515E+04  0.12569464515E+04  0.00000000000E+00 0. -1.
         23    2    1    2    0    0 -0.49904546033E+03 -0.53439243859E+03 -0.96234694688E+03  0.12121375006E+04  0.92433890827E+02 0.  0.
         13    1    3    3    0    0 -0.35640223923E+03 -0.40961093695E+03 -0.65169987502E+03  0.84824312723E+03  0.00000000000E+00 0.  1.
        -13    1    3    3    0    0 -0.14264322111E+03 -0.12478150164E+03 -0.31064707186E+03  0.36389437332E+03  0.00000000000E+00 0. -1.
         22    1    1    2    0    0  0.49904546033E+03  0.53439243859E+03  0.61787433904E+03  0.95728279455E+03  0.00000000000E+00 0.  1.
<mgrwt>
<rscale>  0 0.21418971E+04</rscale>
<asrwt>0</asrwt>
<pdfrwt beam="1">  1        1 0.19337638E+00 0.21418971E+04</pdfrwt>
<pdfrwt beam="2">  1       -1 0.14038059E+00 0.21418971E+04</pdfrwt>
<totfact> 0.37048819E+00</totfact>
</mgrwt>
</event>
<event>
 6    1  0.1568961E-005  0.5075462E+04  0.7818608E-02  0.7816971E-01
         -1   -1    0    0    0  501 -0.00000000000E+00  0.00000000000E+00  0.24921696323E+04  0.24921696323E+04  0.00000000000E+00 0.  1.
          1   -1    0    0  501    0  0.00000000000E+00 -0.00000000000E+00 -0.25841253654E+04  0.25841253654E+04  0.00000000000E+00 0. -1.
         23    2    1    2    0    0  0.10509674459E+04  0.16559680022E+04  0.15633942123E+04  0.25097903634E+04  0.89908889917E+02 0.  0.
         13    1    3    3    0    0  0.70827087808E+03  0.10378510178E+04  0.10138891193E+04  0.16145443686E+04  0.00000000000E+00 0.  1.
        -13    1    3    3    0    0  0.34269656785E+03  0.61811698438E+03  0.54950509303E+03  0.89524599483E+03  0.00000000000E+00 0. -1.
         22    1    1    2    0    0 -0.10509674459E+04 -0.16559680022E+04 -0.16553499454E+04  0.25665046344E+04  0.00000000000E+00 0. -1.
<mgrwt>
<rscale>  0 0.50754621E+04</rscale>
<asrwt>0</asrwt>
<pdfrwt beam="1">  1        1 0.39755775E+00 0.50754621E+04</pdfrwt>
<pdfrwt beam="2">  1       -1 0.38341071E+00 0.50754621E+04</pdfrwt>
<totfact> 0.78841479E-03</totfact>
</mgrwt>
</event>
<event>
 6    1  0.1568961E-005  0.2646447E+04  0.7818608E-02  0.8352593E-01
          2   -1    0    0  501    0  0.00000000000E+00  0.00000000000E+00  0.26450202271E+04  0.26450202271E+04  0.00000000000E+00 0. -1.
         -2   -1    0    0    0  501 -0.00000000000E+00 -0.00000000000E+00 -0.66196880806E+03  0.66196880806E+03  0.00000000000E+00 0.  1.
         23    2    1    2    0    0  0.86514515888E+03 -0.98534407789E+03  0.11993221766E+04  0.17793730418E+04  0.91736801269E+02 0.  0.
         13    1    3    3    0    0  0.43861191261E+03 -0.43050481136E+03  0.55475550911E+03  0.82793023702E+03  0.00000000000E+00 0. -1.
        -13    1    3    3    0    0  0.42653324627E+03 -0.55483926653E+03  0.64456666747E+03  0.95144280473E+03  0.00000000000E+00 0.  1.
         22    1    1    2    0    0 -0.86514515888E+03  0.98534407789E+03  0.78372924242E+03  0.15276159934E+04  0.00000000000E+00 0.  1.
<mgrwt>
<rscale>  0 0.26464473E+04</rscale>
<asrwt>0</asrwt>
<pdfrwt beam="1">  1        2 0.40692618E+00 0.26464473E+04</pdfrwt>
<pdfrwt beam="2">  1       -2 0.10184136E+00 0.26464473E+04</pdfrwt>
<totfact> 0.19945792E+00</totfact>
</mgrwt>
</event>
<event>
 6    1  0.1650902E-005  0.2876793E+04  0.7818608E-02  0.8279816E-01
          2   -1    0    0  501    0  0.00000000000E+00  0.00000000000E+00  0.17302582701E+04  0.17302582701E+04  0.00000000000E+00 0. -1.
         -2   -1    0    0    0  501 -0.00000000000E+00 -0.00000000000E+00 -0.11957659046E+04  0.11957659046E+04  0.00000000000E+00 0.  1.
         23    2    1    2    0    0 -0.84437238687E+03 -0.53020504219E+03 -0.78492391612E+03  0.12722583391E+04  0.91943530910E+02 0.  0.
         11    1    3    3    0    0 -0.61678324701E+03 -0.33770814417E+03 -0.55249622302E+03  0.89427089905E+03  0.00000000000E+00 0. -1.
        -11    1    3    3    0    0 -0.22758913986E+03 -0.19249689801E+03 -0.23242769310E+03  0.37798744007E+03  0.00000000000E+00 0.  1.
         22    1    1    2    0    0  0.84437238687E+03  0.53020504219E+03  0.13194162816E+04  0.16537658355E+04  0.00000000000E+00 0. -1.
<mgrwt>
<rscale>  0 0.28767926E+04</rscale>
<asrwt>0</asrwt>
<pdfrwt beam="1">  1        2 0.26619358E+00 0.28767926E+04</pdfrwt>
<pdfrwt beam="2">  1       -2 0.18396398E+00 0.28767926E+04</pdfrwt>
<totfact> 0.13894476E+00</totfact>
</mgrwt>
</event>
<event>
 6    1  0.1568961E-005  0.1550158E+04  0.7818608E-02  0.8851767E-01
          2   -1    0    0  501    0  0.00000000000E+00  0.00000000000E+00  0.38856296652E+04  0.38856296652E+04  0.00000000000E+00 0. -1.
         -2   -1    0    0    0  501 -0.00000000000E+00 -0.00000000000E+00 -0.15460746946E+03  0.15460746946E+03  0.00000000000E+00 0.  1.
         23    2    1    2    0    0  0.59065294184E+03  0.21539740276E+02  0.57031233794E+03  0.82474002483E+03  0.74867133166E+02 0.  0.
         11    1    3    3    0    0  0.36267689863E+02 -0.16950622043E+02  0.39811498991E+02  0.56459050360E+02  0.00000000000E+00 0. -1.
        -11    1    3    3    0    0  0.55438525198E+03  0.38490362319E+02  0.53050083895E+03  0.76828097447E+03  0.00000000000E+00 0.  1.
         22    1    1    2    0    0 -0.59065294184E+03 -0.21539740276E+02  0.31607098578E+04  0.32154971099E+04  0.00000000000E+00 0. -1.
<mgrwt>
<rscale>  0 0.15501579E+04</rscale>
<asrwt>0</asrwt>
<pdfrwt beam="1">  1        2 0.59778911E+00 0.15501579E+04</pdfrwt>
<pdfrwt beam="2">  1       -2 0.23785767E-01 0.15501579E+04</pdfrwt>
<totfact> 0.65007367E+00</totfact>
</mgrwt>
</event>
<event>
 6    1  0.1631107E-005  0.2603458E+04  0.7818608E-02  0.8367028E-01
         -2   -1    0    0    0  501 -0.00000000000E+00  0.00000000000E+00  0.11831518827E+04  0.11831518827E+04  0.00000000000E+00 0.  1.
          2   -1    0    0  501    0  0.00000000000E+00 -0.00000000000E+00 -0.14321897190E+04  0.14321897190E+04  0.00000000000E+00 0. -1.
         23    2    1    2    0    0 -0.75611904345E+01 -0.85720591426E+03  0.85727358364E+03  0.12157759159E+04  0.91290357514E+02 0.  0.
         11    1    3    3    0    0 -0.10623848499E+02 -0.80975993371E+03  0.77593565382E+03  0.11215614808E+04  0.00000000000E+00 0.  1.
        -11    1    3    3    0    0  0.30626580641E+01 -0.47445980550E+02  0.81337929822E+02  0.94214435054E+02  0.00000000000E+00 0. -1.
         22    1    1    2    0    0  0.75611904345E+01  0.85720591426E+03 -0.11063114200E+04  0.13995656858E+04  0.00000000000E+00 0. -1.
<mgrwt>
<rscale>  0 0.26034577E+04</rscale>
<asrwt>0</asrwt>
<pdfrwt beam="1">  1        2 0.22033688E+00 0.26034577E+04</pdfrwt>
<pdfrwt beam="2">  1       -2 0.18202337E+00 0.26034577E+04</pdfrwt>
<totfact> 0.21540608E+00</totfact>
</mgrwt>
</event>
<event>
 6    1  0.1568961E-005  0.3212373E+04  0.7818608E-02  0.8185557E-01
          1   -1    0    0  501    0  0.00000000000E+00  0.00000000000E+00  0.12017250621E+04  0.12017250621E+04  0.00000000000E+00 0. -1.
         -1   -1    0    0    0  501 -0.00000000000E+00 -0.00000000000E+00 -0.21467759862E+04  0.21467759862E+04  0.00000000000E+00 0.  1.
         23    2    1    2    0    0 -0.35947346367E+03  0.15629775498E+04 -0.41087460646E+03  0.16580974483E+04  0.91374030616E+02 0.  0.
         13    1    3    3    0    0 -0.31940573203E+03  0.12431223353E+04 -0.31127789182E+03  0.13207070410E+04  0.00000000000E+00 0.  1.
        -13    1    3    3    0    0 -0.40067731647E+02  0.31985521455E+03 -0.99596714640E+02  0.33739040734E+03  0.00000000000E+00 0. -1.
         22    1    1    2    0    0  0.35947346367E+03 -0.15629775498E+04 -0.53417631760E+03  0.16904035999E+04  0.00000000000E+00 0.  1.
<mgrwt>
<rscale>  0 0.32123726E+04</rscale>
<asrwt>0</asrwt>
<pdfrwt beam="1">  1        1 0.18488078E+00 0.32123726E+04</pdfrwt>
<pdfrwt beam="2">  1       -1 0.33027323E+00 0.32123726E+04</pdfrwt>
<totfact> 0.18663297E-01</totfact>
</mgrwt>
</event>
<event>
 6    1  0.1568961E-005  0.4008429E+04  0.7818608E-02  0.8002848E-01
         -1   -1    0    0    0  501 -0.00000000000E+00  0.00000000000E+00  0.14318947485E+04  0.14318947485E+04  0.00000000000E+00 0.  1.
          1   -1    0    0  501    0  0.00000000000E+00 -0.00000000000E+00 -0.28052870268E+04  0.28052870268E+04  0.00000000000E+00 0. -1.
         23    2    1    2    0    0 -0.19412966862E+04 -0.94885816414E+02 -0.17514790431E+03  0.19538890386E+04  0.96795891937E+02 0.  0.
         13    1    3    3    0    0 -0.16193396210E+04 -0.91004379629E+02 -0.18015528305E+03  0.16318696429E+04  0.00000000000E+00 0.  1.
        -13    1    3    3    0    0 -0.32195706516E+03 -0.38814367859E+01  0.50073787427E+01  0.32201939569E+03  0.00000000000E+00 0. -1.
         22    1    1    2    0    0  0.19412966862E+04  0.94885816414E+02 -0.11982443739E+04  0.22832927367E+04  0.00000000000E+00 0. -1.
<mgrwt>
<rscale>  0 0.40084290E+04</rscale>
<asrwt>0</asrwt>
<pdfrwt beam="1">  1        1 0.43158262E+00 0.40084290E+04</pdfrwt>
<pdfrwt beam="2">  1       -1 0.22029150E+00 0.40084290E+04</pdfrwt>
<totfact> 0.70774445E-02</totfact>
</mgrwt>
</event>
<event>
 6    1  0.1568961E-005  0.2307765E+04  0.7818608E-02  0.8474866E-01
          2   -1    0    0  501    0  0.00000000000E+00  0.00000000000E+00  0.22868772896E+04  0.22868772896E+04  0.00000000000E+00 0. -1.
         -2   -1    0    0    0  501 -0.00000000000E+00 -0.00000000000E+00 -0.58221108048E+03  0.58221108048E+03  0.00000000000E+00 0.  1.
         23    2    1    2    0    0 -0.91584116133E+03  0.69687122886E+03  0.91779768721E+03  0.14749733773E+04  0.93804725718E+02 0.  0.
         11    1    3    3    0    0 -0.18747231112E+03  0.12207160401E+03  0.22239693966E+03  0.31544847870E+03  0.00000000000E+00 0. -1.
        -11    1    3    3    0    0 -0.72836885021E+03  0.57479962485E+03  0.69540074755E+03  0.11595248986E+04  0.00000000000E+00 0.  1.
         22    1    1    2    0    0  0.91584116133E+03 -0.69687122886E+03  0.78686852185E+03  0.13941149928E+04  0.00000000000E+00 0.  1.
<mgrwt>
<rscale>  0 0.23077654E+04</rscale>
<asrwt>0</asrwt>
<pdfrwt beam="1">  1        2 0.35182727E+00 0.23077654E+04</pdfrwt>
<pdfrwt beam="2">  1       -2 0.89570936E-01 0.23077654E+04</pdfrwt>
<totfact> 0.44644453E+00</totfact>
</mgrwt>
</event>
<event>
 6    1  0.1568961E-005  0.2363729E+04  0.7818608E-02  0.8453209E-01
         -1   -1    0    0    0  501 -0.00000000000E+00  0.00000000000E+00  0.11864180912E+04  0.11864180912E+04  0.00000000000E+00 0.  1.
          1   -1    0    0  501    0  0.00000000000E+00 -0.00000000000E+00 -0.11773288429E+04  0.11773288429E+04  0.00000000000E+00 0. -1.
         23    2    1    2    0    0 -0.63994700379E+03 -0.51559368351E+03 -0.84178677887E+03  0.11808018687E+04  0.10158276431E+03 0.  0.
         11    1    3    3    0    0 -0.37509750899E+03 -0.28256292071E+03 -0.41157429461E+03  0.62444643116E+03  0.00000000000E+00 0. -1.
        -11    1    3    3    0    0 -0.26484949481E+03 -0.23303076279E+03 -0.43021248426E+03  0.55635543757E+03  0.00000000000E+00 0.  1.
         22    1    1    2    0    0  0.63994700379E+03  0.51559368351E+03  0.85087602716E+03  0.11829450654E+04  0.00000000000E+00 0.  1.
<mgrwt>
<rscale>  0 0.23637295E+04</rscale>
<asrwt>0</asrwt>
<pdfrwt beam="1">  1        1 0.18112752E+00 0.23637295E+04</pdfrwt>
<pdfrwt beam="2">  1       -1 0.18252586E+00 0.23637295E+04</pdfrwt>
<totfact> 0.19924514E+00</totfact>
</mgrwt>
</event>
<event>
 6    1  0.1568961E-005  0.3181368E+04  0.7818608E-02  0.8193755E-01
         -2   -1    0    0    0  501 -0.00000000000E+00  0.00000000000E+00  0.61577380788E+03  0.61577380788E+03  0.00000000000E+00 0. -1.
          2   -1    0    0  501    0  0.00000000000E+00 -0.00000000000E+00 -0.41090985932E+04  0.41090985932E+04  0.00000000000E+00 0.  1.
         23    2    1    2    0    0  0.74378549651E+03 -0.14028828407E+04 -0.16455381796E+04  0.22885611587E+04  0.91755909374E+02 0.  0.
         13    1    3    3    0    0  0.64000473181E+03 -0.12627002864E+04 -0.14475165591E+04  0.20246783099E+04  0.00000000000E+00 0. -1.
        -13    1    3    3    0    0  0.10378076471E+03 -0.14018255434E+03 -0.19802162052E+03  0.26388284874E+03  0.00000000000E+00 0.  1.
         22    1    1    2    0    0 -0.74378549651E+03  0.14028828407E+04 -0.18477866057E+04  0.24363112424E+04  0.00000000000E+00 0.  1.
<mgrwt>
<rscale>  0 0.31813678E+04</rscale>
<asrwt>0</asrwt>
<pdfrwt beam="1">  1        2 0.63216899E+00 0.31813678E+04</pdfrwt>
<pdfrwt beam="2">  1       -2 0.94734436E-01 0.31813678E+04</pdfrwt>
<totfact> 0.21962062E-01</totfact>
</mgrwt>
</event>
<event>
 6    1  0.1568961E-005  0.2196863E+04  0.7818608E-02  0.8519735E-01
         -2   -1    0    0    0  501 -0.00000000000E+00  0.00000000000E+00  0.68762097610E+03  0.68762097610E+03  0.00000000000E+00 0.  1.
          2   -1    0    0  501    0  0.00000000000E+00 -0.00000000000E+00 -0.17546759143E+04  0.17546759143E+04  0.00000000000E+00 0. -1.
         23    2    1    2    0    0 -0.39210664189E+03  0.79404274404E+03 -0.12533568841E+04  0.15373328508E+04  0.90759668573E+02 0.  0.
         13    1    3    3    0    0 -0.27409088324E+03  0.59181472598E+03 -0.85649425905E+03  0.10765467468E+04  0.00000000000E+00 0. -1.
        -13    1    3    3    0    0 -0.11801575865E+03  0.20222801806E+03 -0.39686262501E+03  0.46078610407E+03  0.00000000000E+00 0.  1.
         22    1    1    2    0    0  0.39210664189E+03 -0.79404274404E+03  0.18630194581E+03  0.90496403962E+03  0.00000000000E+00 0.  1.
<mgrwt>
<rscale>  0 0.21968632E+04</rscale>
<asrwt>0</asrwt>
<pdfrwt beam="1">  1        2 0.26995014E+00 0.21968632E+04</pdfrwt>
<pdfrwt beam="2">  1       -2 0.10578784E+00 0.21968632E+04</pdfrwt>
<totfact> 0.60360269E+00</totfact>
</mgrwt>
</event>
<event>
 6    1  0.1568961E-005  0.7787945E+03  0.7818608E-02  0.9591229E-01
          3   -1    0    0  501    0  0.00000000000E+00  0.00000000000E+00  0.94041468656E+02  0.94041468656E+02  0.00000000000E+00 0. -1.
         -3   -1    0    0    0  501 -0.00000000000E+00 -0.00000000000E+00 -0.16123761400E+04  0.16123761400E+04  0.00000000000E+00 0.  1.
         23    2    1    2    0    0  0.12490128135E+03  0.33577006915E+03 -0.10725702797E+04  0.11345367100E+04  0.91786011581E+02 0.  0.
         13    1    3    3    0    0  0.94444252633E+02  0.23043652227E+03 -0.86027984025E+03  0.89560153595E+03  0.00000000000E+00 0.  1.
        -13    1    3    3    0    0  0.30457028721E+02  0.10533354688E+03 -0.21229043947E+03  0.23893517403E+03  0.00000000000E+00 0. -1.
         22    1    1    2    0    0 -0.12490128135E+03 -0.33577006915E+03 -0.44576439158E+03  0.57188089863E+03  0.00000000000E+00 0. -1.
<mgrwt>
<rscale>  0 0.77879450E+03</rscale>
<asrwt>0</asrwt>
<pdfrwt beam="1">  1        3 0.14467918E-01 0.77879450E+03</pdfrwt>
<pdfrwt beam="2">  1       -3 0.24805787E+00 0.77879450E+03</pdfrwt>
<totfact> 0.81908594E+00</totfact>
</mgrwt>
</event>
<event>
 6    1  0.1568961E-005  0.1306452E+04  0.7818608E-02  0.9024464E-01
          2   -1    0    0  501    0  0.00000000000E+00  0.00000000000E+00  0.17931431943E+04  0.17931431943E+04  0.00000000000E+00 0. -1.
         -2   -1    0    0    0  501 -0.00000000000E+00 -0.00000000000E+00 -0.23796454117E+03  0.23796454117E+03  0.00000000000E+00 0.  1.
         23    2    1    2    0    0  0.15643138003E+03  0.59869340690E+03  0.10905352170E+04  0.12572872816E+04  0.92734442139E+02 0.  0.
         13    1    3    3    0    0 -0.25163533750E+01  0.96249384628E+02  0.21157949196E+03  0.23245678630E+03  0.00000000000E+00 0.  1.
        -13    1    3    3    0    0  0.15894773340E+03  0.50244402227E+03  0.87895572508E+03  0.10248304953E+04  0.00000000000E+00 0. -1.
         22    1    1    2    0    0 -0.15643138003E+03 -0.59869340690E+03  0.46464343608E+03  0.77382045386E+03  0.00000000000E+00 0.  1.
<mgrwt>
<rscale>  0 0.13064524E+04</rscale>
<asrwt>0</asrwt>
<pdfrwt beam="1">  1        2 0.27586817E+00 0.13064524E+04</pdfrwt>
<pdfrwt beam="2">  1       -2 0.36609931E-01 0.13064524E+04</pdfrwt>
<totfact> 0.59925952E+01</totfact>
</mgrwt>
</event>
<event>
 6    1  0.1568961E-005  0.2737365E+04  0.7818608E-02  0.8322982E-01
         -2   -1    0    0    0  501 -0.00000000000E+00  0.00000000000E+00  0.58813295014E+03  0.58813295014E+03  0.00000000000E+00 0.  1.
          2   -1    0    0  501    0  0.00000000000E+00 -0.00000000000E+00 -0.31851511151E+04  0.31851511151E+04  0.00000000000E+00 0. -1.
         23    2    1    2    0    0 -0.60008378690E+03  0.52270488919E+03 -0.28323410609E+04  0.29434058707E+04  0.90339815670E+02 0.  0.
         11    1    3    3    0    0 -0.73147166294E+02  0.28513455405E+02 -0.27748747170E+03  0.28837964912E+03  0.00000000000E+00 0. -1.
        -11    1    3    3    0    0 -0.52693662061E+03  0.49419143379E+03 -0.25548535892E+04  0.26550262216E+04  0.00000000000E+00 0.  1.
         22    1    1    2    0    0  0.60008378690E+03 -0.52270488919E+03  0.23532289586E+03  0.82987819456E+03  0.00000000000E+00 0.  1.
<mgrwt>
<rscale>  0 0.27373654E+04</rscale>
<asrwt>0</asrwt>
<pdfrwt beam="1">  1        2 0.49002324E+00 0.27373654E+04</pdfrwt>
<pdfrwt beam="2">  1       -2 0.90481994E-01 0.27373654E+04</pdfrwt>
<totfact> 0.12102881E+00</totfact>
</mgrwt>
</event>
<event>
 6    1  0.1568961E-005  0.2016194E+04  0.7818608E-02  0.8599087E-01
          1   -1    0    0  501    0  0.00000000000E+00  0.00000000000E+00  0.72693075978E+03  0.72693075978E+03  0.00000000000E+00 0. -1.
         -1   -1    0    0    0  501 -0.00000000000E+00 -0.00000000000E+00 -0.13980145086E+04  0.13980145086E+04  0.00000000000E+00 0.  1.
         23    2    1    2    0    0 -0.16310773401E+03  0.56203867693E+03  0.52606189164E+03  0.79241035637E+03  0.93174308674E+02 0.  0.
         13    1    3    3    0    0 -0.91455841706E+02  0.16424538375E+03  0.18089396694E+03  0.26088952516E+03  0.00000000000E+00 0. -1.
        -13    1    3    3    0    0 -0.71651892299E+02  0.39779329318E+03  0.34516792470E+03  0.53152083121E+03  0.00000000000E+00 0.  1.
         22    1    1    2    0    0  0.16310773401E+03 -0.56203867693E+03 -0.11971456405E+04  0.13325349120E+04  0.00000000000E+00 0.  1.
<mgrwt>
<rscale>  0 0.20161942E+04</rscale>
<asrwt>0</asrwt>
<pdfrwt beam="1">  1        1 0.11183550E+00 0.20161942E+04</pdfrwt>
<pdfrwt beam="2">  1       -1 0.21507915E+00 0.20161942E+04</pdfrwt>
<totfact> 0.28283774E+00</totfact>
</mgrwt>
</event>
<event>
 6    1  0.1568961E-005  0.1620456E+04  0.7818608E-02  0.8808079E-01
         -2   -1    0    0    0  501 -0.00000000000E+00  0.00000000000E+00  0.20341204395E+03  0.20341204395E+03  0.00000000000E+00 0.  1.
          2   -1    0    0  501    0  0.00000000000E+00 -0.00000000000E+00 -0.32272873086E+04  0.32272873086E+04  0.00000000000E+00 0. -1.
         23    2    1    2    0    0  0.37404049121E+03  0.61384224923E+03 -0.22963716934E+04  0.24079725845E+04  0.91106625471E+02 0.  0.
         11    1    3    3    0    0  0.17602228167E+03  0.22517690885E+03 -0.81177318728E+03  0.86061849359E+03  0.00000000000E+00 0.  1.
        -11    1    3    3    0    0  0.19801820954E+03  0.38866534038E+03 -0.14845985062E+04  0.15473540909E+04  0.00000000000E+00 0. -1.
         22    1    1    2    0    0 -0.37404049121E+03 -0.61384224923E+03 -0.72750357123E+03  0.10227267681E+04  0.00000000000E+00 0.  1.
<mgrwt>
<rscale>  0 0.16204556E+04</rscale>
<asrwt>0</asrwt>
<pdfrwt beam="1">  1        2 0.49650575E+00 0.16204556E+04</pdfrwt>
<pdfrwt beam="2">  1       -2 0.31294160E-01 0.16204556E+04</pdfrwt>
<totfact> 0.11379660E+01</totfact>
</mgrwt>
</event>
<event>
 6    1  0.1568961E-005  0.2835148E+04  0.7818608E-02  0.8292439E-01
         -1   -1    0    0    0  501 -0.00000000000E+00  0.00000000000E+00  0.72463343942E+03  0.72463343942E+03  0.00000000000E+00 0.  1.
          1   -1    0    0  501    0  0.00000000000E+00 -0.00000000000E+00 -0.27731484161E+04  0.27731484161E+04  0.00000000000E+00 0. -1.
         23    2    1    2    0    0  0.20384826273E+02  0.69682091396E+03 -0.25460781922E+04  0.26413099759E+04  0.89606363637E+02 0.  0.
         11    1    3    3    0    0  0.31250248482E+02  0.18170206551E+03 -0.78847768116E+03  0.80974642471E+03  0.00000000000E+00 0.  1.
        -11    1    3    3    0    0 -0.10865422209E+02  0.51511884845E+03 -0.17576005111E+04  0.18315635511E+04  0.00000000000E+00 0. -1.
         22    1    1    2    0    0 -0.20384826273E+02 -0.69682091396E+03  0.49756321551E+03  0.85647187969E+03  0.00000000000E+00 0.  1.
<mgrwt>
<rscale>  0 0.28351480E+04</rscale>
<asrwt>0</asrwt>
<pdfrwt beam="1">  1        1 0.42663822E+00 0.28351480E+04</pdfrwt>
<pdfrwt beam="2">  1       -1 0.11148207E+00 0.28351480E+04</pdfrwt>
<totfact> 0.55544365E-01</totfact>
</mgrwt>
</event>
<event>
 6    1  0.1568961E-005  0.2408552E+04  0.7818608E-02  0.8436309E-01
         -1   -1    0    0    0  501 -0.00000000000E+00  0.00000000000E+00  0.67679294540E+03  0.67679294540E+03  0.00000000000E+00 0.  1.
          1   -1    0    0  501    0  0.00000000000E+00 -0.00000000000E+00 -0.21428727977E+04  0.21428727977E+04  0.00000000000E+00 0. -1.
         23    2    1    2    0    0 -0.26763132035E+02  0.11892416946E+04 -0.94069025291E+03  0.15192633805E+04  0.90834982803E+02 0.  0.
         13    1    3    3    0    0 -0.45826236758E+02  0.57882330954E+03 -0.49849238781E+03  0.76526539733E+03  0.00000000000E+00 0. -1.
        -13    1    3    3    0    0  0.19063104723E+02  0.61041838507E+03 -0.44219786511E+03  0.75399798322E+03  0.00000000000E+00 0.  1.
         22    1    1    2    0    0  0.26763132035E+02 -0.11892416946E+04 -0.52538959943E+03  0.13004023626E+04  0.00000000000E+00 0.  1.
<mgrwt>
<rscale>  0 0.24085524E+04</rscale>
<asrwt>0</asrwt>
<pdfrwt beam="1">  1        1 0.32967274E+00 0.24085524E+04</pdfrwt>
<pdfrwt beam="2">  1       -1 0.10412199E+00 0.24085524E+04</pdfrwt>
<totfact> 0.18520570E+00</totfact>
</mgrwt>
</event>
<event>
 6    1  0.1568961E-005  0.1422296E+04  0.7818608E-02  0.8937836E-01
         -1   -1    0    0    0  501 -0.00000000000E+00  0.00000000000E+00  0.35142519619E+03  0.35142519619E+03  0.00000000000E+00 0.  1.
          1   -1    0    0  501    0  0.00000000000E+00 -0.00000000000E+00 -0.14390871804E+04  0.14390871804E+04  0.00000000000E+00 0. -1.
         23    2    1    2    0    0  0.28642306906E+01  0.56035170206E+03 -0.13476681161E+01  0.56818630423E+03  0.93976732709E+02 0.  0.
         11    1    3    3    0    0 -0.23275575544E+02  0.35256905561E+03 -0.38739746756E+02  0.35545387798E+03  0.00000000000E+00 0.  1.
        -11    1    3    3    0    0  0.26139806235E+02  0.20778264645E+03  0.37392078640E+02  0.21273242625E+03  0.00000000000E+00 0. -1.
         22    1    1    2    0    0 -0.28642306906E+01 -0.56035170206E+03 -0.10863143161E+04  0.12223260723E+04  0.00000000000E+00 0. -1.
<mgrwt>
<rscale>  0 0.14222960E+04</rscale>
<asrwt>0</asrwt>
<pdfrwt beam="1">  1        1 0.22139803E+00 0.14222960E+04</pdfrwt>
<pdfrwt beam="2">  1       -1 0.54065414E-01 0.14222960E+04</pdfrwt>
<totfact> 0.24248146E+01</totfact>
</mgrwt>
</event>
<event>
 6    1  0.1568961E-005  0.1262060E+04  0.7818608E-02  0.9060205E-01
          2   -1    0    0  501    0  0.00000000000E+00  0.00000000000E+00  0.12632240713E+04  0.12632240713E+04  0.00000000000E+00 0. -1.
         -2   -1    0    0    0  501 -0.00000000000E+00 -0.00000000000E+00 -0.31522403318E+03  0.31522403318E+03  0.00000000000E+00 0.  1.
         23    2    1    2    0    0  0.43023541223E+03 -0.32797795126E+03  0.87376729476E+03  0.10323871677E+04  0.98396810047E+02 0.  0.
         11    1    3    3    0    0  0.86972649813E+02 -0.11467196890E+03  0.26762299560E+03  0.30386834327E+03  0.00000000000E+00 0. -1.
        -11    1    3    3    0    0  0.34326276242E+03 -0.21330598236E+03  0.60614429916E+03  0.72851882445E+03  0.00000000000E+00 0.  1.
         22    1    1    2    0    0 -0.43023541223E+03  0.32797795126E+03  0.74232743346E+02  0.54606093674E+03  0.00000000000E+00 0.  1.
<mgrwt>
<rscale>  0 0.12620596E+04</rscale>
<asrwt>0</asrwt>
<pdfrwt beam="1">  1        2 0.19434216E+00 0.12620596E+04</pdfrwt>
<pdfrwt beam="2">  1       -2 0.48496006E-01 0.12620596E+04</pdfrwt>
<totfact> 0.68731648E+01</totfact>
</mgrwt>
</event>
<event>
 6    1  0.1568961E-005  0.2125542E+04  0.7818608E-02  0.8550075E-01
         -1   -1    0    0    0  501 -0.00000000000E+00  0.00000000000E+00  0.14557985775E+04  0.14557985775E+04  0.00000000000E+00 0.  1.
          1   -1    0    0  501    0  0.00000000000E+00 -0.00000000000E+00 -0.77585072399E+03  0.77585072399E+03  0.00000000000E+00 0. -1.
         23    2    1    2    0    0 -0.63345419550E+03  0.64878615296E+03 -0.23736361364E+03  0.94182450027E+03  0.92218296293E+02 0.  0.
         13    1    3    3    0    0 -0.22511341294E+03  0.25154268932E+03 -0.13210746155E+03  0.36249435118E+03  0.00000000000E+00 0.  1.
        -13    1    3    3    0    0 -0.40834078256E+03  0.39724346363E+03 -0.10525615209E+03  0.57933014910E+03  0.00000000000E+00 0. -1.
         22    1    1    2    0    0  0.63345419550E+03 -0.64878615296E+03  0.91731146714E+03  0.12898248012E+04  0.00000000000E+00 0.  1.
<mgrwt>
<rscale>  0 0.21255422E+04</rscale>
<asrwt>0</asrwt>
<pdfrwt beam="1">  1        1 0.11936165E+00 0.21255422E+04</pdfrwt>
<pdfrwt beam="2">  1       -1 0.22396901E+00 0.21255422E+04</pdfrwt>
<totfact> 0.22056072E+00</totfact>
</mgrwt>
</event>
<event>
 6    1  0.1568961E-005  0.1428940E+04  0.7818608E-02  0.8933133E-01
          1   -1    0    0  501    0  0.00000000000E+00  0.00000000000E+00  0.14571405356E+04  0.14571405356E+04  0.00000000000E+00 0. -1.
         -1   -1    0    0    0  501 -0.00000000000E+00 -0.00000000000E+00 -0.35032139620E+03  0.35032139620E+03  0.00000000000E+00 0.  1.
         23    2    1    2    0    0 -0.27843223896E+03  0.48080082964E+03  0.11177839785E+04  0.12517514162E+04  0.93523450519E+02 0.  0.
         11    1    3    3    0    0 -0.20136505232E+03  0.27853834563E+03  0.61881244451E+03  0.70785615472E+03  0.00000000000E+00 0. -1.
        -11    1    3    3    0    0 -0.77067186639E+02  0.20226248400E+03  0.49897153403E+03  0.54389526149E+03  0.00000000000E+00 0.  1.
         22    1    1    2    0    0  0.27843223896E+03 -0.48080082964E+03 -0.10964839113E+02  0.55571051562E+03  0.00000000000E+00 0. -1.
<mgrwt>
<rscale>  0 0.14289402E+04</rscale>
<asrwt>0</asrwt>
<pdfrwt beam="1">  1        1 0.22417546E+00 0.14289402E+04</pdfrwt>
<pdfrwt beam="2">  1       -1 0.53895600E-01 0.14289402E+04</pdfrwt>
<totfact> 0.23685931E+01</totfact>
</mgrwt>
</event>
<event>
 6    1  0.1568961E-005  0.3714664E+04  0.7818608E-02  0.8064720E-01
          1   -1    0    0  501    0  0.00000000000E+00  0.00000000000E+00  0.16038136177E+04  0.16038136177E+04  0.00000000000E+00 0. -1.
         -1   -1    0    0    0  501 -0.00000000000E+00 -0.00000000000E+00 -0.21509248832E+04  0.21509248832E+04  0.00000000000E+00 0.  1.
         23    2    1    2    0    0 -0.83300227448E+03 -0.10781138127E+04  0.10006385422E+04  0.16927608943E+04  0.89105390599E+02 0.  0.
         11    1    3    3    0    0 -0.54444529455E+03 -0.66524368788E+03  0.58637980215E+03  0.10405821041E+04  0.00000000000E+00 0.  1.
        -11    1    3    3    0    0 -0.28855697992E+03 -0.41287012485E+03  0.41425874009E+03  0.65217879020E+03  0.00000000000E+00 0. -1.
         22    1    1    2    0    0  0.83300227448E+03  0.10781138127E+04 -0.15477498078E+04  0.20619776066E+04  0.00000000000E+00 0. -1.
<mgrwt>
<rscale>  0 0.37146642E+04</rscale>
<asrwt>0</asrwt>
<pdfrwt beam="1">  1        1 0.24674056E+00 0.37146642E+04</pdfrwt>
<pdfrwt beam="2">  1       -1 0.33091152E+00 0.37146642E+04</pdfrwt>
<totfact> 0.92261046E-02</totfact>
</mgrwt>
</event>
<event>
 6    1  0.1568961E-005  0.2411702E+04  0.7818608E-02  0.8435135E-01
         -2   -1    0    0    0  501 -0.00000000000E+00  0.00000000000E+00  0.11857359143E+04  0.11857359143E+04  0.00000000000E+00 0.  1.
          2   -1    0    0  501    0  0.00000000000E+00 -0.00000000000E+00 -0.12263077343E+04  0.12263077343E+04  0.00000000000E+00 0. -1.
         23    2    1    2    0    0 -0.85135023837E+03  0.73630082054E+02  0.82814031905E+03  0.11934873726E+04  0.91526515593E+02 0.  0.
         13    1    3    3    0    0 -0.57544019261E+03  0.49407498111E+02  0.49853390732E+03  0.76296040061E+03  0.00000000000E+00 0. -1.
        -13    1    3    3    0    0 -0.27591004576E+03  0.24222583943E+02  0.32960641173E+03  0.43052697195E+03  0.00000000000E+00 0.  1.
         22    1    1    2    0    0  0.85135023837E+03 -0.73630082054E+02 -0.86871213905E+03  0.12185562760E+04  0.00000000000E+00 0. -1.
<mgrwt>
<rscale>  0 0.24117024E+04</rscale>
<asrwt>0</asrwt>
<pdfrwt beam="1">  1        2 0.18866273E+00 0.24117024E+04</pdfrwt>
<pdfrwt beam="2">  1       -2 0.18242091E+00 0.24117024E+04</pdfrwt>
<totfact> 0.28638820E+00</totfact>
</mgrwt>
</event>
<event>
 6    1  0.1568961E-005  0.2379124E+04  0.7818608E-02  0.8447361E-01
          2   -1    0    0  501    0  0.00000000000E+00  0.00000000000E+00  0.73638643570E+03  0.73638643570E+03  0.00000000000E+00 0. -1.
         -2   -1    0    0    0  501 -0.00000000000E+00 -0.00000000000E+00 -0.19216234408E+04  0.19216234408E+04  0.00000000000E+00 0.  1.
         23    2    1    2    0    0  0.14546191433E+03  0.97234784370E+03 -0.13381587976E+04  0.16630201418E+04  0.91364799654E+02 0.  0.
         11    1    3    3    0    0  0.11756395248E+03  0.66370359268E+03 -0.97966045484E+03  0.11891418539E+04  0.00000000000E+00 0.  1.
        -11    1    3    3    0    0  0.27897961857E+02  0.30864425102E+03 -0.35849834278E+03  0.47387828790E+03  0.00000000000E+00 0. -1.
         22    1    1    2    0    0 -0.14546191433E+03 -0.97234784370E+03  0.15292179249E+03  0.99498973476E+03  0.00000000000E+00 0. -1.
<mgrwt>
<rscale>  0 0.23791237E+04</rscale>
<asrwt>0</asrwt>
<pdfrwt beam="1">  1        2 0.11329022E+00 0.23791237E+04</pdfrwt>
<pdfrwt beam="2">  1       -2 0.29563438E+00 0.23791237E+04</pdfrwt>
<totfact> 0.11694351E+00</totfact>
</mgrwt>
</event>
<event>
 6    1  0.1568961E-005  0.1680080E+04  0.7818608E-02  0.8772808E-01
         -1   -1    0    0    0  501 -0.00000000000E+00  0.00000000000E+00  0.18767257132E+04  0.18767257132E+04  0.00000000000E+00 0.  1.
          1   -1    0    0  501    0  0.00000000000E+00 -0.00000000000E+00 -0.37600956350E+03  0.37600956350E+03  0.00000000000E+00 0. -1.
         23    2    1    2    0    0  0.61912612360E+03 -0.32960869874E+03  0.13662088876E+04  0.15385565493E+04  0.93115409151E+02 0.  0.
         11    1    3    3    0    0  0.49233191817E+03 -0.26441470712E+03  0.99976388018E+03  0.11453530771E+04  0.00000000000E+00 0. -1.
        -11    1    3    3    0    0  0.12679420543E+03 -0.65193991621E+02  0.36644500746E+03  0.39320347222E+03  0.00000000000E+00 0.  1.
         22    1    1    2    0    0 -0.61912612360E+03  0.32960869874E+03  0.13450726210E+03  0.71417872747E+03  0.00000000000E+00 0.  1.
<mgrwt>
<rscale>  0 0.16800795E+04</rscale>
<asrwt>0</asrwt>
<pdfrwt beam="1">  1        1 0.57847626E-01 0.16800795E+04</pdfrwt>
<pdfrwt beam="2">  1       -1 0.28872703E+00 0.16800795E+04</pdfrwt>
<totfact> 0.24293651E+00</totfact>
</mgrwt>
</event>
<event>
 6    1  0.1568961E-005  0.9083551E+03  0.7818608E-02  0.9415197E-01
         -2   -1    0    0    0  501 -0.00000000000E+00  0.00000000000E+00  0.24874653983E+03  0.24874653983E+03  0.00000000000E+00 0.  1.
          2   -1    0    0  501    0  0.00000000000E+00 -0.00000000000E+00 -0.82926681056E+03  0.82926681056E+03  0.00000000000E+00 0. -1.
         23    2    1    2    0    0  0.38362522734E+03  0.17154110454E+02 -0.15772727801E+02  0.39507677515E+03  0.91511205672E+02 0.  0.
         11    1    3    3    0    0  0.18207878571E+03 -0.29356118744E+02 -0.33603053164E+02  0.18746634657E+03  0.00000000000E+00 0. -1.
        -11    1    3    3    0    0  0.20154644163E+03  0.46510229197E+02  0.17830325364E+02  0.20761042858E+03  0.00000000000E+00 0.  1.
         22    1    1    2    0    0 -0.38362522734E+03 -0.17154110454E+02 -0.56474754293E+03  0.68293657524E+03  0.00000000000E+00 0. -1.
<mgrwt>
<rscale>  0 0.90835511E+03</rscale>
<asrwt>0</asrwt>
<pdfrwt beam="1">  1        2 0.12757951E+00 0.90835511E+03</pdfrwt>
<pdfrwt beam="2">  1       -2 0.38268699E-01 0.90835511E+03</pdfrwt>
<totfact> 0.21200299E+02</totfact>
</mgrwt>
</event>
<event>
 6    1  0.1568961E-005  0.1260152E+04  0.7818608E-02  0.9061776E-01
          2   -1    0    0  501    0  0.00000000000E+00  0.00000000000E+00  0.19312918161E+03  0.19312918161E+03  0.00000000000E+00 0. -1.
         -2   -1    0    0    0  501 -0.00000000000E+00 -0.00000000000E+00 -0.20555953661E+04  0.20555953661E+04  0.00000000000E+00 0.  1.
         23    2    1    2    0    0 -0.28874857045E+03  0.50151315893E+03 -0.13658292705E+04  0.14861372348E+04  0.90681304500E+02 0.  0.
         13    1    3    3    0    0 -0.12009407500E+03  0.29769285792E+03 -0.76826600342E+03  0.83263213757E+03  0.00000000000E+00 0.  1.
        -13    1    3    3    0    0 -0.16865449545E+03  0.20382030101E+03 -0.59756326706E+03  0.65350509721E+03  0.00000000000E+00 0. -1.
         22    1    1    2    0    0  0.28874857045E+03 -0.50151315893E+03 -0.49663691405E+03  0.76258731297E+03  0.00000000000E+00 0. -1.
<mgrwt>
<rscale>  0 0.12601515E+04</rscale>
<asrwt>0</asrwt>
<pdfrwt beam="1">  1        2 0.29712181E-01 0.12601515E+04</pdfrwt>
<pdfrwt beam="2">  1       -2 0.31624545E+00 0.12601515E+04</pdfrwt>
<totfact> 0.45089331E+00</totfact>
</mgrwt>
</event>
<event>
 6    1  0.1568961E-005  0.6456856E+03  0.7818608E-02  0.9814909E-01
         -1   -1    0    0    0  501 -0.00000000000E+00  0.00000000000E+00  0.65120018526E+02  0.65120018526E+02  0.00000000000E+00 0.  1.
          1   -1    0    0  501    0  0.00000000000E+00 -0.00000000000E+00 -0.16005442009E+04  0.16005442009E+04  0.00000000000E+00 0. -1.
         23    2    1    2    0    0  0.16300627938E+03 -0.20056591110E+03 -0.31206462952E+03  0.41530174103E+03  0.91068497815E+02 0.  0.
         11    1    3    3    0    0  0.11494920695E+03 -0.14596362033E+03 -0.27947437562E+03  0.33559592558E+03  0.00000000000E+00 0.  1.
        -11    1    3    3    0    0  0.48057072424E+02 -0.54602290767E+02 -0.32590253899E+02  0.79705815447E+02  0.00000000000E+00 0. -1.
         22    1    1    2    0    0 -0.16300627938E+03  0.20056591110E+03 -0.12233595529E+04  0.12503624784E+04  0.00000000000E+00 0. -1.
<mgrwt>
<rscale>  0 0.64568558E+03</rscale>
<asrwt>0</asrwt>
<pdfrwt beam="1">  1        1 0.24623757E+00 0.64568558E+03</pdfrwt>
<pdfrwt beam="2">  1       -1 0.10018464E-01 0.64568558E+03</pdfrwt>
<totfact> 0.36022582E+02</totfact>
</mgrwt>
</event>
<event>
 6    1  0.1568961E-005  0.1202415E+04  0.7818608E-02  0.9110745E-01
          1   -1    0    0  501    0  0.00000000000E+00  0.00000000000E+00  0.54160261815E+03  0.54160261815E+03  0.00000000000E+00 0. -1.
         -1   -1    0    0    0  501 -0.00000000000E+00 -0.00000000000E+00 -0.66737231454E+03  0.66737231454E+03  0.00000000000E+00 0.  1.
         23    2    1    2    0    0  0.18396319169E+03 -0.55049886609E+03  0.79742990132E+02  0.59324209957E+03  0.93197568449E+02 0.  0.
         13    1    3    3    0    0  0.16274603454E+02 -0.77329887832E+01  0.10767545099E+02  0.20990518349E+02  0.00000000000E+00 0.  1.
        -13    1    3    3    0    0  0.16768858824E+03 -0.54276587730E+03  0.68975445033E+02  0.57225158122E+03  0.00000000000E+00 0. -1.
         22    1    1    2    0    0 -0.18396319169E+03  0.55049886609E+03 -0.20551268652E+03  0.61573283312E+03  0.00000000000E+00 0.  1.
<mgrwt>
<rscale>  0 0.12024152E+04</rscale>
<asrwt>0</asrwt>
<pdfrwt beam="1">  1        1 0.83323480E-01 0.12024152E+04</pdfrwt>
<pdfrwt beam="2">  1       -1 0.10267266E+00 0.12024152E+04</pdfrwt>
<totfact> 0.35203240E+01</totfact>
</mgrwt>
</event>
<event>
 6    1  0.1568961E-005  0.1303580E+04  0.7818608E-02  0.9026731E-01
          2   -1    0    0  501    0  0.00000000000E+00  0.00000000000E+00  0.18432700698E+04  0.18432700698E+04  0.00000000000E+00 0. -1.
         -2   -1    0    0    0  501 -0.00000000000E+00 -0.00000000000E+00 -0.23047648890E+03  0.23047648890E+03  0.00000000000E+00 0.  1.
         23    2    1    2    0    0 -0.26569237575E+03  0.16312773439E+03 -0.93828920803E+02  0.33887957256E+03  0.93980860077E+02 0.  0.
         13    1    3    3    0    0 -0.25178862027E+03  0.13779135802E+03 -0.57965729941E+02  0.29282075318E+03  0.00000000000E+00 0. -1.
        -13    1    3    3    0    0 -0.13903755472E+02  0.25336376365E+02 -0.35863190862E+02  0.46058819377E+02  0.00000000000E+00 0.  1.
         22    1    1    2    0    0  0.26569237575E+03 -0.16312773439E+03  0.17066225017E+04  0.17348669862E+04  0.00000000000E+00 0. -1.
<mgrwt>
<rscale>  0 0.13035803E+04</rscale>
<asrwt>0</asrwt>
<pdfrwt beam="1">  1        2 0.28358000E+00 0.13035803E+04</pdfrwt>
<pdfrwt beam="2">  1       -2 0.35457923E-01 0.13035803E+04</pdfrwt>
<totfact> 0.59796147E+01</totfact>
</mgrwt>
</event>
<event>
 6    1  0.1568961E-005  0.4381875E+04  0.7818608E-02  0.7931650E-01
          2   -1    0    0  501    0  0.00000000000E+00  0.00000000000E+00  0.18013692950E+04  0.18013692950E+04  0.00000000000E+00 0. -1.
         -2   -1    0    0    0  501 -0.00000000000E+00 -0.00000000000E+00 -0.26647547253E+04  0.26647547253E+04  0.00000000000E+00 0.  1.
         23    2    1    2    0    0  0.11066505660E+04  0.71220909447E+03  0.13522570564E+04  0.18891123985E+04  0.90715146726E+02 0.  0.
         13    1    3    3    0    0  0.41362413903E+03  0.28042370714E+03  0.45342237057E+03  0.67476976077E+03  0.00000000000E+00 0.  1.
        -13    1    3    3    0    0  0.69302642699E+03  0.43178538733E+03  0.89883468587E+03  0.12143426377E+04  0.00000000000E+00 0. -1.
         22    1    1    2    0    0 -0.11066505660E+04 -0.71220909447E+03 -0.22156424868E+04  0.25770116218E+04  0.00000000000E+00 0.  1.
<mgrwt>
<rscale>  0 0.43818751E+04</rscale>
<asrwt>0</asrwt>
<pdfrwt beam="1">  1        2 0.27713374E+00 0.43818751E+04</pdfrwt>
<pdfrwt beam="2">  1       -2 0.40996227E+00 0.43818751E+04</pdfrwt>
<totfact> 0.42077891E-02</totfact>
</mgrwt>
</event>
<event>
 6    1  0.1568961E-005  0.6917247E+03  0.7818608E-02  0.9731490E-01
         -1   -1    0    0    0  501 -0.00000000000E+00  0.00000000000E+00  0.39878955602E+03  0.39878955602E+03  0.00000000000E+00 0.  1.
          1   -1    0    0  501    0  0.00000000000E+00 -0.00000000000E+00 -0.29995964069E+03  0.29995964069E+03  0.00000000000E+00 0. -1.
         23    2    1    2    0    0 -0.97195054367E+02  0.14588897154E+03  0.34400409945E+03  0.39735103618E+03  0.93907161087E+02 0.  0.
         11    1    3    3    0    0 -0.93788868705E+02  0.70075608653E+02  0.15956252858E+03  0.19790690576E+03  0.00000000000E+00 0. -1.
        -11    1    3    3    0    0 -0.34061856620E+01  0.75813362885E+02  0.18444157087E+03  0.19944413042E+03  0.00000000000E+00 0.  1.
         22    1    1    2    0    0  0.97195054367E+02 -0.14588897154E+03 -0.24517418412E+03  0.30139816053E+03  0.00000000000E+00 0. -1.
<mgrwt>
<rscale>  0 0.69172472E+03</rscale>
<asrwt>0</asrwt>
<pdfrwt beam="1">  1        1 0.46147637E-01 0.69172472E+03</pdfrwt>
<pdfrwt beam="2">  1       -1 0.61352239E-01 0.69172472E+03</pdfrwt>
<totfact> 0.23967876E+02</totfact>
</mgrwt>
</event>
<event>
 6    1  0.1568961E-005  0.1943508E+04  0.7818608E-02  0.8633498E-01
         -1   -1    0    0    0  501 -0.00000000000E+00  0.00000000000E+00  0.35296809870E+03  0.35296809870E+03  0.00000000000E+00 0.  1.
          1   -1    0    0  501    0  0.00000000000E+00 -0.00000000000E+00 -0.26753296692E+04  0.26753296692E+04  0.00000000000E+00 0. -1.
         23    2    1    2    0    0  0.68592131429E+03  0.56611094288E+03 -0.56186809032E+03  0.10559116640E+04  0.91016714186E+02 0.  0.
         11    1    3    3    0    0  0.36070402592E+03  0.34108226223E+03 -0.27666196977E+03  0.56831888007E+03  0.00000000000E+00 0. -1.
        -11    1    3    3    0    0  0.32521728837E+03  0.22502868064E+03 -0.28520612055E+03  0.48759278396E+03  0.00000000000E+00 0.  1.
         22    1    1    2    0    0 -0.68592131429E+03 -0.56611094288E+03 -0.17604934802E+04  0.19723861039E+04  0.00000000000E+00 0. -1.
<mgrwt>
<rscale>  0 0.19435082E+04</rscale>
<asrwt>0</asrwt>
<pdfrwt beam="1">  1        1 0.41158918E+00 0.19435082E+04</pdfrwt>
<pdfrwt beam="2">  1       -1 0.54302784E-01 0.19435082E+04</pdfrwt>
<totfact> 0.32646550E+00</totfact>
</mgrwt>
</event>
<event>
 6    1  0.1568961E-005  0.2442495E+04  0.7818608E-02  0.8423763E-01
         -1   -1    0    0    0  501 -0.00000000000E+00  0.00000000000E+00  0.10179084083E+04  0.10179084083E+04  0.00000000000E+00 0.  1.
          1   -1    0    0  501    0  0.00000000000E+00 -0.00000000000E+00 -0.14652062624E+04  0.14652062624E+04  0.00000000000E+00 0. -1.
         23    2    1    2    0    0  0.11324644864E+03 -0.25046919071E+03 -0.14318928115E+04  0.14608687103E+04  0.90888896625E+02 0.  0.
         13    1    3    3    0    0  0.86167493309E+02 -0.14164299013E+03 -0.64234325395E+03  0.66339462573E+03  0.00000000000E+00 0.  1.
        -13    1    3    3    0    0  0.27078955327E+02 -0.10882620059E+03 -0.78954955754E+03  0.79747408457E+03  0.00000000000E+00 0. -1.
         22    1    1    2    0    0 -0.11324644864E+03  0.25046919071E+03  0.98459495732E+03  0.10222459604E+04  0.00000000000E+00 0.  1.
<mgrwt>
<rscale>  0 0.24424953E+04</rscale>
<asrwt>0</asrwt>
<pdfrwt beam="1">  1        1 0.22541635E+00 0.24424953E+04</pdfrwt>
<pdfrwt beam="2">  1       -1 0.15660129E+00 0.24424953E+04</pdfrwt>
<totfact> 0.19157250E+00</totfact>
</mgrwt>
</event>
<event>
 6    1  0.1568961E-005  0.2067915E+04  0.7818608E-02  0.8575510E-01
         -2   -1    0    0    0  501 -0.00000000000E+00  0.00000000000E+00  0.45710474072E+03  0.45710474072E+03  0.00000000000E+00 0.  1.
          2   -1    0    0  501    0  0.00000000000E+00 -0.00000000000E+00 -0.23387818241E+04  0.23387818241E+04  0.00000000000E+00 0. -1.
         23    2    1    2    0    0  0.23969973772E+03  0.78063020819E+03 -0.17958717484E+04  0.19747884941E+04  0.88288014975E+02 0.  0.
         11    1    3    3    0    0  0.11308589856E+03  0.28936704642E+03 -0.59715947549E+03  0.67314273908E+03  0.00000000000E+00 0. -1.
        -11    1    3    3    0    0  0.12661383916E+03  0.49126316177E+03 -0.11987122729E+04  0.13016457551E+04  0.00000000000E+00 0.  1.
         22    1    1    2    0    0 -0.23969973772E+03 -0.78063020819E+03 -0.85805334987E+02  0.82109807071E+03  0.00000000000E+00 0.  1.
<mgrwt>
<rscale>  0 0.20679151E+04</rscale>
<asrwt>0</asrwt>
<pdfrwt beam="1">  1        2 0.35981259E+00 0.20679151E+04</pdfrwt>
<pdfrwt beam="2">  1       -2 0.70323806E-01 0.20679151E+04</pdfrwt>
<totfact> 0.73275830E+00</totfact>
</mgrwt>
</event>
<event>
 6    1  0.1568961E-005  0.1668937E+04  0.7818608E-02  0.8779282E-01
          2   -1    0    0  501    0  0.00000000000E+00  0.00000000000E+00  0.41889204954E+04  0.41889204954E+04  0.00000000000E+00 0. -1.
         -2   -1    0    0    0  501 -0.00000000000E+00 -0.00000000000E+00 -0.16623314351E+03  0.16623314351E+03  0.00000000000E+00 0.  1.
         23    2    1    2    0    0 -0.68782308002E+03 -0.20037681401E+03  0.91342320083E+03  0.11644209616E+04  0.91009752121E+02 0.  0.
         11    1    3    3    0    0 -0.67715447647E+02 -0.17981029414E+02  0.51007884514E+02  0.86663161444E+02  0.00000000000E+00 0.  1.
        -11    1    3    3    0    0 -0.62010763237E+03 -0.18239578459E+03  0.86241531632E+03  0.10777578002E+04  0.00000000000E+00 0. -1.
         22    1    1    2    0    0  0.68782308002E+03  0.20037681401E+03  0.31092641511E+04  0.31907326773E+04  0.00000000000E+00 0. -1.
<mgrwt>
<rscale>  0 0.16689367E+04</rscale>
<asrwt>0</asrwt>
<pdfrwt beam="1">  1        2 0.64444923E+00 0.16689367E+04</pdfrwt>
<pdfrwt beam="2">  1       -2 0.25574333E-01 0.16689367E+04</pdfrwt>
<totfact> 0.31893576E+00</totfact>
</mgrwt>
</event>
<event>
 6    1  0.1568961E-005  0.2009424E+04  0.7818608E-02  0.8602227E-01
         -2   -1    0    0    0  501 -0.00000000000E+00  0.00000000000E+00  0.10227178297E+04  0.10227178297E+04  0.00000000000E+00 0.  1.
          2   -1    0    0  501    0  0.00000000000E+00 -0.00000000000E+00 -0.98702343031E+03  0.98702343031E+03  0.00000000000E+00 0. -1.
         23    2    1    2    0    0 -0.94640242847E+03 -0.66454022349E+02 -0.30638647089E+03  0.10012210492E+04  0.92071853158E+02 0.  0.
         13    1    3    3    0    0 -0.73544867678E+03 -0.89960610674E+02 -0.23788129925E+03  0.77818068608E+03  0.00000000000E+00 0.  1.
        -13    1    3    3    0    0 -0.21095375169E+03  0.23506588325E+02 -0.68505171636E+02  0.22304036314E+03  0.00000000000E+00 0. -1.
         22    1    1    2    0    0  0.94640242847E+03  0.66454022349E+02  0.34208087023E+03  0.10085202107E+04  0.00000000000E+00 0.  1.
<mgrwt>
<rscale>  0 0.20094243E+04</rscale>
<asrwt>0</asrwt>
<pdfrwt beam="1">  1        2 0.15184976E+00 0.20094243E+04</pdfrwt>
<pdfrwt beam="2">  1       -2 0.15734120E+00 0.20094243E+04</pdfrwt>
<totfact> 0.62836890E+00</totfact>
</mgrwt>
</event>
<event>
 6    1  0.1568961E-005  0.3383194E+04  0.7818608E-02  0.8142043E-01
          2   -1    0    0  501    0  0.00000000000E+00  0.00000000000E+00  0.23185204558E+04  0.23185204558E+04  0.00000000000E+00 0. -1.
         -2   -1    0    0    0  501 -0.00000000000E+00 -0.00000000000E+00 -0.12341926178E+04  0.12341926178E+04  0.00000000000E+00 0.  1.
         23    2    1    2    0    0  0.89153937645E+03 -0.81810622328E+03 -0.69707563473E+03  0.13992185682E+04  0.88078990700E+02 0.  0.
         11    1    3    3    0    0  0.23873585210E+03 -0.17834903052E+03 -0.19847609017E+03  0.35804460914E+03  0.00000000000E+00 0.  1.
        -11    1    3    3    0    0  0.65280352434E+03 -0.63975719277E+03 -0.49859954456E+03  0.10411739590E+04  0.00000000000E+00 0. -1.
         22    1    1    2    0    0 -0.89153937645E+03  0.81810622328E+03  0.17814034727E+04  0.21534945054E+04  0.00000000000E+00 0. -1.
<mgrwt>
<rscale>  0 0.33831942E+04</rscale>
<asrwt>0</asrwt>
<pdfrwt beam="1">  1        2 0.35669545E+00 0.33831942E+04</pdfrwt>
<pdfrwt beam="2">  1       -2 0.18987579E+00 0.33831942E+04</pdfrwt>
<totfact> 0.57007014E-01</totfact>
</mgrwt>
</event>
<event>
 6    1  0.1568961E-005  0.4076764E+04  0.7818608E-02  0.7989237E-01
          1   -1    0    0  501    0  0.00000000000E+00  0.00000000000E+00  0.26326749430E+04  0.26326749430E+04  0.00000000000E+00 0. -1.
         -1   -1    0    0    0  501 -0.00000000000E+00 -0.00000000000E+00 -0.15782433915E+04  0.15782433915E+04  0.00000000000E+00 0.  1.
         23    2    1    2    0    0  0.39118007608E+03  0.11539891855E+04  0.22140313760E+04  0.25288408556E+04  0.91587373127E+02 0.  0.
         11    1    3    3    0    0  0.19840103299E+03  0.61145201948E+03  0.12606283303E+04  0.14150690192E+04  0.00000000000E+00 0. -1.
        -11    1    3    3    0    0  0.19277904309E+03  0.54253716606E+03  0.95340304567E+03  0.11137718364E+04  0.00000000000E+00 0.  1.
         22    1    1    2    0    0 -0.39118007608E+03 -0.11539891855E+04 -0.11595998244E+04  0.16820774789E+04  0.00000000000E+00 0.  1.
<mgrwt>
<rscale>  0 0.40767643E+04</rscale>
<asrwt>0</asrwt>
<pdfrwt beam="1">  1        1 0.40502691E+00 0.40767643E+04</pdfrwt>
<pdfrwt beam="2">  1       -1 0.24280668E+00 0.40767643E+04</pdfrwt>
<totfact> 0.66147766E-02</totfact>
</mgrwt>
</event>
<event>
 6    1  0.1568961E-005  0.3044113E+04  0.7818608E-02  0.8231245E-01
          2   -1    0    0  501    0  0.00000000000E+00  0.00000000000E+00  0.13650129328E+04  0.13650129328E+04  0.00000000000E+00 0. -1.
         -2   -1    0    0    0  501 -0.00000000000E+00 -0.00000000000E+00 -0.16971675446E+04  0.16971675446E+04  0.00000000000E+00 0.  1.
         23    2    1    2    0    0 -0.53203922620E+03 -0.54568085518E+03  0.11574765422E+04  0.13889099347E+04  0.92116920864E+02 0.  0.
         13    1    3    3    0    0 -0.15797393099E+03 -0.12892656212E+03  0.37238010276E+03  0.42455242577E+03  0.00000000000E+00 0. -1.
        -13    1    3    3    0    0 -0.37406529520E+03 -0.41675429306E+03  0.78509643946E+03  0.96435750897E+03  0.00000000000E+00 0.  1.
         22    1    1    2    0    0  0.53203922620E+03  0.54568085518E+03 -0.14896311541E+04  0.16732705427E+04  0.00000000000E+00 0.  1.
<mgrwt>
<rscale>  0 0.30441128E+04</rscale>
<asrwt>0</asrwt>
<pdfrwt beam="1">  1        2 0.21000199E+00 0.30441128E+04</pdfrwt>
<pdfrwt beam="2">  1       -2 0.26110270E+00 0.30441128E+04</pdfrwt>
<totfact> 0.71012592E-01</totfact>
</mgrwt>
</event>
<event>
 6    1  0.1568961E-005  0.7277773E+03  0.7818608E-02  0.9670874E-01
         -2   -1    0    0    0  501 -0.00000000000E+00  0.00000000000E+00  0.20685010033E+03  0.20685010033E+03  0.00000000000E+00 0.  1.
          2   -1    0    0  501    0  0.00000000000E+00 -0.00000000000E+00 -0.64014929701E+03  0.64014929701E+03  0.00000000000E+00 0. -1.
         23    2    1    2    0    0  0.26103801885E+03  0.12579222417E+02  0.65561089574E+02  0.28382920164E+03  0.89228219287E+02 0.  0.
         13    1    3    3    0    0  0.37149668319E+02  0.17239506774E+02  0.41989720051E+02  0.58655221763E+02  0.00000000000E+00 0.  1.
        -13    1    3    3    0    0  0.22388835053E+03 -0.46602843570E+01  0.23571369522E+02  0.22517397988E+03  0.00000000000E+00 0. -1.
         22    1    1    2    0    0 -0.26103801885E+03 -0.12579222417E+02 -0.49886028626E+03  0.56317019570E+03  0.00000000000E+00 0. -1.
<mgrwt>
<rscale>  0 0.72777729E+03</rscale>
<asrwt>0</asrwt>
<pdfrwt beam="1">  1        2 0.98484506E-01 0.72777729E+03</pdfrwt>
<pdfrwt beam="2">  1       -2 0.31823093E-01 0.72777729E+03</pdfrwt>
<totfact> 0.42316602E+02</totfact>
</mgrwt>
</event>
<event>
 6    1  0.1568961E-005  0.8753232E+03  0.7818608E-02  0.9456965E-01
         -2   -1    0    0    0  501 -0.00000000000E+00  0.00000000000E+00  0.31538692313E+03  0.31538692313E+03  0.00000000000E+00 0.  1.
          2   -1    0    0  501    0  0.00000000000E+00 -0.00000000000E+00 -0.60734186668E+03  0.60734186668E+03  0.00000000000E+00 0. -1.
         23    2    1    2    0    0 -0.30600354693E+03  0.30636297484E+03 -0.13977158388E+03  0.46375578620E+03  0.89648705993E+02 0.  0.
         11    1    3    3    0    0 -0.26136428830E+03  0.20784640912E+03 -0.10131723160E+03  0.34896504467E+03  0.00000000000E+00 0. -1.
        -11    1    3    3    0    0 -0.44639258636E+02  0.98516565714E+02 -0.38454352271E+02  0.11479074153E+03  0.00000000000E+00 0.  1.
         22    1    1    2    0    0  0.30600354693E+03 -0.30636297484E+03 -0.15218335968E+03  0.45897300362E+03  0.00000000000E+00 0. -1.
<mgrwt>
<rscale>  0 0.87532321E+03</rscale>
<asrwt>0</asrwt>
<pdfrwt beam="1">  1        2 0.93437210E-01 0.87532321E+03</pdfrwt>
<pdfrwt beam="2">  1       -2 0.48521065E-01 0.87532321E+03</pdfrwt>
<totfact> 0.19743510E+02</totfact>
</mgrwt>
</event>
<event>
 6    1  0.1568961E-005  0.9224557E+03  0.7818608E-02  0.9397938E-01
          1   -1    0    0  501    0  0.00000000000E+00  0.00000000000E+00  0.81577308934E+03  0.81577308934E+03  0.00000000000E+00 0. -1.
         -1   -1    0    0    0  501 -0.00000000000E+00 -0.00000000000E+00 -0.26077245216E+03  0.26077245216E+03  0.00000000000E+00 0.  1.
         23    2    1    2    0    0 -0.35598025786E+03 -0.90324188923E+01  0.61376936059E+03  0.71563379131E+03  0.92818999571E+02 0.  0.
         11    1    3    3    0    0 -0.29497009217E+03  0.91967544944E+01  0.43323244505E+03  0.52419680180E+03  0.00000000000E+00 0.  1.
        -11    1    3    3    0    0 -0.61010165689E+02 -0.18229173387E+02  0.18053691554E+03  0.19143698951E+03  0.00000000000E+00 0. -1.
         22    1    1    2    0    0  0.35598025786E+03  0.90324188923E+01 -0.58768723409E+02  0.36091175019E+03  0.00000000000E+00 0.  1.
<mgrwt>
<rscale>  0 0.92245574E+03</rscale>
<asrwt>0</asrwt>
<pdfrwt beam="1">  1        1 0.12550355E+00 0.92245574E+03</pdfrwt>
<pdfrwt beam="2">  1       -1 0.40118839E-01 0.92245574E+03</pdfrwt>
<totfact> 0.13051712E+02</totfact>
</mgrwt>
</event>
<event>
 6    1  0.1568961E-005  0.4143638E+04  0.7818608E-02  0.7976181E-01
          2   -1    0    0  501    0  0.00000000000E+00  0.00000000000E+00  0.27594664243E+04  0.27594664243E+04  0.00000000000E+00 0. -1.
         -2   -1    0    0    0  501 -0.00000000000E+00 -0.00000000000E+00 -0.15555301854E+04  0.15555301854E+04  0.00000000000E+00 0.  1.
         23    2    1    2    0    0  0.86496637534E+02  0.15022873858E+04  0.20833977689E+04  0.25720675691E+04  0.10313223817E+03 0.  0.
         11    1    3    3    0    0 -0.82500984964E+01  0.63051157764E+03  0.82955801236E+03  0.10420073942E+04  0.00000000000E+00 0. -1.
        -11    1    3    3    0    0  0.94746736031E+02  0.87177580815E+03  0.12538397566E+04  0.15300601749E+04  0.00000000000E+00 0.  1.
         22    1    1    2    0    0 -0.86496637534E+02 -0.15022873858E+04 -0.87946153005E+03  0.17429290406E+04  0.00000000000E+00 0.  1.
<mgrwt>
<rscale>  0 0.41436377E+04</rscale>
<asrwt>0</asrwt>
<pdfrwt beam="1">  1        2 0.42453329E+00 0.41436377E+04</pdfrwt>
<pdfrwt beam="2">  1       -2 0.23931234E+00 0.41436377E+04</pdfrwt>
<totfact> 0.14267993E-01</totfact>
</mgrwt>
</event>
<event>
 6    1  0.1568961E-005  0.1125541E+04  0.7818608E-02  0.9180650E-01
         -2   -1    0    0    0  501 -0.00000000000E+00  0.00000000000E+00  0.39360371843E+03  0.39360371843E+03  0.00000000000E+00 0.  1.
          2   -1    0    0  501    0  0.00000000000E+00 -0.00000000000E+00 -0.80464314243E+03  0.80464314243E+03  0.00000000000E+00 0. -1.
         23    2    1    2    0    0 -0.12267970975E+03  0.33979049914E+03  0.24744184101E+03  0.44717730958E+03  0.90731400482E+02 0.  0.
         13    1    3    3    0    0 -0.37182259767E+02  0.22143306832E+03  0.12740527117E+03  0.25816124285E+03  0.00000000000E+00 0.  1.
        -13    1    3    3    0    0 -0.85497449988E+02  0.11835743081E+03  0.12003656984E+03  0.18901606673E+03  0.00000000000E+00 0. -1.
         22    1    1    2    0    0  0.12267970975E+03 -0.33979049914E+03 -0.65848126501E+03  0.75106955128E+03  0.00000000000E+00 0. -1.
<mgrwt>
<rscale>  0 0.11255408E+04</rscale>
<asrwt>0</asrwt>
<pdfrwt beam="1">  1        2 0.12379125E+00 0.11255408E+04</pdfrwt>
<pdfrwt beam="2">  1       -2 0.60554419E-01 0.11255408E+04</pdfrwt>
<totfact> 0.86096976E+01</totfact>
</mgrwt>
</event>
<event>
 6    1  0.1568961E-005  0.1229812E+04  0.7818608E-02  0.9087155E-01
         -2   -1    0    0    0  501 -0.00000000000E+00  0.00000000000E+00  0.20928321706E+03  0.20928321706E+03  0.00000000000E+00 0.  1.
          2   -1    0    0  501    0  0.00000000000E+00 -0.00000000000E+00 -0.18066882766E+04  0.18066882766E+04  0.00000000000E+00 0. -1.
         23    2    1    2    0    0 -0.23567163618E+03  0.52443659564E+03 -0.11458943491E+04  0.12849196592E+04  0.85847588392E+02 0.  0.
         13    1    3    3    0    0 -0.14538029978E+03  0.22064914736E+03 -0.53655050658E+03  0.59808688658E+03  0.00000000000E+00 0.  1.
        -13    1    3    3    0    0 -0.90291336396E+02  0.30378744829E+03 -0.60934384254E+03  0.68683277267E+03  0.00000000000E+00 0. -1.
         22    1    1    2    0    0  0.23567163618E+03 -0.52443659564E+03 -0.45151071037E+03  0.73105183437E+03  0.00000000000E+00 0. -1.
<mgrwt>
<rscale>  0 0.12298122E+04</rscale>
<asrwt>0</asrwt>
<pdfrwt beam="1">  1        2 0.27795204E+00 0.12298122E+04</pdfrwt>
<pdfrwt beam="2">  1       -2 0.32197418E-01 0.12298122E+04</pdfrwt>
<totfact> 0.75668662E+01</totfact>
</mgrwt>
</event>
<event>
 6    1  0.1568961E-005  0.4406084E+04  0.7818608E-02  0.7927288E-01
         -2   -1    0    0    0  501 -0.00000000000E+00  0.00000000000E+00  0.17385721492E+04  0.17385721492E+04  0.00000000000E+00 0.  1.
          2   -1    0    0  501    0  0.00000000000E+00 -0.00000000000E+00 -0.27915982914E+04  0.27915982914E+04  0.00000000000E+00 0. -1.
         23    2    1    2    0    0 -0.19723313030E+04 -0.33500784281E+03  0.41944731848E+03  0.20461215046E+04  0.91411899028E+02 0.  0.
         13    1    3    3    0    0 -0.10385315509E+04 -0.16355588339E+03  0.17557973945E+03  0.10658923745E+04  0.00000000000E+00 0.  1.
        -13    1    3    3    0    0 -0.93379975213E+03 -0.17145195943E+03  0.24386757904E+03  0.98022913014E+03  0.00000000000E+00 0. -1.
         22    1    1    2    0    0  0.19723313030E+04  0.33500784281E+03 -0.14724734607E+04  0.24840489359E+04  0.00000000000E+00 0.  1.
<mgrwt>
<rscale>  0 0.44060844E+04</rscale>
<asrwt>0</asrwt>
<pdfrwt beam="1">  1        2 0.42947666E+00 0.44060844E+04</pdfrwt>
<pdfrwt beam="2">  1       -2 0.26747264E+00 0.44060844E+04</pdfrwt>
<totfact> 0.89688584E-02</totfact>
</mgrwt>
</event>
<event>
 6    1  0.1568961E-005  0.1495061E+04  0.7818608E-02  0.8887744E-01
         -2   -1    0    0    0  501 -0.00000000000E+00  0.00000000000E+00  0.19617973360E+03  0.19617973360E+03  0.00000000000E+00 0.  1.
          2   -1    0    0  501    0  0.00000000000E+00 -0.00000000000E+00 -0.28484177178E+04  0.28484177178E+04  0.00000000000E+00 0. -1.
         23    2    1    2    0    0  0.57579236963E+03 -0.31614939043E+03 -0.20455275929E+04  0.21504024006E+04  0.92520598473E+02 0.  0.
         13    1    3    3    0    0  0.44450425705E+03 -0.28387049592E+03 -0.15856384224E+04  0.16710522731E+04  0.00000000000E+00 0.  1.
        -13    1    3    3    0    0  0.13128811258E+03 -0.32278894506E+02 -0.45988917052E+03  0.47935012747E+03  0.00000000000E+00 0. -1.
         22    1    1    2    0    0 -0.57579236963E+03  0.31614939043E+03 -0.60671039130E+03  0.89419505082E+03  0.00000000000E+00 0.  1.
<mgrwt>
<rscale>  0 0.14950610E+04</rscale>
<asrwt>0</asrwt>
<pdfrwt beam="1">  1        2 0.43821806E+00 0.14950610E+04</pdfrwt>
<pdfrwt beam="2">  1       -2 0.30181501E-01 0.14950610E+04</pdfrwt>
<totfact> 0.21300327E+01</totfact>
</mgrwt>
</event>
<event>
 6    1  0.1568961E-005  0.1396511E+04  0.7818608E-02  0.8956348E-01
         -1   -1    0    0    0  501 -0.00000000000E+00  0.00000000000E+00  0.38910941008E+03  0.38910941008E+03  0.00000000000E+00 0.  1.
          1   -1    0    0  501    0  0.00000000000E+00 -0.00000000000E+00 -0.12530170166E+04  0.12530170166E+04  0.00000000000E+00 0. -1.
         23    2    1    2    0    0 -0.35946859422E+03 -0.15198731629E+02 -0.11333955356E+04  0.11926017715E+04  0.90911350527E+02 0.  0.
         11    1    3    3    0    0 -0.23661817852E+03 -0.24029811663E+02 -0.60566226039E+03  0.65068607478E+03  0.00000000000E+00 0. -1.
        -11    1    3    3    0    0 -0.12285041569E+03  0.88310800333E+01 -0.52773327523E+03  0.54191569676E+03  0.00000000000E+00 0.  1.
         22    1    1    2    0    0  0.35946859422E+03  0.15198731629E+02  0.26948792909E+03  0.44952465516E+03  0.00000000000E+00 0.  1.
<mgrwt>
<rscale>  0 0.13965110E+04</rscale>
<asrwt>0</asrwt>
<pdfrwt beam="1">  1        1 0.19277185E+00 0.13965110E+04</pdfrwt>
<pdfrwt beam="2">  1       -1 0.59862986E-01 0.13965110E+04</pdfrwt>
<totfact> 0.26979884E+01</totfact>
</mgrwt>
</event>
<event>
 6    1  0.1568961E-005  0.6213479E+03  0.7818608E-02  0.9862080E-01
         -1   -1    0    0    0  501 -0.00000000000E+00  0.00000000000E+00  0.16545145689E+03  0.16545145689E+03  0.00000000000E+00 0.  1.
          1   -1    0    0  501    0  0.00000000000E+00 -0.00000000000E+00 -0.58336323189E+03  0.58336323189E+03  0.00000000000E+00 0. -1.
         23    2    1    2    0    0 -0.24181539522E+03 -0.15391924517E+03 -0.33500793970E+03  0.45042087969E+03  0.92102279008E+02 0.  0.
         13    1    3    3    0    0 -0.40407282645E+02 -0.56285139344E+02 -0.39634876683E+02  0.79822859203E+02  0.00000000000E+00 0. -1.
        -13    1    3    3    0    0 -0.20140811258E+03 -0.97634105821E+02 -0.29537306301E+03  0.37059802048E+03  0.00000000000E+00 0.  1.
         22    1    1    2    0    0  0.24181539522E+03  0.15391924517E+03 -0.82903835303E+02  0.29839380910E+03  0.00000000000E+00 0. -1.
<mgrwt>
<rscale>  0 0.62134788E+03</rscale>
<asrwt>0</asrwt>
<pdfrwt beam="1">  1        1 0.89748189E-01 0.62134788E+03</pdfrwt>
<pdfrwt beam="2">  1       -1 0.25454070E-01 0.62134788E+03</pdfrwt>
<totfact> 0.48936588E+02</totfact>
</mgrwt>
</event>
<event>
 6    1  0.1568961E-005  0.2195209E+04  0.7818608E-02  0.8520425E-01
         -1   -1    0    0    0  501 -0.00000000000E+00  0.00000000000E+00  0.11581651640E+04  0.11581651640E+04  0.00000000000E+00 0.  1.
          1   -1    0    0  501    0  0.00000000000E+00 -0.00000000000E+00 -0.10402104093E+04  0.10402104093E+04  0.00000000000E+00 0. -1.
         23    2    1    2    0    0  0.20767784072E+03 -0.99456058049E+03 -0.35146147368E+03  0.10791649455E+04  0.93760216695E+02 0.  0.
         13    1    3    3    0    0  0.89758165309E+02 -0.48718161218E+03 -0.21934587424E+03  0.54177030560E+03  0.00000000000E+00 0.  1.
        -13    1    3    3    0    0  0.11791967541E+03 -0.50737896832E+03 -0.13211559945E+03  0.53739463986E+03  0.00000000000E+00 0. -1.
         22    1    1    2    0    0 -0.20767784072E+03  0.99456058049E+03  0.46941622840E+03  0.11192106278E+04  0.00000000000E+00 0. -1.
<mgrwt>
<rscale>  0 0.21952088E+04</rscale>
<asrwt>0</asrwt>
<pdfrwt beam="1">  1        1 0.16003237E+00 0.21952088E+04</pdfrwt>
<pdfrwt beam="2">  1       -1 0.17817926E+00 0.21952088E+04</pdfrwt>
<totfact> 0.27549280E+00</totfact>
</mgrwt>
</event>
<event>
 6    1  0.1568961E-005  0.1327965E+04  0.7818608E-02  0.9007678E-01
         -1   -1    0    0    0  501 -0.00000000000E+00  0.00000000000E+00  0.49639966393E+03  0.49639966393E+03  0.00000000000E+00 0.  1.
          1   -1    0    0  501    0  0.00000000000E+00 -0.00000000000E+00 -0.88814094928E+03  0.88814094928E+03  0.00000000000E+00 0. -1.
         23    2    1    2    0    0 -0.11894594093E+02  0.23115174727E+03  0.44852222941E+03  0.51298144375E+03  0.91679658128E+02 0.  0.
         11    1    3    3    0    0  0.11004083765E+02  0.18002142412E+03  0.40032980982E+03  0.43908172318E+03  0.00000000000E+00 0.  1.
        -11    1    3    3    0    0 -0.22898677858E+02  0.51130323153E+02  0.48192419595E+02  0.73899720567E+02  0.00000000000E+00 0. -1.
         22    1    1    2    0    0  0.11894594093E+02 -0.23115174727E+03 -0.84026351477E+03  0.87155916947E+03  0.00000000000E+00 0. -1.
<mgrwt>
<rscale>  0 0.13279652E+04</rscale>
<asrwt>0</asrwt>
<pdfrwt beam="1">  1        1 0.13663707E+00 0.13279652E+04</pdfrwt>
<pdfrwt beam="2">  1       -1 0.76369180E-01 0.13279652E+04</pdfrwt>
<totfact> 0.31417634E+01</totfact>
</mgrwt>
</event>
<event>
 6    1  0.1568961E-005  0.1509788E+04  0.7818608E-02  0.8877970E-01
          2   -1    0    0  501    0  0.00000000000E+00  0.00000000000E+00  0.62857906307E+03  0.62857906307E+03  0.00000000000E+00 0. -1.
         -2   -1    0    0    0  501 -0.00000000000E+00 -0.00000000000E+00 -0.90659176727E+03  0.90659176727E+03  0.00000000000E+00 0.  1.
         23    2    1    2    0    0  0.47851742626E+03 -0.14989624788E+03  0.43093901473E+03  0.66680434542E+03  0.86439506584E+02 0.  0.
         13    1    3    3    0    0  0.31312015333E+03 -0.13127539858E+03  0.25507310835E+03  0.42466428069E+03  0.00000000000E+00 0.  1.
        -13    1    3    3    0    0  0.16539727293E+03 -0.18620849298E+02  0.17586590638E+03  0.24214006473E+03  0.00000000000E+00 0. -1.
         22    1    1    2    0    0 -0.47851742626E+03  0.14989624788E+03 -0.70895171893E+03  0.86836648492E+03  0.00000000000E+00 0.  1.
<mgrwt>
<rscale>  0 0.15097875E+04</rscale>
<asrwt>0</asrwt>
<pdfrwt beam="1">  1        2 0.96704472E-01 0.15097875E+04</pdfrwt>
<pdfrwt beam="2">  1       -2 0.13947566E+00 0.15097875E+04</pdfrwt>
<totfact> 0.16399774E+01</totfact>
</mgrwt>
</event>
<event>
 6    1  0.1568961E-005  0.4398921E+04  0.7818608E-02  0.7928576E-01
         -1   -1    0    0    0  501 -0.00000000000E+00  0.00000000000E+00  0.23599567225E+04  0.23599567225E+04  0.00000000000E+00 0.  1.
          1   -1    0    0  501    0  0.00000000000E+00 -0.00000000000E+00 -0.20498796561E+04  0.20498796561E+04  0.00000000000E+00 0. -1.
         23    2    1    2    0    0  0.21866370007E+04  0.22780955241E+03  0.16869963542E+03  0.22068234093E+04  0.91276655299E+02 0.  0.
         13    1    3    3    0    0  0.11892190978E+04  0.83085679360E+02  0.11198151470E+03  0.11973659225E+04  0.00000000000E+00 0. -1.
        -13    1    3    3    0    0  0.99741790291E+03  0.14472387305E+03  0.56718120727E+02  0.10094574868E+04  0.00000000000E+00 0.  1.
         22    1    1    2    0    0 -0.21866370007E+04 -0.22780955241E+03  0.14137743106E+03  0.22030129693E+04  0.00000000000E+00 0. -1.
<mgrwt>
<rscale>  0 0.43989214E+04</rscale>
<asrwt>0</asrwt>
<pdfrwt beam="1">  1        1 0.31536610E+00 0.43989214E+04</pdfrwt>
<pdfrwt beam="2">  1       -1 0.36307027E+00 0.43989214E+04</pdfrwt>
<totfact> 0.26549186E-02</totfact>
</mgrwt>
</event>
<event>
 6    1  0.1987054E-005  0.3024374E+04  0.7818608E-02  0.8236805E-01
          1   -1    0    0  501    0  0.00000000000E+00  0.00000000000E+00  0.11314905968E+04  0.11314905968E+04  0.00000000000E+00 0. -1.
         -1   -1    0    0    0  501 -0.00000000000E+00 -0.00000000000E+00 -0.20209702294E+04  0.20209702294E+04  0.00000000000E+00 0.  1.
         23    2    1    2    0    0 -0.11975968500E+04 -0.89975473817E+03 -0.23920611905E+03  0.15194720184E+04  0.88197750501E+02 0.  0.
         11    1    3    3    0    0 -0.93630648082E+03 -0.69838868129E+03 -0.22311139885E+03  0.11891994250E+04  0.00000000000E+00 0.  1.
        -11    1    3    3    0    0 -0.26129036922E+03 -0.20136605688E+03 -0.16094720201E+02  0.33027259337E+03  0.00000000000E+00 0. -1.
         22    1    1    2    0    0  0.11975968500E+04  0.89975473817E+03 -0.65027351348E+03  0.16329888078E+04  0.00000000000E+00 0.  1.
<mgrwt>
<rscale>  0 0.30243735E+04</rscale>
<asrwt>0</asrwt>
<pdfrwt beam="1">  1        1 0.17407548E+00 0.30243735E+04</pdfrwt>
<pdfrwt beam="2">  1       -1 0.31091849E+00 0.30243735E+04</pdfrwt>
<totfact> 0.28598261E-01</totfact>
</mgrwt>
</event>
<event>
 6    1  0.1568961E-005  0.3171769E+04  0.7818608E-02  0.8196313E-01
          2   -1    0    0  501    0  0.00000000000E+00  0.00000000000E+00  0.14375730999E+04  0.14375730999E+04  0.00000000000E+00 0. -1.
         -2   -1    0    0    0  501 -0.00000000000E+00 -0.00000000000E+00 -0.17494964006E+04  0.17494964006E+04  0.00000000000E+00 0.  1.
         23    2    1    2    0    0  0.69739467068E+02 -0.80665341717E+03  0.12125332057E+04  0.14609406037E+04  0.92505912572E+02 0.  0.
         13    1    3    3    0    0  0.30037997675E+02 -0.24824641262E+03  0.30210453834E+03  0.39216796754E+03  0.00000000000E+00 0. -1.
        -13    1    3    3    0    0  0.39701469393E+02 -0.55840700456E+03  0.91042866736E+03  0.10687726361E+04  0.00000000000E+00 0.  1.
         22    1    1    2    0    0 -0.69739467068E+02  0.80665341717E+03 -0.15244565064E+04  0.17261288968E+04  0.00000000000E+00 0.  1.
<mgrwt>
<rscale>  0 0.31717686E+04</rscale>
<asrwt>0</asrwt>
<pdfrwt beam="1">  1        2 0.22116509E+00 0.31717686E+04</pdfrwt>
<pdfrwt beam="2">  1       -2 0.26915329E+00 0.31717686E+04</pdfrwt>
<totfact> 0.57014075E-01</totfact>
</mgrwt>
</event>
<event>
 6    1  0.1568961E-005  0.1151039E+04  0.7818608E-02  0.9156826E-01
          2   -1    0    0  501    0  0.00000000000E+00  0.00000000000E+00  0.12020857074E+04  0.12020857074E+04  0.00000000000E+00 0. -1.
         -2   -1    0    0    0  501 -0.00000000000E+00 -0.00000000000E+00 -0.27554000127E+03  0.27554000127E+03  0.00000000000E+00 0.  1.
         23    2    1    2    0    0 -0.17569901139E+03 -0.43887739836E+03  0.52509376259E+02  0.48393409690E+03  0.89170971463E+02 0.  0.
         11    1    3    3    0    0 -0.11392399013E+03 -0.17906633045E+03  0.25656799215E+01  0.21224987383E+03  0.00000000000E+00 0.  1.
        -11    1    3    3    0    0 -0.61775021262E+02 -0.25981106791E+03  0.49943696338E+02  0.27168422307E+03  0.00000000000E+00 0. -1.
         22    1    1    2    0    0  0.17569901139E+03  0.43887739836E+03  0.87403632990E+03  0.99369161181E+03  0.00000000000E+00 0. -1.
<mgrwt>
<rscale>  0 0.11510390E+04</rscale>
<asrwt>0</asrwt>
<pdfrwt beam="1">  1        2 0.18493626E+00 0.11510390E+04</pdfrwt>
<pdfrwt beam="2">  1       -2 0.42390770E-01 0.11510390E+04</pdfrwt>
<totfact> 0.98548055E+01</totfact>
</mgrwt>
</event>
<event>
 6    1  0.1568961E-005  0.3965307E+04  0.7818608E-02  0.8011582E-01
          2   -1    0    0  501    0  0.00000000000E+00  0.00000000000E+00  0.26256166872E+04  0.26256166872E+04  0.00000000000E+00 0. -1.
         -2   -1    0    0    0  501 -0.00000000000E+00 -0.00000000000E+00 -0.14971393709E+04  0.14971393709E+04  0.00000000000E+00 0.  1.
         23    2    1    2    0    0 -0.62308538360E+03 -0.18471315174E+04  0.93434066167E+03  0.21637207653E+04  0.92546422348E+02 0.  0.
         11    1    3    3    0    0 -0.40043190501E+03 -0.10504003336E+04  0.55323213564E+03  0.12528975885E+04  0.00000000000E+00 0. -1.
        -11    1    3    3    0    0 -0.22265347859E+03 -0.79673118375E+03  0.38110852603E+03  0.91082317675E+03  0.00000000000E+00 0.  1.
         22    1    1    2    0    0  0.62308538360E+03  0.18471315174E+04  0.19413665459E+03  0.19590352928E+04  0.00000000000E+00 0.  1.
<mgrwt>
<rscale>  0 0.39653066E+04</rscale>
<asrwt>0</asrwt>
<pdfrwt beam="1">  1        2 0.40394103E+00 0.39653066E+04</pdfrwt>
<pdfrwt beam="2">  1       -2 0.23032914E+00 0.39653066E+04</pdfrwt>
<totfact> 0.19785113E-01</totfact>
</mgrwt>
</event>
<event>
 6    1  0.1568961E-005  0.2250946E+04  0.7818608E-02  0.8497518E-01
          1   -1    0    0  501    0  0.00000000000E+00  0.00000000000E+00  0.16367844716E+04  0.16367844716E+04  0.00000000000E+00 0.  1.
         -1   -1    0    0    0  501 -0.00000000000E+00 -0.00000000000E+00 -0.77388891070E+03  0.77388891070E+03  0.00000000000E+00 0. -1.
         23    2    1    2    0    0 -0.56280368175E+03  0.71538947173E+03 -0.27348003222E+03  0.95469276118E+03  0.90093616803E+02 0.  0.
         11    1    3    3    0    0 -0.18188951113E+03  0.19856761599E+03 -0.11862617696E+03  0.29425339801E+03  0.00000000000E+00 0.  1.
        -11    1    3    3    0    0 -0.38091417062E+03  0.51682185573E+03 -0.15485385526E+03  0.66043936318E+03  0.00000000000E+00 0. -1.
         22    1    1    2    0    0  0.56280368175E+03 -0.71538947173E+03  0.11363755931E+04  0.14559806211E+04  0.00000000000E+00 0.  1.
<mgrwt>
<rscale>  0 0.22509459E+04</rscale>
<asrwt>0</asrwt>
<pdfrwt beam="1">  1        1 0.25181299E+00 0.22509459E+04</pdfrwt>
<pdfrwt beam="2">  1       -1 0.11905983E+00 0.22509459E+04</pdfrwt>
<totfact> 0.30160765E+00</totfact>
</mgrwt>
</event>
<event>
 6    1  0.1568961E-005  0.1197034E+04  0.7818608E-02  0.9115457E-01
          2   -1    0    0  501    0  0.00000000000E+00  0.00000000000E+00  0.10024900964E+04  0.10024900964E+04  0.00000000000E+00 0. -1.
         -2   -1    0    0    0  501 -0.00000000000E+00 -0.00000000000E+00 -0.35733276012E+03  0.35733276012E+03  0.00000000000E+00 0.  1.
         23    2    1    2    0    0 -0.56603437734E+03  0.88436863228E+02  0.14134958870E+03  0.59690854832E+03  0.90022851151E+02 0.  0.
         11    1    3    3    0    0 -0.52748373982E+03  0.97984078793E+02  0.14821634073E+03  0.55660404160E+03  0.00000000000E+00 0.  1.
        -11    1    3    3    0    0 -0.38550637521E+02 -0.95472155652E+01 -0.68667520375E+01  0.40304506719E+02  0.00000000000E+00 0. -1.
         22    1    1    2    0    0  0.56603437734E+03 -0.88436863228E+02  0.50380774755E+03  0.76291430816E+03  0.00000000000E+00 0. -1.
<mgrwt>
<rscale>  0 0.11970339E+04</rscale>
<asrwt>0</asrwt>
<pdfrwt beam="1">  1        2 0.15422924E+00 0.11970339E+04</pdfrwt>
<pdfrwt beam="2">  1       -2 0.54974271E-01 0.11970339E+04</pdfrwt>
<totfact> 0.77076850E+01</totfact>
</mgrwt>
</event>
<event>
 6    1  0.1568961E-005  0.2197751E+04  0.7818608E-02  0.8519365E-01
          2   -1    0    0  501    0  0.00000000000E+00  0.00000000000E+00  0.26071722284E+04  0.26071722284E+04  0.00000000000E+00 0. -1.
         -2   -1    0    0    0  501 -0.00000000000E+00 -0.00000000000E+00 -0.46315608526E+03  0.46315608526E+03  0.00000000000E+00 0.  1.
         23    2    1    2    0    0 -0.51211645590E+03 -0.65349388963E+03  0.20755164260E+04  0.22372558442E+04  0.90706942567E+02 0.  0.
         13    1    3    3    0    0 -0.23453898764E+02 -0.57759544476E+02  0.20463835628E+03  0.21392313387E+03  0.00000000000E+00 0. -1.
        -13    1    3    3    0    0 -0.48866255713E+03 -0.59573434515E+03  0.18708780697E+04  0.20233327103E+04  0.00000000000E+00 0.  1.
         22    1    1    2    0    0  0.51211645590E+03  0.65349388963E+03  0.68499717126E+02  0.83307246949E+03  0.00000000000E+00 0.  1.
<mgrwt>
<rscale>  0 0.21977513E+04</rscale>
<asrwt>0</asrwt>
<pdfrwt beam="1">  1        2 0.40110341E+00 0.21977513E+04</pdfrwt>
<pdfrwt beam="2">  1       -2 0.71254784E-01 0.21977513E+04</pdfrwt>
<totfact> 0.49275920E+00</totfact>
</mgrwt>
</event>
<event>
 6    1  0.1568961E-005  0.3155178E+04  0.7818608E-02  0.8200756E-01
         -3   -1    0    0    0  501 -0.00000000000E+00  0.00000000000E+00  0.73390114097E+03  0.73390114097E+03  0.00000000000E+00 0.  1.
          3   -1    0    0  501    0  0.00000000000E+00 -0.00000000000E+00 -0.33911741143E+04  0.33911741143E+04  0.00000000000E+00 0. -1.
         23    2    1    2    0    0  0.31332377498E+03  0.75009597830E+03  0.43583837205E+03  0.92692679725E+03  0.91773832298E+02 0.  0.
         13    1    3    3    0    0  0.16159856365E+03  0.40793767560E+03  0.28600057870E+03  0.52375908008E+03  0.00000000000E+00 0. -1.
        -13    1    3    3    0    0  0.15172521133E+03  0.34215830270E+03  0.14983779335E+03  0.40316771718E+03  0.00000000000E+00 0.  1.
         22    1    1    2    0    0 -0.31332377498E+03 -0.75009597830E+03 -0.30931113454E+04  0.31981484580E+04  0.00000000000E+00 0. -1.
<mgrwt>
<rscale>  0 0.31551777E+04</rscale>
<asrwt>0</asrwt>
<pdfrwt beam="1">  1        3 0.52171911E+00 0.31551777E+04</pdfrwt>
<pdfrwt beam="2">  1       -3 0.11290787E+00 0.31551777E+04</pdfrwt>
<totfact> 0.38563370E-03</totfact>
</mgrwt>
</event>
<event>
 6    1  0.1568961E-005  0.4806122E+04  0.7818608E-02  0.7859131E-01
         -1   -1    0    0    0  501 -0.00000000000E+00  0.00000000000E+00  0.21652084254E+04  0.21652084254E+04  0.00000000000E+00 0.  1.
          1   -1    0    0  501    0  0.00000000000E+00 -0.00000000000E+00 -0.26670422412E+04  0.26670422412E+04  0.00000000000E+00 0. -1.
         23    2    1    2    0    0 -0.11909762565E+04  0.97816271376E+03 -0.21036101484E+04  0.26094339495E+04  0.93504771855E+02 0.  0.
         11    1    3    3    0    0 -0.90218446243E+03  0.73611563396E+03 -0.15196754165E+04  0.19144754901E+04  0.00000000000E+00 0. -1.
        -11    1    3    3    0    0 -0.28879179404E+03  0.24204707980E+03 -0.58393473190E+03  0.69495845938E+03  0.00000000000E+00 0.  1.
         22    1    1    2    0    0  0.11909762565E+04 -0.97816271376E+03  0.16017763326E+04  0.22228167171E+04  0.00000000000E+00 0.  1.
<mgrwt>
<rscale>  0 0.48061221E+04</rscale>
<asrwt>0</asrwt>
<pdfrwt beam="1">  1        1 0.41031419E+00 0.48061221E+04</pdfrwt>
<pdfrwt beam="2">  1       -1 0.33310899E+00 0.48061221E+04</pdfrwt>
<totfact> 0.15246452E-02</totfact>
</mgrwt>
</event>
<event>
 6    1  0.1568961E-005  0.9459174E+03  0.7818608E-02  0.9369935E-01
         -1   -1    0    0    0  501 -0.00000000000E+00  0.00000000000E+00  0.24912216637E+03  0.24912216637E+03  0.00000000000E+00 0.  1.
          1   -1    0    0  501    0  0.00000000000E+00 -0.00000000000E+00 -0.89791262618E+03  0.89791262618E+03  0.00000000000E+00 0. -1.
         23    2    1    2    0    0 -0.27358043058E+00 -0.17829652318E+03  0.19812051100E+03  0.28155924841E+03  0.90742208813E+02 0.  0.
         11    1    3    3    0    0 -0.28328037894E+02 -0.96727917378E+02  0.55980203070E+02  0.11529332534E+03  0.00000000000E+00 0.  1.
        -11    1    3    3    0    0  0.28054457464E+02 -0.81568605803E+02  0.14214030793E+03  0.16626592307E+03  0.00000000000E+00 0. -1.
         22    1    1    2    0    0  0.27358043058E+00  0.17829652318E+03 -0.84691097081E+03  0.86547554414E+03  0.00000000000E+00 0. -1.
<mgrwt>
<rscale>  0 0.94591741E+03</rscale>
<asrwt>0</asrwt>
<pdfrwt beam="1">  1        1 0.13814040E+00 0.94591741E+03</pdfrwt>
<pdfrwt beam="2">  1       -1 0.38326487E-01 0.94591741E+03</pdfrwt>
<totfact> 0.12083893E+02</totfact>
</mgrwt>
</event>
<event>
 6    1  0.1568961E-005  0.1252221E+04  0.7818608E-02  0.9068337E-01
         -1   -1    0    0    0  501 -0.00000000000E+00  0.00000000000E+00  0.46795517807E+03  0.46795517807E+03  0.00000000000E+00 0.  1.
          1   -1    0    0  501    0  0.00000000000E+00 -0.00000000000E+00 -0.83771737106E+03  0.83771737106E+03  0.00000000000E+00 0. -1.
         23    2    1    2    0    0 -0.29686797274E+03 -0.48686839774E+03 -0.44655245757E+03  0.73028730889E+03  0.93482758911E+02 0.  0.
         11    1    3    3    0    0 -0.14271980214E+03 -0.17027858430E+03 -0.13401369251E+03  0.25946754706E+03  0.00000000000E+00 0.  1.
        -11    1    3    3    0    0 -0.15414817059E+03 -0.31658981344E+03 -0.31253876506E+03  0.47081976184E+03  0.00000000000E+00 0. -1.
         22    1    1    2    0    0  0.29686797274E+03  0.48686839774E+03  0.76790264582E+02  0.57538524024E+03  0.00000000000E+00 0.  1.
<mgrwt>
<rscale>  0 0.12522207E+04</rscale>
<asrwt>0</asrwt>
<pdfrwt beam="1">  1        1 0.12887959E+00 0.12522207E+04</pdfrwt>
<pdfrwt beam="2">  1       -1 0.71993105E-01 0.12522207E+04</pdfrwt>
<totfact> 0.39394431E+01</totfact>
</mgrwt>
</event>
<event>
 6    1  0.1568961E-005  0.3638100E+04  0.7818608E-02  0.8081820E-01
         -3   -1    0    0    0  501 -0.00000000000E+00  0.00000000000E+00  0.20017214010E+04  0.20017214010E+04  0.00000000000E+00 0.  1.
          3   -1    0    0  501    0  0.00000000000E+00 -0.00000000000E+00 -0.16530483388E+04  0.16530483388E+04  0.00000000000E+00 0. -1.
         23    2    1    2    0    0 -0.17514058573E+04  0.20088073445E+03 -0.27310501387E+03  0.17854427159E+04  0.73782089059E+02 0.  0.
         11    1    3    3    0    0 -0.11286332139E+04  0.11058515016E+03 -0.20591911593E+03  0.11525817495E+04  0.00000000000E+00 0.  1.
        -11    1    3    3    0    0 -0.62277264337E+03  0.90295584294E+02 -0.67185897941E+02  0.63286096637E+03  0.00000000000E+00 0. -1.
         22    1    1    2    0    0  0.17514058573E+04 -0.20088073445E+03  0.62177807611E+03  0.18693270239E+04  0.00000000000E+00 0. -1.
<mgrwt>
<rscale>  0 0.36380996E+04</rscale>
<asrwt>0</asrwt>
<pdfrwt beam="1">  1        3 0.25431513E+00 0.36380996E+04</pdfrwt>
<pdfrwt beam="2">  1       -3 0.30795714E+00 0.36380996E+04</pdfrwt>
<totfact> 0.50162227E-03</totfact>
</mgrwt>
</event>
<event>
 6    1  0.1568961E-005  0.2328047E+04  0.7818608E-02  0.8466944E-01
         -1   -1    0    0    0  501 -0.00000000000E+00  0.00000000000E+00  0.95971891227E+03  0.95971891227E+03  0.00000000000E+00 0.  1.
          1   -1    0    0  501    0  0.00000000000E+00 -0.00000000000E+00 -0.14118200028E+04  0.14118200028E+04  0.00000000000E+00 0. -1.
         23    2    1    2    0    0  0.27428186943E+03  0.18347993587E+03  0.90884913125E+03  0.97115291938E+03  0.90751411497E+02 0.  0.
         11    1    3    3    0    0  0.71477619849E+02  0.15628702789E+02  0.28048664031E+03  0.28987249245E+03  0.00000000000E+00 0.  1.
        -11    1    3    3    0    0  0.20280424958E+03  0.16785123308E+03  0.62836249094E+03  0.68128042693E+03  0.00000000000E+00 0. -1.
         22    1    1    2    0    0 -0.27428186943E+03 -0.18347993587E+03 -0.13609502218E+04  0.14003859957E+04  0.00000000000E+00 0. -1.
<mgrwt>
<rscale>  0 0.23280467E+04</rscale>
<asrwt>0</asrwt>
<pdfrwt beam="1">  1        1 0.21720308E+00 0.23280467E+04</pdfrwt>
<pdfrwt beam="2">  1       -1 0.14764906E+00 0.23280467E+04</pdfrwt>
<totfact> 0.24743727E+00</totfact>
</mgrwt>
</event>
<event>
 6    1  0.1568961E-005  0.1335408E+04  0.7818608E-02  0.9001948E-01
          2   -1    0    0  501    0  0.00000000000E+00  0.00000000000E+00  0.11313134708E+04  0.11313134708E+04  0.00000000000E+00 0. -1.
         -2   -1    0    0    0  501 -0.00000000000E+00 -0.00000000000E+00 -0.39408056459E+03  0.39408056459E+03  0.00000000000E+00 0.  1.
         23    2    1    2    0    0  0.22799850905E+03  0.22625121990E+03  0.10348543496E+04  0.10874996895E+04  0.92515486648E+02 0.  0.
         11    1    3    3    0    0  0.13825395221E+03  0.13273064806E+03  0.46220846659E+03  0.50036811132E+03  0.00000000000E+00 0.  1.
        -11    1    3    3    0    0  0.89744556834E+02  0.93520571844E+02  0.57264588300E+03  0.58713157823E+03  0.00000000000E+00 0. -1.
         22    1    1    2    0    0 -0.22799850905E+03 -0.22625121990E+03 -0.29762144333E+03  0.43789434589E+03  0.00000000000E+00 0.  1.
<mgrwt>
<rscale>  0 0.13354080E+04</rscale>
<asrwt>0</asrwt>
<pdfrwt beam="1">  1        2 0.17404823E+00 0.13354080E+04</pdfrwt>
<pdfrwt beam="2">  1       -2 0.60627780E-01 0.13354080E+04</pdfrwt>
<totfact> 0.51629732E+01</totfact>
</mgrwt>
</event>
<event>
 6    1  0.1568961E-005  0.1805082E+04  0.7818608E-02  0.8703601E-01
          2   -1    0    0  501    0  0.00000000000E+00  0.00000000000E+00  0.18170375540E+04  0.18170375540E+04  0.00000000000E+00 0. -1.
         -2   -1    0    0    0  501 -0.00000000000E+00 -0.00000000000E+00 -0.44830137818E+03  0.44830137818E+03  0.00000000000E+00 0.  1.
         23    2    1    2    0    0 -0.44125949075E+03 -0.72926134230E+03  0.10491735246E+04  0.13550355039E+04  0.93936619660E+02 0.  0.
         11    1    3    3    0    0 -0.18404815740E+03 -0.39288858896E+03  0.54647371491E+03  0.69775976429E+03  0.00000000000E+00 0.  1.
        -11    1    3    3    0    0 -0.25721133335E+03 -0.33637275334E+03  0.50269980972E+03  0.65727573961E+03  0.00000000000E+00 0. -1.
         22    1    1    2    0    0  0.44125949075E+03  0.72926134230E+03  0.31956265123E+03  0.91030342832E+03  0.00000000000E+00 0. -1.
<mgrwt>
<rscale>  0 0.18050822E+04</rscale>
<asrwt>0</asrwt>
<pdfrwt beam="1">  1        2 0.27954424E+00 0.18050822E+04</pdfrwt>
<pdfrwt beam="2">  1       -2 0.68969444E-01 0.18050822E+04</pdfrwt>
<totfact> 0.15296663E+01</totfact>
</mgrwt>
</event>
<event>
 6    1  0.1568961E-005  0.3358251E+04  0.7818608E-02  0.8148230E-01
         -2   -1    0    0    0  501 -0.00000000000E+00  0.00000000000E+00  0.12750318887E+04  0.12750318887E+04  0.00000000000E+00 0.  1.
          2   -1    0    0  501    0  0.00000000000E+00 -0.00000000000E+00 -0.22112878342E+04  0.22112878342E+04  0.00000000000E+00 0. -1.
         23    2    1    2    0    0  0.10737024967E+04  0.16115272208E+03 -0.17965105102E+04  0.21010958539E+04  0.91359304163E+02 0.  0.
         11    1    3    3    0    0  0.81190621701E+03  0.11949899525E+03 -0.12790216164E+04  0.15196604918E+04  0.00000000000E+00 0.  1.
        -11    1    3    3    0    0  0.26179627966E+03  0.41653726822E+02 -0.51748889385E+03  0.58143536207E+03  0.00000000000E+00 0. -1.
         22    1    1    2    0    0 -0.10737024967E+04 -0.16115272208E+03  0.86025456476E+03  0.13852238691E+04  0.00000000000E+00 0.  1.
<mgrwt>
<rscale>  0 0.33582510E+04</rscale>
<asrwt>0</asrwt>
<pdfrwt beam="1">  1        2 0.34019812E+00 0.33582510E+04</pdfrwt>
<pdfrwt beam="2">  1       -2 0.19615876E+00 0.33582510E+04</pdfrwt>
<totfact> 0.59643911E-01</totfact>
</mgrwt>
</event>
<event>
 6    1  0.1568961E-005  0.1825653E+04  0.7818608E-02  0.8692775E-01
         -1   -1    0    0    0  501 -0.00000000000E+00  0.00000000000E+00  0.21556786900E+04  0.21556786900E+04  0.00000000000E+00 0.  1.
          1   -1    0    0  501    0  0.00000000000E+00 -0.00000000000E+00 -0.38653838523E+03  0.38653838523E+03  0.00000000000E+00 0. -1.
         23    2    1    2    0    0 -0.56010085089E+03  0.68192575697E+03  0.57416954669E+03  0.10567236172E+04  0.90875924419E+02 0.  0.
         11    1    3    3    0    0 -0.28925696974E+03  0.38726154329E+03  0.36078394264E+03  0.60316345274E+03  0.00000000000E+00 0.  1.
        -11    1    3    3    0    0 -0.27084388115E+03  0.29466421368E+03  0.21338560405E+03  0.45356016447E+03  0.00000000000E+00 0. -1.
         22    1    1    2    0    0  0.56010085089E+03 -0.68192575697E+03  0.11949707581E+04  0.14854934581E+04  0.00000000000E+00 0. -1.
<mgrwt>
<rscale>  0 0.18256534E+04</rscale>
<asrwt>0</asrwt>
<pdfrwt beam="1">  1        1 0.59467445E-01 0.18256534E+04</pdfrwt>
<pdfrwt beam="2">  1       -1 0.33164287E+00 0.18256534E+04</pdfrwt>
<totfact> 0.12164704E+00</totfact>
</mgrwt>
</event>
<event>
 6    1  0.1568961E-005  0.1155365E+04  0.7818608E-02  0.9152848E-01
          2   -1    0    0  501    0  0.00000000000E+00  0.00000000000E+00  0.11671413967E+04  0.11671413967E+04  0.00000000000E+00 0. -1.
         -2   -1    0    0    0  501 -0.00000000000E+00 -0.00000000000E+00 -0.28592702115E+03  0.28592702115E+03  0.00000000000E+00 0.  1.
         23    2    1    2    0    0  0.28357655380E+03 -0.26332892456E+03  0.97645949905E+03  0.10545343316E+04  0.93870756241E+02 0.  0.
         13    1    3    3    0    0  0.18902801779E+03 -0.12485355890E+03  0.63334857860E+03  0.67264435231E+03  0.00000000000E+00 0.  1.
        -13    1    3    3    0    0  0.94548536006E+02 -0.13847536565E+03  0.34311092045E+03  0.38188997929E+03  0.00000000000E+00 0. -1.
         22    1    1    2    0    0 -0.28357655380E+03  0.26332892456E+03 -0.95245123473E+02  0.39853408627E+03  0.00000000000E+00 0.  1.
<mgrwt>
<rscale>  0 0.11553653E+04</rscale>
<asrwt>0</asrwt>
<pdfrwt beam="1">  1        2 0.17956021E+00 0.11553653E+04</pdfrwt>
<pdfrwt beam="2">  1       -2 0.43988773E-01 0.11553653E+04</pdfrwt>
<totfact> 0.96079586E+01</totfact>
</mgrwt>
</event>
<event>
 6    1  0.1568961E-005  0.7158893E+03  0.7818608E-02  0.9690439E-01
         -2   -1    0    0    0  501 -0.00000000000E+00  0.00000000000E+00  0.11085309855E+03  0.11085309855E+03  0.00000000000E+00 0.  1.
          2   -1    0    0  501    0  0.00000000000E+00 -0.00000000000E+00 -0.11558032625E+04  0.11558032625E+04  0.00000000000E+00 0. -1.
         23    2    1    2    0    0  0.23915961909E+03  0.19172175198E+03 -0.22407928163E+03  0.39042376691E+03  0.90910063933E+02 0.  0.
         13    1    3    3    0    0  0.18258254861E+03  0.16149659452E+03 -0.21615396139E+03  0.32579145495E+03  0.00000000000E+00 0.  1.
        -13    1    3    3    0    0  0.56577070481E+02  0.30225157467E+02 -0.79253202483E+01  0.64632311959E+02  0.00000000000E+00 0. -1.
         22    1    1    2    0    0 -0.23915961909E+03 -0.19172175198E+03 -0.82087088236E+03  0.87623259418E+03  0.00000000000E+00 0. -1.
<mgrwt>
<rscale>  0 0.71588930E+03</rscale>
<asrwt>0</asrwt>
<pdfrwt beam="1">  1        2 0.17781588E+00 0.71588930E+03</pdfrwt>
<pdfrwt beam="2">  1       -2 0.17054323E-01 0.71588930E+03</pdfrwt>
<totfact> 0.57153301E+02</totfact>
</mgrwt>
</event>
<event>
 6    1  0.1568961E-005  0.2709859E+04  0.7818608E-02  0.8331813E-01
         -1   -1    0    0    0  501 -0.00000000000E+00  0.00000000000E+00  0.12018357681E+04  0.12018357681E+04  0.00000000000E+00 0.  1.
          1   -1    0    0  501    0  0.00000000000E+00 -0.00000000000E+00 -0.15275247457E+04  0.15275247457E+04  0.00000000000E+00 0. -1.
         23    2    1    2    0    0 -0.34871033241E+03  0.10728572567E+04  0.59001622291E+03  0.12763850826E+04  0.91750459234E+02 0.  0.
         13    1    3    3    0    0 -0.13845469021E+03  0.54916184994E+03  0.26668182234E+03  0.62599331709E+03  0.00000000000E+00 0. -1.
        -13    1    3    3    0    0 -0.21025564220E+03  0.52369540672E+03  0.32333440057E+03  0.65039176555E+03  0.00000000000E+00 0.  1.
         22    1    1    2    0    0  0.34871033241E+03 -0.10728572567E+04 -0.91570520055E+03  0.14529754311E+04  0.00000000000E+00 0.  1.
<mgrwt>
<rscale>  0 0.27098589E+04</rscale>
<asrwt>0</asrwt>
<pdfrwt beam="1">  1        1 0.23500381E+00 0.27098589E+04</pdfrwt>
<pdfrwt beam="2">  1       -1 0.18489781E+00 0.27098589E+04</pdfrwt>
<totfact> 0.10486967E+00</totfact>
</mgrwt>
</event>
<event>
 6    1  0.1568961E-005  0.3079498E+04  0.7818608E-02  0.8221387E-01
         -2   -1    0    0    0  501 -0.00000000000E+00  0.00000000000E+00  0.19206937107E+04  0.19206937107E+04  0.00000000000E+00 0. -1.
          2   -1    0    0  501    0  0.00000000000E+00 -0.00000000000E+00 -0.12343593464E+04  0.12343593464E+04  0.00000000000E+00 0.  1.
         23    2    1    2    0    0  0.22774624035E+03  0.48310295176E+03 -0.11346377734E+04  0.12573712245E+04  0.91228873620E+02 0.  0.
         11    1    3    3    0    0  0.21317839648E+03  0.38714869113E+03 -0.87721094591E+03  0.98225667796E+03  0.00000000000E+00 0. -1.
        -11    1    3    3    0    0  0.14567843872E+02  0.95954260632E+02 -0.25742682746E+03  0.27511454651E+03  0.00000000000E+00 0.  1.
         22    1    1    2    0    0 -0.22774624035E+03 -0.48310295176E+03  0.18209721377E+04  0.18976818327E+04  0.00000000000E+00 0. -1.
<mgrwt>
<rscale>  0 0.30794975E+04</rscale>
<asrwt>0</asrwt>
<pdfrwt beam="1">  1        2 0.18990144E+00 0.30794975E+04</pdfrwt>
<pdfrwt beam="2">  1       -2 0.29549134E+00 0.30794975E+04</pdfrwt>
<totfact> 0.52039842E-01</totfact>
</mgrwt>
</event>
<event>
 6    1  0.1568961E-005  0.1882354E+04  0.7818608E-02  0.8663690E-01
         -2   -1    0    0    0  501 -0.00000000000E+00  0.00000000000E+00  0.50540417454E+04  0.50540417454E+04  0.00000000000E+00 0.  1.
          2   -1    0    0  501    0  0.00000000000E+00 -0.00000000000E+00 -0.17526844269E+03  0.17526844269E+03  0.00000000000E+00 0. -1.
         23    2    1    2    0    0 -0.58189215720E+03 -0.68126649451E+03  0.32248713410E+04  0.33483226235E+04  0.93523825892E+02 0.  0.
         11    1    3    3    0    0 -0.14720475786E+03 -0.13200605743E+03  0.82135859958E+03  0.84482234170E+03  0.00000000000E+00 0.  1.
        -11    1    3    3    0    0 -0.43468739934E+03 -0.54926043708E+03  0.24035127414E+04  0.25035002818E+04  0.00000000000E+00 0. -1.
         22    1    1    2    0    0  0.58189215720E+03  0.68126649451E+03  0.16539019618E+04  0.18809875646E+04  0.00000000000E+00 0. -1.
<mgrwt>
<rscale>  0 0.18823539E+04</rscale>
<asrwt>0</asrwt>
<pdfrwt beam="1">  1        2 0.26964380E-01 0.18823539E+04</pdfrwt>
<pdfrwt beam="2">  1       -2 0.77754477E+00 0.18823539E+04</pdfrwt>
<totfact> 0.20166133E-02</totfact>
</mgrwt>
</event>
<event>
 6    1  0.1568961E-005  0.2128765E+04  0.7818608E-02  0.8548677E-01
         -1   -1    0    0    0  501 -0.00000000000E+00  0.00000000000E+00  0.87664774739E+03  0.87664774739E+03  0.00000000000E+00 0.  1.
          1   -1    0    0  501    0  0.00000000000E+00 -0.00000000000E+00 -0.12923209992E+04  0.12923209992E+04  0.00000000000E+00 0. -1.
         23    2    1    2    0    0 -0.89151638958E+03  0.53301564383E+03 -0.43567260683E+03  0.11300716758E+04  0.91346717029E+02 0.  0.
         11    1    3    3    0    0 -0.60647274141E+02  0.47861380446E+02 -0.97527067307E+01  0.77871168525E+02  0.00000000000E+00 0.  1.
        -11    1    3    3    0    0 -0.83086911544E+03  0.48515426339E+03 -0.42591990010E+03  0.10522005073E+04  0.00000000000E+00 0. -1.
         22    1    1    2    0    0  0.89151638958E+03 -0.53301564383E+03  0.19999355012E+02  0.10388970708E+04  0.00000000000E+00 0. -1.
<mgrwt>
<rscale>  0 0.21287652E+04</rscale>
<asrwt>0</asrwt>
<pdfrwt beam="1">  1        1 0.19881861E+00 0.21287652E+04</pdfrwt>
<pdfrwt beam="2">  1       -1 0.13486888E+00 0.21287652E+04</pdfrwt>
<totfact> 0.38812334E+00</totfact>
</mgrwt>
</event>
<event>
 6    1  0.1568961E-005  0.1158881E+04  0.7818608E-02  0.9149630E-01
         -2   -1    0    0    0  501 -0.00000000000E+00  0.00000000000E+00  0.16899774621E+03  0.16899774621E+03  0.00000000000E+00 0.  1.
          2   -1    0    0  501    0  0.00000000000E+00 -0.00000000000E+00 -0.19867191154E+04  0.19867191154E+04  0.00000000000E+00 0. -1.
         23    2    1    2    0    0  0.40959044937E+03  0.30563781524E+03 -0.14081443199E+04  0.15007877283E+04  0.91184261365E+02 0.  0.
         13    1    3    3    0    0  0.45170802237E+02  0.67081757354E+02 -0.16974365089E+03  0.18802465413E+03  0.00000000000E+00 0.  1.
        -13    1    3    3    0    0  0.36441964714E+03  0.23855605788E+03 -0.12384006690E+04  0.13127630742E+04  0.00000000000E+00 0. -1.
         22    1    1    2    0    0 -0.40959044937E+03 -0.30563781524E+03 -0.40957704930E+03  0.65492913329E+03  0.00000000000E+00 0.  1.
<mgrwt>
<rscale>  0 0.11588806E+04</rscale>
<asrwt>0</asrwt>
<pdfrwt beam="1">  1        2 0.30564908E+00 0.11588806E+04</pdfrwt>
<pdfrwt beam="2">  1       -2 0.25999655E-01 0.11588806E+04</pdfrwt>
<totfact> 0.89945685E+01</totfact>
</mgrwt>
</event>
<event>
 6    1  0.1568961E-005  0.3204180E+04  0.7818608E-02  0.8187714E-01
         -2   -1    0    0    0  501 -0.00000000000E+00  0.00000000000E+00  0.12209529153E+04  0.12209529153E+04  0.00000000000E+00 0.  1.
          2   -1    0    0  501    0  0.00000000000E+00 -0.00000000000E+00 -0.21022035635E+04  0.21022035635E+04  0.00000000000E+00 0. -1.
         23    2    1    2    0    0  0.14819225323E+04  0.34777718784E+03 -0.95588312733E+03  0.17991442180E+04  0.78511146589E+02 0.  0.
         11    1    3    3    0    0  0.87356418700E+03  0.17189198870E+03 -0.53325626825E+03  0.10377974235E+04  0.00000000000E+00 0. -1.
        -11    1    3    3    0    0  0.60835834527E+03  0.17588519914E+03 -0.42262685908E+03  0.76134679454E+03  0.00000000000E+00 0.  1.
         22    1    1    2    0    0 -0.14819225323E+04 -0.34777718784E+03  0.74632479199E+02  0.15240122608E+04  0.00000000000E+00 0.  1.
<mgrwt>
<rscale>  0 0.32041795E+04</rscale>
<asrwt>0</asrwt>
<pdfrwt beam="1">  1        2 0.32341593E+00 0.32041795E+04</pdfrwt>
<pdfrwt beam="2">  1       -2 0.18783891E+00 0.32041795E+04</pdfrwt>
<totfact> 0.79057899E-01</totfact>
</mgrwt>
</event>
<event>
 6    1  0.1568961E-005  0.3458752E+04  0.7818608E-02  0.8123635E-01
          1   -1    0    0  501    0  0.00000000000E+00  0.00000000000E+00  0.26529695897E+04  0.26529695897E+04  0.00000000000E+00 0. -1.
         -1   -1    0    0    0  501 -0.00000000000E+00 -0.00000000000E+00 -0.11273184465E+04  0.11273184465E+04  0.00000000000E+00 0.  1.
         23    2    1    2    0    0  0.36501540078E+03 -0.85666238644E+03 -0.82780526103E+03  0.12493072513E+04  0.91653537296E+02 0.  0.
         11    1    3    3    0    0  0.24332457435E+03 -0.66649237244E+03 -0.64328495312E+03  0.95772358325E+03  0.00000000000E+00 0. -1.
        -11    1    3    3    0    0  0.12169082643E+03 -0.19017001400E+03 -0.18452030791E+03  0.29158366808E+03  0.00000000000E+00 0.  1.
         22    1    1    2    0    0 -0.36501540078E+03  0.85666238644E+03  0.23534564042E+04  0.25309807849E+04  0.00000000000E+00 0. -1.
<mgrwt>
<rscale>  0 0.34587521E+04</rscale>
<asrwt>0</asrwt>
<pdfrwt beam="1">  1        1 0.40814917E+00 0.34587521E+04</pdfrwt>
<pdfrwt beam="2">  1       -1 0.17343361E+00 0.34587521E+04</pdfrwt>
<totfact> 0.20129736E-01</totfact>
</mgrwt>
</event>
<event>
 6    1  0.1568961E-005  0.9142981E+03  0.7818608E-02  0.9407883E-01
         -2   -1    0    0    0  501 -0.00000000000E+00  0.00000000000E+00  0.10569437242E+03  0.10569437242E+03  0.00000000000E+00 0.  1.
          2   -1    0    0  501    0  0.00000000000E+00 -0.00000000000E+00 -0.19772597942E+04  0.19772597942E+04  0.00000000000E+00 0. -1.
         23    2    1    2    0    0 -0.61192954834E+02  0.41342188834E+03 -0.13410173417E+04  0.14075702012E+04  0.90907233485E+02 0.  0.
         13    1    3    3    0    0 -0.23793124048E+02  0.35809067740E+03 -0.11763210098E+04  0.12298480248E+04  0.00000000000E+00 0. -1.
        -13    1    3    3    0    0 -0.37399830787E+02  0.55331210939E+02 -0.16469633191E+03  0.17772217642E+03  0.00000000000E+00 0.  1.
         22    1    1    2    0    0  0.61192954834E+02 -0.41342188834E+03 -0.53054808009E+03  0.67538396543E+03  0.00000000000E+00 0.  1.
<mgrwt>
<rscale>  0 0.91429805E+03</rscale>
<asrwt>0</asrwt>
<pdfrwt beam="1">  1        2 0.30419380E+00 0.91429805E+03</pdfrwt>
<pdfrwt beam="2">  1       -2 0.16260673E-01 0.91429805E+03</pdfrwt>
<totfact> 0.21222188E+02</totfact>
</mgrwt>
</event>
<event>
 6    1  0.1568961E-005  0.4029334E+04  0.7818608E-02  0.7998655E-01
          1   -1    0    0  501    0  0.00000000000E+00  0.00000000000E+00  0.30472653629E+04  0.30472653629E+04  0.00000000000E+00 0. -1.
         -1   -1    0    0    0  501 -0.00000000000E+00 -0.00000000000E+00 -0.13319756732E+04  0.13319756732E+04  0.00000000000E+00 0.  1.
         23    2    1    2    0    0 -0.75026127884E+03  0.15976433885E+04 -0.19568006138E+03  0.17778641366E+04  0.84580248906E+02 0.  0.
         13    1    3    3    0    0 -0.56740353194E+02  0.15866439651E+03 -0.37846635052E+02  0.17270271041E+03  0.00000000000E+00 0. -1.
        -13    1    3    3    0    0 -0.69352092564E+03  0.14389789920E+04 -0.15783342633E+03  0.16051614262E+04  0.00000000000E+00 0.  1.
         22    1    1    2    0    0  0.75026127884E+03 -0.15976433885E+04  0.19109697511E+04  0.26013768994E+04  0.00000000000E+00 0. -1.
<mgrwt>
<rscale>  0 0.40293341E+04</rscale>
<asrwt>0</asrwt>
<pdfrwt beam="1">  1        1 0.46881005E+00 0.40293341E+04</pdfrwt>
<pdfrwt beam="2">  1       -1 0.20491934E+00 0.40293341E+04</pdfrwt>
<totfact> 0.59964732E-02</totfact>
</mgrwt>
</event>
<event>
 6    1  0.1568961E-005  0.1880052E+04  0.7818608E-02  0.8664850E-01
          1   -1    0    0  501    0  0.00000000000E+00  0.00000000000E+00  0.53359329513E+03  0.53359329513E+03  0.00000000000E+00 0. -1.
         -1   -1    0    0    0  501 -0.00000000000E+00 -0.00000000000E+00 -0.16560351262E+04  0.16560351262E+04  0.00000000000E+00 0.  1.
         23    2    1    2    0    0 -0.89879488041E+03 -0.26598036413E+03 -0.53309140953E+03  0.10824194481E+04  0.94168038531E+02 0.  0.
         11    1    3    3    0    0 -0.64724344782E+02 -0.46073770283E+02 -0.47010978017E+02  0.92315032197E+02  0.00000000000E+00 0. -1.
        -11    1    3    3    0    0 -0.83407053562E+03 -0.21990659385E+03 -0.48608043152E+03  0.99010441587E+03  0.00000000000E+00 0.  1.
         22    1    1    2    0    0  0.89879488041E+03  0.26598036413E+03 -0.58935042158E+03  0.11072089733E+04  0.00000000000E+00 0.  1.
<mgrwt>
<rscale>  0 0.18800524E+04</rscale>
<asrwt>0</asrwt>
<pdfrwt beam="1">  1        1 0.82091279E-01 0.18800524E+04</pdfrwt>
<pdfrwt beam="2">  1       -1 0.25477463E+00 0.18800524E+04</pdfrwt>
<totfact> 0.24622597E+00</totfact>
</mgrwt>
</event>
<event>
 6    1  0.1568961E-005  0.2257635E+04  0.7818608E-02  0.8494815E-01
         -2   -1    0    0    0  501 -0.00000000000E+00  0.00000000000E+00  0.50725540582E+03  0.50725540582E+03  0.00000000000E+00 0.  1.
          2   -1    0    0  501    0  0.00000000000E+00 -0.00000000000E+00 -0.25120063197E+04  0.25120063197E+04  0.00000000000E+00 0. -1.
         23    2    1    2    0    0  0.70446582371E+03 -0.56843985527E+03 -0.11040784399E+03  0.91975425178E+03  0.11984166975E+03 0.  0.
         11    1    3    3    0    0  0.59270398488E+03 -0.44432586167E+03 -0.51101408809E+02  0.74251925162E+03  0.00000000000E+00 0.  1.
        -11    1    3    3    0    0  0.11176183883E+03 -0.12411399360E+03 -0.59306435185E+02  0.17723500016E+03  0.00000000000E+00 0. -1.
         22    1    1    2    0    0 -0.70446582371E+03  0.56843985527E+03 -0.18943430699E+04  0.20995074737E+04  0.00000000000E+00 0. -1.
<mgrwt>
<rscale>  0 0.22576349E+04</rscale>
<asrwt>0</asrwt>
<pdfrwt beam="1">  1        2 0.38646252E+00 0.22576349E+04</pdfrwt>
<pdfrwt beam="2">  1       -2 0.78039292E-01 0.22576349E+04</pdfrwt>
<totfact> 0.45548979E+00</totfact>
</mgrwt>
</event>
<event>
 6    1  0.1568961E-005  0.2434894E+04  0.7818608E-02  0.8426554E-01
         -1   -1    0    0    0  501 -0.00000000000E+00  0.00000000000E+00  0.17894387188E+04  0.17894387188E+04  0.00000000000E+00 0.  1.
          1   -1    0    0  501    0  0.00000000000E+00 -0.00000000000E+00 -0.82829136372E+03  0.82829136372E+03  0.00000000000E+00 0. -1.
         23    2    1    2    0    0 -0.82068635323E+03  0.20837546062E+03  0.14191903837E+04  0.16550516112E+04  0.90266646674E+02 0.  0.
         11    1    3    3    0    0 -0.32254277169E+03  0.10180552796E+03  0.49028207915E+03  0.59562968548E+03  0.00000000000E+00 0.  1.
        -11    1    3    3    0    0 -0.49814358155E+03  0.10656993266E+03  0.92890830457E+03  0.10594219257E+04  0.00000000000E+00 0. -1.
         22    1    1    2    0    0  0.82068635323E+03 -0.20837546062E+03 -0.45804302868E+03  0.96267847129E+03  0.00000000000E+00 0. -1.
<mgrwt>
<rscale>  0 0.24348935E+04</rscale>
<asrwt>0</asrwt>
<pdfrwt beam="1">  1        1 0.12742944E+00 0.24348935E+04</pdfrwt>
<pdfrwt beam="2">  1       -1 0.27529826E+00 0.24348935E+04</pdfrwt>
<totfact> 0.89135303E-01</totfact>
</mgrwt>
</event>
<event>
 6    1  0.1568961E-005  0.2887499E+04  0.7818608E-02  0.8276607E-01
          2   -1    0    0  501    0  0.00000000000E+00  0.00000000000E+00  0.77125035495E+03  0.77125035495E+03  0.00000000000E+00 0. -1.
         -2   -1    0    0    0  501 -0.00000000000E+00 -0.00000000000E+00 -0.27026407924E+04  0.27026407924E+04  0.00000000000E+00 0.  1.
         23    2    1    2    0    0 -0.69201669627E+03  0.71329250492E+03  0.29078218992E+03  0.10396100437E+04  0.92528134062E+02 0.  0.
         11    1    3    3    0    0 -0.24060965619E+03  0.27382637041E+03  0.64351982122E+02  0.37015546110E+03  0.00000000000E+00 0.  1.
        -11    1    3    3    0    0 -0.45140704009E+03  0.43946613451E+03  0.22643020779E+03  0.66945458264E+03  0.00000000000E+00 0. -1.
         22    1    1    2    0    0  0.69201669627E+03 -0.71329250492E+03 -0.22221726274E+04  0.24342811036E+04  0.00000000000E+00 0.  1.
<mgrwt>
<rscale>  0 0.28874990E+04</rscale>
<asrwt>0</asrwt>
<pdfrwt beam="1">  1        2 0.11865390E+00 0.28874990E+04</pdfrwt>
<pdfrwt beam="2">  1       -2 0.41579089E+00 0.28874990E+04</pdfrwt>
<totfact> 0.18244256E-01</totfact>
</mgrwt>
</event>
<event>
 6    1  0.1568961E-005  0.2645647E+04  0.7818608E-02  0.8352859E-01
         -2   -1    0    0    0  501 -0.00000000000E+00  0.00000000000E+00  0.74987866838E+03  0.74987866838E+03  0.00000000000E+00 0.  1.
          2   -1    0    0  501    0  0.00000000000E+00 -0.00000000000E+00 -0.23335274906E+04  0.23335274906E+04  0.00000000000E+00 0. -1.
         23    2    1    2    0    0  0.86943900520E+03  0.17819069821E+03  0.34799780392E+03  0.95762752587E+03  0.90949975730E+02 0.  0.
         11    1    3    3    0    0  0.49713882004E+03  0.58984250604E+02  0.21301393036E+03  0.54405981541E+03  0.00000000000E+00 0. -1.
        -11    1    3    3    0    0  0.37230018516E+03  0.11920644761E+03  0.13498387355E+03  0.41356771047E+03  0.00000000000E+00 0.  1.
         22    1    1    2    0    0 -0.86943900520E+03 -0.17819069821E+03 -0.19316466262E+04  0.21257786331E+04  0.00000000000E+00 0. -1.
<mgrwt>
<rscale>  0 0.26456474E+04</rscale>
<asrwt>0</asrwt>
<pdfrwt beam="1">  1        2 0.35900423E+00 0.26456474E+04</pdfrwt>
<pdfrwt beam="2">  1       -2 0.11536595E+00 0.26456474E+04</pdfrwt>
<totfact> 0.22367580E+00</totfact>
</mgrwt>
</event>
<event>
 6    1  0.1904131E-005  0.3656241E+04  0.7818608E-02  0.8077729E-01
         -1   -1    0    0    0  501 -0.00000000000E+00  0.00000000000E+00  0.21033309962E+04  0.21033309962E+04  0.00000000000E+00 0.  1.
          1   -1    0    0  501    0  0.00000000000E+00 -0.00000000000E+00 -0.15889197285E+04  0.15889197285E+04  0.00000000000E+00 0. -1.
         23    2    1    2    0    0  0.99164036899E+03 -0.15831988160E+03 -0.12839108758E+04  0.16325472659E+04  0.91474762881E+02 0.  0.
         13    1    3    3    0    0  0.70477340566E+03 -0.13063278650E+03 -0.97432652271E+03  0.12095795348E+04  0.00000000000E+00 0.  1.
        -13    1    3    3    0    0  0.28686696333E+03 -0.27687095098E+02 -0.30958435305E+03  0.42296773108E+03  0.00000000000E+00 0. -1.
         22    1    1    2    0    0 -0.99164036899E+03  0.15831988160E+03  0.17983221435E+04  0.20597034588E+04  0.00000000000E+00 0.  1.
<mgrwt>
<rscale>  0 0.36562408E+04</rscale>
<asrwt>0</asrwt>
<pdfrwt beam="1">  1        1 0.24444919E+00 0.36562408E+04</pdfrwt>
<pdfrwt beam="2">  1       -1 0.32358939E+00 0.36562408E+04</pdfrwt>
<totfact> 0.10601401E-01</totfact>
</mgrwt>
</event>
<event>
 6    1  0.1568961E-005  0.2448629E+04  0.7818608E-02  0.8421519E-01
         -2   -1    0    0    0  501 -0.00000000000E+00  0.00000000000E+00  0.56556684877E+03  0.56556684877E+03  0.00000000000E+00 0.  1.
          2   -1    0    0  501    0  0.00000000000E+00 -0.00000000000E+00 -0.26503437599E+04  0.26503437599E+04  0.00000000000E+00 0. -1.
         23    2    1    2    0    0 -0.24190698113E+03  0.27612965910E+03 -0.25754576426E+04  0.26031021914E+04  0.91609900661E+02 0.  0.
         11    1    3    3    0    0 -0.81189612815E+02  0.13558478452E+03 -0.13458340978E+04  0.13550809592E+04  0.00000000000E+00 0.  1.
        -11    1    3    3    0    0 -0.16071736832E+03  0.14054487458E+03 -0.12296235448E+04  0.12480212322E+04  0.00000000000E+00 0. -1.
         22    1    1    2    0    0  0.24190698113E+03 -0.27612965910E+03  0.49068073142E+03  0.61280841732E+03  0.00000000000E+00 0.  1.
<mgrwt>
<rscale>  0 0.24486295E+04</rscale>
<asrwt>0</asrwt>
<pdfrwt beam="1">  1        2 0.40774520E+00 0.24486295E+04</pdfrwt>
<pdfrwt beam="2">  1       -2 0.87010282E-01 0.24486295E+04</pdfrwt>
<totfact> 0.29073696E+00</totfact>
</mgrwt>
</event>
<event>
 6    1  0.1568961E-005  0.2347292E+04  0.7818608E-02  0.8459504E-01
          1   -1    0    0  501    0  0.00000000000E+00  0.00000000000E+00  0.60815517109E+03  0.60815517109E+03  0.00000000000E+00 0. -1.
         -1   -1    0    0    0  501 -0.00000000000E+00 -0.00000000000E+00 -0.22649564363E+04  0.22649564363E+04  0.00000000000E+00 0.  1.
         23    2    1    2    0    0 -0.22366882995E+03  0.10265058820E+04 -0.14652207112E+04  0.18051953280E+04  0.90090888992E+02 0.  0.
         13    1    3    3    0    0 -0.17510798184E+03  0.86035967968E+03 -0.12742797735E+04  0.15474723018E+04  0.00000000000E+00 0. -1.
        -13    1    3    3    0    0 -0.48560848110E+02  0.16614620232E+03 -0.19094093766E+03  0.25772302611E+03  0.00000000000E+00 0.  1.
         22    1    1    2    0    0  0.22366882995E+03 -0.10265058820E+04 -0.19158055405E+03  0.10679162795E+04  0.00000000000E+00 0. -1.
<mgrwt>
<rscale>  0 0.23472920E+04</rscale>
<asrwt>0</asrwt>
<pdfrwt beam="1">  1        1 0.93562335E-01 0.23472920E+04</pdfrwt>
<pdfrwt beam="2">  1       -1 0.34845483E+00 0.23472920E+04</pdfrwt>
<totfact> 0.48122618E-01</totfact>
</mgrwt>
</event>
<event>
 6    1  0.1568961E-005  0.3713712E+04  0.7818608E-02  0.8064930E-01
          2   -1    0    0  501    0  0.00000000000E+00  0.00000000000E+00  0.34414862276E+04  0.34414862276E+04  0.00000000000E+00 0.  1.
         -2   -1    0    0    0  501 -0.00000000000E+00 -0.00000000000E+00 -0.10018676832E+04  0.10018676832E+04  0.00000000000E+00 0. -1.
         23    2    1    2    0    0 -0.69066319324E+03 -0.94080641873E+01  0.32816828256E+04  0.33542366482E+04  0.66008833869E+02 0.  0.
         13    1    3    3    0    0 -0.20112269132E+03  0.26113776799E+02  0.92022117282E+03  0.94230529724E+03  0.00000000000E+00 0.  1.
        -13    1    3    3    0    0 -0.48954050192E+03 -0.35521840986E+02  0.23614616528E+04  0.24119313510E+04  0.00000000000E+00 0. -1.
         22    1    1    2    0    0  0.69066319324E+03  0.94080641873E+01 -0.84206428119E+03  0.10891172627E+04  0.00000000000E+00 0. -1.
<mgrwt>
<rscale>  0 0.37137118E+04</rscale>
<asrwt>0</asrwt>
<pdfrwt beam="1">  1        2 0.52945941E+00 0.37137118E+04</pdfrwt>
<pdfrwt beam="2">  1       -2 0.15413349E+00 0.37137118E+04</pdfrwt>
<totfact> 0.20059882E-01</totfact>
</mgrwt>
</event>
<event>
 6    1  0.1568961E-005  0.3618484E+04  0.7818608E-02  0.8086271E-01
         -2   -1    0    0    0  501 -0.00000000000E+00  0.00000000000E+00  0.18569082464E+04  0.18569082464E+04  0.00000000000E+00 0.  1.
          2   -1    0    0  501    0  0.00000000000E+00 -0.00000000000E+00 -0.17627992966E+04  0.17627992966E+04  0.00000000000E+00 0. -1.
         23    2    1    2    0    0  0.21960464444E+03  0.61485832514E+03 -0.16395501363E+04  0.17671820271E+04  0.92361831382E+02 0.  0.
         13    1    3    3    0    0  0.72957332039E+02  0.32599487156E+03 -0.88952820164E+03  0.95018727107E+03  0.00000000000E+00 0. -1.
        -13    1    3    3    0    0  0.14664731240E+03  0.28886345359E+03 -0.75002193462E+03  0.81699475608E+03  0.00000000000E+00 0.  1.
         22    1    1    2    0    0 -0.21960464444E+03 -0.61485832514E+03  0.17336590861E+04  0.18525255158E+04  0.00000000000E+00 0.  1.
<mgrwt>
<rscale>  0 0.36184840E+04</rscale>
<asrwt>0</asrwt>
<pdfrwt beam="1">  1        2 0.27119989E+00 0.36184840E+04</pdfrwt>
<pdfrwt beam="2">  1       -2 0.28567819E+00 0.36184840E+04</pdfrwt>
<totfact> 0.28634275E-01</totfact>
</mgrwt>
</event>
<event>
 6    1  0.1568961E-005  0.2864532E+03  0.7818608E-02  0.1092216E+00
          1   -1    0    0  501    0  0.00000000000E+00  0.00000000000E+00  0.60870391306E+03  0.60870391306E+03  0.00000000000E+00 0. -1.
         -1   -1    0    0    0  501 -0.00000000000E+00 -0.00000000000E+00 -0.33700891427E+02  0.33700891427E+02  0.00000000000E+00 0.  1.
         23    2    1    2    0    0  0.13421602031E+02 -0.12032519392E+03  0.41280796620E+03  0.44000537835E+03  0.92390607337E+02 0.  0.
         11    1    3    3    0    0  0.88501209425E+00 -0.33640205319E+02  0.27273193560E+03  0.27480020989E+03  0.00000000000E+00 0. -1.
        -11    1    3    3    0    0  0.12536589937E+02 -0.86684988605E+02  0.14007603060E+03  0.16520516846E+03  0.00000000000E+00 0.  1.
         22    1    1    2    0    0 -0.13421602031E+02  0.12032519392E+03  0.16219505543E+03  0.20239942614E+03  0.00000000000E+00 0.  1.
<mgrwt>
<rscale>  0 0.28645324E+03</rscale>
<asrwt>0</asrwt>
<pdfrwt beam="1">  1        1 0.93646748E-01 0.28645324E+03</pdfrwt>
<pdfrwt beam="2">  1       -1 0.51847530E-02 0.28645324E+03</pdfrwt>
<totfact> 0.57319522E+03</totfact>
</mgrwt>
</event>
<event>
 6    1  0.1568961E-005  0.1696232E+04  0.7818608E-02  0.8763516E-01
         -2   -1    0    0    0  501 -0.00000000000E+00  0.00000000000E+00  0.59193611419E+03  0.59193611419E+03  0.00000000000E+00 0. -1.
          2   -1    0    0  501    0  0.00000000000E+00 -0.00000000000E+00 -0.12151665176E+04  0.12151665176E+04  0.00000000000E+00 0.  1.
         23    2    1    2    0    0  0.50455956739E+03  0.25032210639E+03 -0.98454692058E+03  0.11379306512E+04  0.91170248044E+02 0.  0.
         11    1    3    3    0    0  0.15606192970E+03  0.12290429514E+03 -0.37360080983E+03  0.42312924358E+03  0.00000000000E+00 0. -1.
        -11    1    3    3    0    0  0.34849763769E+03  0.12741781125E+03 -0.61094611074E+03  0.71480140762E+03  0.00000000000E+00 0.  1.
         22    1    1    2    0    0 -0.50455956739E+03 -0.25032210639E+03  0.36131651718E+03  0.66917198057E+03  0.00000000000E+00 0. -1.
<mgrwt>
<rscale>  0 0.16962322E+04</rscale>
<asrwt>0</asrwt>
<pdfrwt beam="1">  1        2 0.18694869E+00 0.16962322E+04</pdfrwt>
<pdfrwt beam="2">  1       -2 0.91067095E-01 0.16962322E+04</pdfrwt>
<totfact> 0.18160391E+01</totfact>
</mgrwt>
</event>
<event>
 6    1  0.1568961E-005  0.2633661E+04  0.7818608E-02  0.8356856E-01
          2   -1    0    0  501    0  0.00000000000E+00  0.00000000000E+00  0.93849426013E+03  0.93849426013E+03  0.00000000000E+00 0. -1.
         -2   -1    0    0    0  501 -0.00000000000E+00 -0.00000000000E+00 -0.18476861320E+04  0.18476861320E+04  0.00000000000E+00 0.  1.
         23    2    1    2    0    0 -0.89858960916E+03  0.28505176609E+02  0.55951608739E+03  0.10641528371E+04  0.10529566851E+03 0.  0.
         13    1    3    3    0    0 -0.74528718673E+03  0.39289072942E+01  0.42042677942E+03  0.85570269596E+03  0.00000000000E+00 0. -1.
        -13    1    3    3    0    0 -0.15330242243E+03  0.24576269315E+02  0.13908930798E+03  0.20845014111E+03  0.00000000000E+00 0.  1.
         22    1    1    2    0    0  0.89858960916E+03 -0.28505176609E+02 -0.14687079593E+04  0.17220275551E+04  0.00000000000E+00 0.  1.
<mgrwt>
<rscale>  0 0.26336612E+04</rscale>
<asrwt>0</asrwt>
<pdfrwt beam="1">  1        2 0.14438373E+00 0.26336612E+04</pdfrwt>
<pdfrwt beam="2">  1       -2 0.28425940E+00 0.26336612E+04</pdfrwt>
<totfact> 0.96677585E-01</totfact>
</mgrwt>
</event>
<event>
 6    1  0.1568961E-005  0.9397287E+03  0.7818608E-02  0.9377237E-01
          1   -1    0    0  501    0  0.00000000000E+00  0.00000000000E+00  0.68944175114E+03  0.68944175114E+03  0.00000000000E+00 0. -1.
         -1   -1    0    0    0  501 -0.00000000000E+00 -0.00000000000E+00 -0.32021919993E+03  0.32021919993E+03  0.00000000000E+00 0.  1.
         23    2    1    2    0    0  0.10913996409E+03  0.40949423796E+03 -0.20800365794E+02  0.43371395831E+03  0.89878138263E+02 0.  0.
         11    1    3    3    0    0  0.43207454268E+02  0.31305911729E+03 -0.72372032383E+01  0.31610958880E+03  0.00000000000E+00 0.  1.
        -11    1    3    3    0    0  0.65932509821E+02  0.96435120666E+02 -0.13563162556E+02  0.11760436951E+03  0.00000000000E+00 0. -1.
         22    1    1    2    0    0 -0.10913996409E+03 -0.40949423796E+03  0.39002291700E+03  0.57594699276E+03  0.00000000000E+00 0. -1.
<mgrwt>
<rscale>  0 0.93972865E+03</rscale>
<asrwt>0</asrwt>
<pdfrwt beam="1">  1        1 0.10606796E+00 0.93972865E+03</pdfrwt>
<pdfrwt beam="2">  1       -1 0.49264492E-01 0.93972865E+03</pdfrwt>
<totfact> 0.11574786E+02</totfact>
</mgrwt>
</event>
<event>
 6    1  0.1568961E-005  0.1152370E+04  0.7818608E-02  0.9155600E-01
         -3   -1    0    0    0  501 -0.00000000000E+00  0.00000000000E+00  0.69611260651E+03  0.69611260651E+03  0.00000000000E+00 0.  1.
          3   -1    0    0  501    0  0.00000000000E+00 -0.00000000000E+00 -0.47691887451E+03  0.47691887451E+03  0.00000000000E+00 0. -1.
         23    2    1    2    0    0 -0.14062881114E+01  0.28062375042E+03 -0.39781597088E+03  0.49520212167E+03  0.90641754595E+02 0.  0.
         11    1    3    3    0    0 -0.14358097160E+01  0.62239010441E+02 -0.16322760453E+03  0.17469689994E+03  0.00000000000E+00 0.  1.
        -11    1    3    3    0    0  0.29521604615E-01  0.21838473998E+03 -0.23458836635E+03  0.32050522173E+03  0.00000000000E+00 0. -1.
         22    1    1    2    0    0  0.14062881114E+01 -0.28062375042E+03  0.61700970288E+03  0.67782935935E+03  0.00000000000E+00 0.  1.
<mgrwt>
<rscale>  0 0.11523702E+04</rscale>
<asrwt>0</asrwt>
<pdfrwt beam="1">  1        3 0.73372135E-01 0.11523702E+04</pdfrwt>
<pdfrwt beam="2">  1       -3 0.10709425E+00 0.11523702E+04</pdfrwt>
<totfact> 0.33962454E+00</totfact>
</mgrwt>
</event>
<event>
 6    1  0.1568961E-005  0.1648115E+04  0.7818608E-02  0.8791522E-01
         -1   -1    0    0    0  501 -0.00000000000E+00  0.00000000000E+00  0.10781286151E+04  0.10781286151E+04  0.00000000000E+00 0.  1.
          1   -1    0    0  501    0  0.00000000000E+00 -0.00000000000E+00 -0.62986088882E+03  0.62986088882E+03  0.00000000000E+00 0. -1.
         23    2    1    2    0    0 -0.41877286121E+03 -0.64461794904E+03 -0.70758535436E+02  0.78047062548E+03  0.11499833647E+03 0.  0.
         11    1    3    3    0    0 -0.26634335484E+03 -0.32886009594E+03 -0.21324134450E+01  0.42319297319E+03  0.00000000000E+00 0. -1.
        -11    1    3    3    0    0 -0.15242950636E+03 -0.31575785310E+03 -0.68626121991E+02  0.35727765229E+03  0.00000000000E+00 0.  1.
         22    1    1    2    0    0  0.41877286121E+03  0.64461794904E+03  0.51902626169E+03  0.92751887842E+03  0.00000000000E+00 0.  1.
<mgrwt>
<rscale>  0 0.16481153E+04</rscale>
<asrwt>0</asrwt>
<pdfrwt beam="1">  1        1 0.96901675E-01 0.16481153E+04</pdfrwt>
<pdfrwt beam="2">  1       -1 0.16586594E+00 0.16481153E+04</pdfrwt>
<totfact> 0.80508324E+00</totfact>
</mgrwt>
</event>
<event>
 6    1  0.1568961E-005  0.7402250E+03  0.7818608E-02  0.9650812E-01
          2   -1    0    0  501    0  0.00000000000E+00  0.00000000000E+00  0.15788954261E+03  0.15788954261E+03  0.00000000000E+00 0. -1.
         -2   -1    0    0    0  501 -0.00000000000E+00 -0.00000000000E+00 -0.86758926102E+03  0.86758926102E+03  0.00000000000E+00 0.  1.
         23    2    1    2    0    0  0.33061158226E+03 -0.22124307070E+02 -0.57032084070E+03  0.66600700384E+03  0.92227786183E+02 0.  0.
         11    1    3    3    0    0  0.22215094810E+03 -0.51908244930E+02 -0.42369631519E+03  0.48121105259E+03  0.00000000000E+00 0. -1.
        -11    1    3    3    0    0  0.10846063416E+03  0.29783937860E+02 -0.14662452551E+03  0.18479595125E+03  0.00000000000E+00 0.  1.
         22    1    1    2    0    0 -0.33061158226E+03  0.22124307070E+02 -0.13937887772E+03  0.35947179979E+03  0.00000000000E+00 0. -1.
<mgrwt>
<rscale>  0 0.74022502E+03</rscale>
<asrwt>0</asrwt>
<pdfrwt beam="1">  1        2 0.24290699E-01 0.74022502E+03</pdfrwt>
<pdfrwt beam="2">  1       -2 0.13347527E+00 0.74022502E+03</pdfrwt>
<totfact> 0.92944367E+01</totfact>
</mgrwt>
</event>
<event>
 6    1  0.1568961E-005  0.3078407E+04  0.7818608E-02  0.8221689E-01
         -1   -1    0    0    0  501 -0.00000000000E+00  0.00000000000E+00  0.13092952614E+04  0.13092952614E+04  0.00000000000E+00 0.  1.
          1   -1    0    0  501    0  0.00000000000E+00 -0.00000000000E+00 -0.18094824021E+04  0.18094824021E+04  0.00000000000E+00 0. -1.
         23    2    1    2    0    0 -0.73976124292E+03 -0.73318270469E+03 -0.13966488596E+04  0.17445698232E+04  0.89956966954E+02 0.  0.
         13    1    3    3    0    0 -0.17556978148E+03 -0.12423682653E+03 -0.30133202552E+03  0.37021686461E+03  0.00000000000E+00 0. -1.
        -13    1    3    3    0    0 -0.56419146145E+03 -0.60894587815E+03 -0.10953168341E+04  0.13743529586E+04  0.00000000000E+00 0.  1.
         22    1    1    2    0    0  0.73976124292E+03  0.73318270469E+03  0.89646171886E+03  0.13742078403E+04  0.00000000000E+00 0.  1.
<mgrwt>
<rscale>  0 0.30784066E+04</rscale>
<asrwt>0</asrwt>
<pdfrwt beam="1">  1        1 0.27838191E+00 0.30784066E+04</pdfrwt>
<pdfrwt beam="2">  1       -1 0.20143004E+00 0.30784066E+04</pdfrwt>
<totfact> 0.49927497E-01</totfact>
</mgrwt>
</event>
<event>
 6    1  0.1568961E-005  0.2336806E+04  0.7818608E-02  0.8463549E-01
         -1   -1    0    0    0  501 -0.00000000000E+00  0.00000000000E+00  0.11784697693E+04  0.11784697693E+04  0.00000000000E+00 0.  1.
          1   -1    0    0  501    0  0.00000000000E+00 -0.00000000000E+00 -0.11584218155E+04  0.11584218155E+04  0.00000000000E+00 0. -1.
         23    2    1    2    0    0  0.90711230040E+03 -0.69483950582E+03 -0.22604531315E+03  0.11680389165E+04  0.86969893526E+02 0.  0.
         11    1    3    3    0    0  0.65680800894E+03 -0.54179854729E+03 -0.19074012020E+03  0.87253895036E+03  0.00000000000E+00 0. -1.
        -11    1    3    3    0    0  0.25030429146E+03 -0.15304095853E+03 -0.35305192952E+02  0.29549996610E+03  0.00000000000E+00 0.  1.
         22    1    1    2    0    0 -0.90711230040E+03  0.69483950582E+03  0.24609326698E+03  0.11688526684E+04  0.00000000000E+00 0.  1.
<mgrwt>
<rscale>  0 0.23368056E+04</rscale>
<asrwt>0</asrwt>
<pdfrwt beam="1">  1        1 0.17821874E+00 0.23368056E+04</pdfrwt>
<pdfrwt beam="2">  1       -1 0.18130304E+00 0.23368056E+04</pdfrwt>
<totfact> 0.21043348E+00</totfact>
</mgrwt>
</event>
<event>
 6    1  0.1568961E-005  0.1521551E+04  0.7818608E-02  0.8870247E-01
         -2   -1    0    0    0  501 -0.00000000000E+00  0.00000000000E+00  0.24564172703E+03  0.24564172703E+03  0.00000000000E+00 0.  1.
          2   -1    0    0  501    0  0.00000000000E+00 -0.00000000000E+00 -0.23561923697E+04  0.23561923697E+04  0.00000000000E+00 0. -1.
         23    2    1    2    0    0 -0.22513954272E+03  0.57274286616E+03 -0.18162773210E+04  0.19196911555E+04  0.87341978874E+02 0.  0.
         11    1    3    3    0    0 -0.99834886219E+02  0.20190248580E+03 -0.78308644534E+03  0.81483495209E+03  0.00000000000E+00 0. -1.
        -11    1    3    3    0    0 -0.12530465650E+03  0.37084038036E+03 -0.10331908756E+04  0.11048562034E+04  0.00000000000E+00 0.  1.
         22    1    1    2    0    0  0.22513954272E+03 -0.57274286616E+03 -0.29427332167E+03  0.68214294124E+03  0.00000000000E+00 0.  1.
<mgrwt>
<rscale>  0 0.15215507E+04</rscale>
<asrwt>0</asrwt>
<pdfrwt beam="1">  1        2 0.36249116E+00 0.15215507E+04</pdfrwt>
<pdfrwt beam="2">  1       -2 0.37791032E-01 0.15215507E+04</pdfrwt>
<totfact> 0.26890802E+01</totfact>
</mgrwt>
</event>
<event>
 6    1  0.1568961E-005  0.3624421E+04  0.7818608E-02  0.8084921E-01
          2   -1    0    0  501    0  0.00000000000E+00  0.00000000000E+00  0.79739818717E+03  0.79739818717E+03  0.00000000000E+00 0. -1.
         -2   -1    0    0    0  501 -0.00000000000E+00 -0.00000000000E+00 -0.41185286009E+04  0.41185286009E+04  0.00000000000E+00 0.  1.
         23    2    1    2    0    0  0.67288389662E+02 -0.76445179256E+03 -0.38865976817E+04  0.39626862615E+04  0.91250190343E+02 0.  0.
         11    1    3    3    0    0  0.52204451456E+02 -0.19803070670E+03 -0.92993549562E+03  0.95221924553E+03  0.00000000000E+00 0.  1.
        -11    1    3    3    0    0  0.15083938206E+02 -0.56642108586E+03 -0.29566621860E+04  0.30104670159E+04  0.00000000000E+00 0. -1.
         22    1    1    2    0    0 -0.67288389662E+02  0.76445179256E+03  0.56546726790E+03  0.95324052662E+03  0.00000000000E+00 0. -1.
<mgrwt>
<rscale>  0 0.36244212E+04</rscale>
<asrwt>0</asrwt>
<pdfrwt beam="1">  1        2 0.12267664E+00 0.36244212E+04</pdfrwt>
<pdfrwt beam="2">  1       -2 0.63361979E+00 0.36244212E+04</pdfrwt>
<totfact> 0.10685084E-02</totfact>
</mgrwt>
</event>
<event>
 6    1  0.1568961E-005  0.1400683E+04  0.7818608E-02  0.8953324E-01
         -2   -1    0    0    0  501 -0.00000000000E+00  0.00000000000E+00  0.11295098062E+04  0.11295098062E+04  0.00000000000E+00 0.  1.
          2   -1    0    0  501    0  0.00000000000E+00 -0.00000000000E+00 -0.43424006248E+03  0.43424006248E+03  0.00000000000E+00 0. -1.
         23    2    1    2    0    0  0.53672234100E+03  0.34640544471E+02  0.84497365433E+03  0.10054649061E+04  0.87797279220E+02 0.  0.
         13    1    3    3    0    0  0.27818914823E+03  0.55146848704E+02  0.39812402866E+03  0.48880785521E+03  0.00000000000E+00 0.  1.
        -13    1    3    3    0    0  0.25853319277E+03 -0.20506304233E+02  0.44684962567E+03  0.51665705090E+03  0.00000000000E+00 0. -1.
         22    1    1    2    0    0 -0.53672234100E+03 -0.34640544471E+02 -0.14970391057E+03  0.55828496263E+03  0.00000000000E+00 0. -1.
<mgrwt>
<rscale>  0 0.14006833E+04</rscale>
<asrwt>0</asrwt>
<pdfrwt beam="1">  1        2 0.66806164E-01 0.14006833E+04</pdfrwt>
<pdfrwt beam="2">  1       -2 0.17377074E+00 0.14006833E+04</pdfrwt>
<totfact> 0.14114758E+01</totfact>
</mgrwt>
</event>
<event>
 6    1  0.1568961E-005  0.2100297E+04  0.7818608E-02  0.8561113E-01
          2   -1    0    0  501    0  0.00000000000E+00  0.00000000000E+00  0.44399331080E+03  0.44399331080E+03  0.00000000000E+00 0. -1.
         -2   -1    0    0    0  501 -0.00000000000E+00 -0.00000000000E+00 -0.24838475874E+04  0.24838475874E+04  0.00000000000E+00 0.  1.
         23    2    1    2    0    0 -0.47785723355E+03 -0.20658034607E+03  0.24672900671E+03  0.58274258757E+03  0.87696896016E+02 0.  0.
         11    1    3    3    0    0 -0.14149011058E+03 -0.10098833452E+03  0.10270864358E+03  0.20190879269E+03  0.00000000000E+00 0. -1.
        -11    1    3    3    0    0 -0.33636712298E+03 -0.10559201154E+03  0.14402036313E+03  0.38083379487E+03  0.00000000000E+00 0.  1.
         22    1    1    2    0    0  0.47785723355E+03  0.20658034607E+03 -0.22865832833E+04  0.23450983106E+04  0.00000000000E+00 0.  1.
<mgrwt>
<rscale>  0 0.21002968E+04</rscale>
<asrwt>0</asrwt>
<pdfrwt beam="1">  1        2 0.68306664E-01 0.21002968E+04</pdfrwt>
<pdfrwt beam="2">  1       -2 0.38213039E+00 0.21002968E+04</pdfrwt>
<totfact> 0.63272115E-01</totfact>
</mgrwt>
</event>
<event>
 6    1  0.1568961E-005  0.1007734E+04  0.7818608E-02  0.9300102E-01
          2   -1    0    0  501    0  0.00000000000E+00  0.00000000000E+00  0.10859364414E+04  0.10859364414E+04  0.00000000000E+00 0. -1.
         -2   -1    0    0    0  501 -0.00000000000E+00 -0.00000000000E+00 -0.23379094166E+03  0.23379094166E+03  0.00000000000E+00 0.  1.
         23    2    1    2    0    0 -0.30489095666E+03  0.18770348526E+03 -0.27132417412E+02  0.37034824414E+03  0.90722433985E+02 0.  0.
         13    1    3    3    0    0 -0.12492384884E+03  0.87300713434E+02 -0.55768591476E+02  0.16228838027E+03  0.00000000000E+00 0.  1.
        -13    1    3    3    0    0 -0.17996710782E+03  0.10040277182E+03  0.28636174063E+02  0.20805986387E+03  0.00000000000E+00 0. -1.
         22    1    1    2    0    0  0.30489095666E+03 -0.18770348526E+03  0.87927791717E+03  0.94937913894E+03  0.00000000000E+00 0. -1.
<mgrwt>
<rscale>  0 0.10077343E+04</rscale>
<asrwt>0</asrwt>
<pdfrwt beam="1">  1        2 0.16706714E+00 0.10077343E+04</pdfrwt>
<pdfrwt beam="2">  1       -2 0.35967838E-01 0.10077343E+04</pdfrwt>
<totfact> 0.16107505E+02</totfact>
</mgrwt>
</event>
<event>
 6    1  0.1568961E-005  0.2884004E+04  0.7818608E-02  0.8277653E-01
         -1   -1    0    0    0  501 -0.00000000000E+00  0.00000000000E+00  0.71916340708E+03  0.71916340708E+03  0.00000000000E+00 0.  1.
          1   -1    0    0  501    0  0.00000000000E+00 -0.00000000000E+00 -0.28913724901E+04  0.28913724901E+04  0.00000000000E+00 0. -1.
         23    2    1    2    0    0  0.30227453139E+03 -0.47075742868E+03 -0.27490849206E+04  0.28069388707E+04  0.91953651277E+02 0.  0.
         11    1    3    3    0    0  0.14240818145E+03 -0.25129377549E+03 -0.12026650017E+04  0.12368636781E+04  0.00000000000E+00 0.  1.
        -11    1    3    3    0    0  0.15986634994E+03 -0.21946365319E+03 -0.15464199189E+04  0.15700751927E+04  0.00000000000E+00 0. -1.
         22    1    1    2    0    0 -0.30227453139E+03  0.47075742868E+03  0.57687583760E+03  0.80359702650E+03  0.00000000000E+00 0.  1.
<mgrwt>
<rscale>  0 0.28840037E+04</rscale>
<asrwt>0</asrwt>
<pdfrwt beam="1">  1        1 0.44482654E+00 0.28840037E+04</pdfrwt>
<pdfrwt beam="2">  1       -1 0.11064052E+00 0.28840037E+04</pdfrwt>
<totfact> 0.46340058E-01</totfact>
</mgrwt>
</event>
<event>
 6    1  0.1568961E-005  0.3109219E+04  0.7818608E-02  0.8213212E-01
         -2   -1    0    0    0  501 -0.00000000000E+00  0.00000000000E+00  0.66677746213E+03  0.66677746213E+03  0.00000000000E+00 0. -1.
          2   -1    0    0  501    0  0.00000000000E+00 -0.00000000000E+00 -0.36246133572E+04  0.36246133572E+04  0.00000000000E+00 0.  1.
         23    2    1    2    0    0  0.71424794531E+03 -0.79350683119E+03 -0.30373563989E+04  0.32208177350E+04  0.91267570709E+02 0.  0.
         13    1    3    3    0    0  0.32181931844E+03 -0.29994664731E+03 -0.11794198442E+04  0.12587957872E+04  0.00000000000E+00 0.  1.
        -13    1    3    3    0    0  0.39242862687E+03 -0.49356018388E+03 -0.18579365547E+04  0.19620219478E+04  0.00000000000E+00 0. -1.
         22    1    1    2    0    0 -0.71424794531E+03  0.79350683119E+03  0.79520503791E+02  0.10705730844E+04  0.00000000000E+00 0. -1.
<mgrwt>
<rscale>  0 0.31092189E+04</rscale>
<asrwt>0</asrwt>
<pdfrwt beam="1">  1        2 0.55763282E+00 0.31092189E+04</pdfrwt>
<pdfrwt beam="2">  1       -2 0.10258115E+00 0.31092189E+04</pdfrwt>
<totfact> 0.43654523E-01</totfact>
</mgrwt>
</event>
<event>
 6    1  0.1568961E-005  0.2274341E+04  0.7818608E-02  0.8488107E-01
         -2   -1    0    0    0  501 -0.00000000000E+00  0.00000000000E+00  0.66294913556E+03  0.66294913556E+03  0.00000000000E+00 0.  1.
          2   -1    0    0  501    0  0.00000000000E+00 -0.00000000000E+00 -0.19506129938E+04  0.19506129938E+04  0.00000000000E+00 0. -1.
         23    2    1    2    0    0  0.19576662941E+02  0.47636353271E+03  0.53958678762E+03  0.72513675784E+03  0.85813490553E+02 0.  0.
         13    1    3    3    0    0 -0.32153629727E+02  0.11821681312E+03  0.13188550735E+03  0.18000793832E+03  0.00000000000E+00 0. -1.
        -13    1    3    3    0    0  0.51730292668E+02  0.35814671960E+03  0.40770128027E+03  0.54512881952E+03  0.00000000000E+00 0.  1.
         22    1    1    2    0    0 -0.19576662941E+02 -0.47636353271E+03 -0.18272506458E+04  0.18884253715E+04  0.00000000000E+00 0. -1.
<mgrwt>
<rscale>  0 0.22743414E+04</rscale>
<asrwt>0</asrwt>
<pdfrwt beam="1">  1        2 0.30009431E+00 0.22743414E+04</pdfrwt>
<pdfrwt beam="2">  1       -2 0.10199218E+00 0.22743414E+04</pdfrwt>
<totfact> 0.50957761E+00</totfact>
</mgrwt>
</event>
<event>
 6    1  0.1568961E-005  0.2508676E+04  0.7818608E-02  0.8399901E-01
         -2   -1    0    0    0  501 -0.00000000000E+00  0.00000000000E+00  0.27731347758E+04  0.27731347758E+04  0.00000000000E+00 0.  1.
          2   -1    0    0  501    0  0.00000000000E+00 -0.00000000000E+00 -0.56735915950E+03  0.56735915950E+03  0.00000000000E+00 0. -1.
         23    2    1    2    0    0 -0.83797433503E+03  0.74219556062E+03  0.18531167961E+04  0.21668570750E+04  0.90401810216E+02 0.  0.
         11    1    3    3    0    0 -0.59702624041E+03  0.54522704930E+03  0.12611574147E+04  0.14980757296E+04  0.00000000000E+00 0.  1.
        -11    1    3    3    0    0 -0.24094809462E+03  0.19696851132E+03  0.59195938140E+03  0.66878134542E+03  0.00000000000E+00 0. -1.
         22    1    1    2    0    0  0.83797433503E+03 -0.74219556062E+03  0.35265882025E+03  0.11736368603E+04  0.00000000000E+00 0. -1.
<mgrwt>
<rscale>  0 0.25086757E+04</rscale>
<asrwt>0</asrwt>
<pdfrwt beam="1">  1        2 0.87286026E-01 0.25086757E+04</pdfrwt>
<pdfrwt beam="2">  1       -2 0.42663611E+00 0.25086757E+04</pdfrwt>
<totfact> 0.23429569E-01</totfact>
</mgrwt>
</event>
<event>
 6    1  0.1568961E-005  0.1432702E+04  0.7818608E-02  0.8930482E-01
         -2   -1    0    0    0  501 -0.00000000000E+00  0.00000000000E+00  0.58347522080E+03  0.58347522080E+03  0.00000000000E+00 0. -1.
          2   -1    0    0  501    0  0.00000000000E+00 -0.00000000000E+00 -0.87948653879E+03  0.87948653879E+03  0.00000000000E+00 0.  1.
         23    2    1    2    0    0 -0.52935860384E+03  0.47400430105E+03 -0.21433014780E+03  0.74771884810E+03  0.90804486007E+02 0.  0.
         11    1    3    3    0    0 -0.66518100878E+02  0.24653695759E+02 -0.27942111629E+02  0.76244501843E+02  0.00000000000E+00 0.  1.
        -11    1    3    3    0    0 -0.46284050296E+03  0.44935060529E+03 -0.18638803617E+03  0.67147434626E+03  0.00000000000E+00 0. -1.
         22    1    1    2    0    0  0.52935860384E+03 -0.47400430105E+03 -0.81681170195E+02  0.71524291149E+03  0.00000000000E+00 0.  1.
<mgrwt>
<rscale>  0 0.14327018E+04</rscale>
<asrwt>0</asrwt>
<pdfrwt beam="1">  1        2 0.13530562E+00 0.14327018E+04</pdfrwt>
<pdfrwt beam="2">  1       -2 0.89765419E-01 0.14327018E+04</pdfrwt>
<totfact> 0.31270729E+01</totfact>
</mgrwt>
</event>
<event>
 6    1  0.1568961E-005  0.1502607E+04  0.7818608E-02  0.8882721E-01
          1   -1    0    0  501    0  0.00000000000E+00  0.00000000000E+00  0.13239395853E+04  0.13239395853E+04  0.00000000000E+00 0. -1.
         -1   -1    0    0    0  501 -0.00000000000E+00 -0.00000000000E+00 -0.42634642618E+03  0.42634642618E+03  0.00000000000E+00 0.  1.
         23    2    1    2    0    0  0.30071813014E+03 -0.39310519729E+03 -0.20346729326E+03  0.54310035479E+03  0.92714432605E+02 0.  0.
         11    1    3    3    0    0  0.13093378285E+03 -0.10181687774E+03 -0.78830262992E+02  0.18364243096E+03  0.00000000000E+00 0. -1.
        -11    1    3    3    0    0  0.16978434729E+03 -0.29128831955E+03 -0.12463703027E+03  0.35945792383E+03  0.00000000000E+00 0.  1.
         22    1    1    2    0    0 -0.30071813014E+03  0.39310519729E+03  0.11010604524E+04  0.12071856567E+04  0.00000000000E+00 0. -1.
<mgrwt>
<rscale>  0 0.15026069E+04</rscale>
<asrwt>0</asrwt>
<pdfrwt beam="1">  1        1 0.20368301E+00 0.15026069E+04</pdfrwt>
<pdfrwt beam="2">  1       -1 0.65591759E-01 0.15026069E+04</pdfrwt>
<totfact> 0.19816312E+01</totfact>
</mgrwt>
</event>
<event>
 6    1  0.1568961E-005  0.2256900E+04  0.7818608E-02  0.8495111E-01
         -2   -1    0    0    0  501 -0.00000000000E+00  0.00000000000E+00  0.15649134027E+04  0.15649134027E+04  0.00000000000E+00 0.  1.
          2   -1    0    0  501    0  0.00000000000E+00 -0.00000000000E+00 -0.81371911261E+03  0.81371911261E+03  0.00000000000E+00 0. -1.
         23    2    1    2    0    0  0.53425550809E+03 -0.52949281476E+02  0.14196947690E+04  0.15212379360E+04  0.10197571411E+03 0.  0.
         13    1    3    3    0    0  0.19625761166E+03 -0.61996914616E+02  0.60980394519E+03  0.64360043437E+03  0.00000000000E+00 0. -1.
        -13    1    3    3    0    0  0.33799789642E+03  0.90476331399E+01  0.80989082383E+03  0.87763750158E+03  0.00000000000E+00 0.  1.
         22    1    1    2    0    0 -0.53425550809E+03  0.52949281476E+02 -0.66850047895E+03  0.85739457934E+03  0.00000000000E+00 0. -1.
<mgrwt>
<rscale>  0 0.22569005E+04</rscale>
<asrwt>0</asrwt>
<pdfrwt beam="1">  1        2 0.12518756E+00 0.22569005E+04</pdfrwt>
<pdfrwt beam="2">  1       -2 0.24075591E+00 0.22569005E+04</pdfrwt>
<totfact> 0.22443519E+00</totfact>
</mgrwt>
</event>
<event>
 6    1  0.1568961E-005  0.2195075E+04  0.7818608E-02  0.8520481E-01
          2   -1    0    0  501    0  0.00000000000E+00  0.00000000000E+00  0.20851656573E+04  0.20851656573E+04  0.00000000000E+00 0. -1.
         -2   -1    0    0    0  501 -0.00000000000E+00 -0.00000000000E+00 -0.57769419316E+03  0.57769419316E+03  0.00000000000E+00 0.  1.
         23    2    1    2    0    0  0.10113790835E+04  0.26308285854E+03  0.11551259760E+04  0.15600236959E+04  0.85191961163E+02 0.  0.
         11    1    3    3    0    0  0.21566826158E+03  0.59308893919E+02  0.30125915947E+03  0.37521650432E+03  0.00000000000E+00 0.  1.
        -11    1    3    3    0    0  0.79571082188E+03  0.20377396462E+03  0.85386681657E+03  0.11848071916E+04  0.00000000000E+00 0. -1.
         22    1    1    2    0    0 -0.10113790835E+04 -0.26308285854E+03  0.35234548810E+03  0.11028361546E+04  0.00000000000E+00 0.  1.
<mgrwt>
<rscale>  0 0.21950746E+04</rscale>
<asrwt>0</asrwt>
<pdfrwt beam="1">  1        2 0.32079471E+00 0.21950746E+04</pdfrwt>
<pdfrwt beam="2">  1       -2 0.88876031E-01 0.21950746E+04</pdfrwt>
<totfact> 0.59571821E+00</totfact>
</mgrwt>
</event>
<event>
 6    1  0.1568961E-005  0.2605138E+04  0.7818608E-02  0.8366458E-01
          2   -1    0    0  501    0  0.00000000000E+00  0.00000000000E+00  0.10677570082E+04  0.10677570082E+04  0.00000000000E+00 0.  1.
         -2   -1    0    0    0  501 -0.00000000000E+00 -0.00000000000E+00 -0.15890185999E+04  0.15890185999E+04  0.00000000000E+00 0. -1.
         23    2    1    2    0    0  0.46830257411E+02 -0.12890035361E+04 -0.87465067749E+02  0.12959293224E+04  0.89774614801E+02 0.  0.
         13    1    3    3    0    0  0.68300500145E+02 -0.10583815432E+04 -0.54572341523E+02  0.10619861533E+04  0.00000000000E+00 0.  1.
        -13    1    3    3    0    0 -0.21470242734E+02 -0.23062199288E+03 -0.32892726226E+02  0.23394316908E+03  0.00000000000E+00 0. -1.
         22    1    1    2    0    0 -0.46830257411E+02  0.12890035361E+04 -0.43379652400E+03  0.13608462857E+04  0.00000000000E+00 0. -1.
<mgrwt>
<rscale>  0 0.26051378E+04</rscale>
<asrwt>0</asrwt>
<pdfrwt beam="1">  1        2 0.16427031E+00 0.26051378E+04</pdfrwt>
<pdfrwt beam="2">  1       -2 0.24446440E+00 0.26051378E+04</pdfrwt>
<totfact> 0.14021765E+00</totfact>
</mgrwt>
</event>
<event>
 6    1  0.1568961E-005  0.2829721E+04  0.7818608E-02  0.8294100E-01
         -2   -1    0    0    0  501 -0.00000000000E+00  0.00000000000E+00  0.88034004518E+03  0.88034004518E+03  0.00000000000E+00 0. -1.
          2   -1    0    0  501    0  0.00000000000E+00 -0.00000000000E+00 -0.22739282937E+04  0.22739282937E+04  0.00000000000E+00 0.  1.
         23    2    1    2    0    0  0.74685703039E+03  0.11272330445E+04 -0.11563350790E+04  0.17814104340E+04  0.88671072755E+02 0.  0.
         11    1    3    3    0    0  0.21621652005E+03  0.28745342302E+03 -0.35128571313E+03  0.50277301658E+03  0.00000000000E+00 0. -1.
        -11    1    3    3    0    0  0.53064051035E+03  0.83977962144E+03 -0.80504936590E+03  0.12786374175E+04  0.00000000000E+00 0.  1.
         22    1    1    2    0    0 -0.74685703039E+03 -0.11272330445E+04 -0.23725316947E+03  0.13728579048E+04  0.00000000000E+00 0. -1.
<mgrwt>
<rscale>  0 0.28297209E+04</rscale>
<asrwt>0</asrwt>
<pdfrwt beam="1">  1        2 0.34983512E+00 0.28297209E+04</pdfrwt>
<pdfrwt beam="2">  1       -2 0.13543693E+00 0.28297209E+04</pdfrwt>
<totfact> 0.15929542E+00</totfact>
</mgrwt>
</event>
<event>
 6    1  0.1568961E-005  0.4160067E+04  0.7818608E-02  0.7973012E-01
          1   -1    0    0  501    0  0.00000000000E+00  0.00000000000E+00  0.22859021069E+04  0.22859021069E+04  0.00000000000E+00 0. -1.
         -1   -1    0    0    0  501 -0.00000000000E+00 -0.00000000000E+00 -0.18927050987E+04  0.18927050987E+04  0.00000000000E+00 0.  1.
         23    2    1    2    0    0 -0.28706983120E+03  0.61515255327E+03 -0.17771127723E+04  0.19046093395E+04  0.92656241363E+02 0.  0.
         13    1    3    3    0    0 -0.10600808094E+03  0.32835583084E+03 -0.94549165442E+03  0.10064838466E+04  0.00000000000E+00 0. -1.
        -13    1    3    3    0    0 -0.18106175027E+03  0.28679672243E+03 -0.83162111785E+03  0.89812549293E+03  0.00000000000E+00 0.  1.
         22    1    1    2    0    0  0.28706983120E+03 -0.61515255327E+03  0.21703097804E+04  0.22739978660E+04  0.00000000000E+00 0. -1.
<mgrwt>
<rscale>  0 0.41600666E+04</rscale>
<asrwt>0</asrwt>
<pdfrwt beam="1">  1        1 0.35167725E+00 0.41600666E+04</pdfrwt>
<pdfrwt beam="2">  1       -1 0.29118540E+00 0.41600666E+04</pdfrwt>
<totfact> 0.55377778E-02</totfact>
</mgrwt>
</event>
<event>
 6    1  0.1568961E-005  0.3127671E+04  0.7818608E-02  0.8208185E-01
          1   -1    0    0  501    0  0.00000000000E+00  0.00000000000E+00  0.22697318474E+04  0.22697318474E+04  0.00000000000E+00 0. -1.
         -1   -1    0    0    0  501 -0.00000000000E+00 -0.00000000000E+00 -0.10774762589E+04  0.10774762589E+04  0.00000000000E+00 0.  1.
         23    2    1    2    0    0  0.15154608100E+04  0.36808989095E+03  0.70019687724E+03  0.17118997531E+04  0.90628159786E+02 0.  0.
         13    1    3    3    0    0  0.71880729624E+03  0.13554696036E+03  0.35502136353E+03  0.81307876381E+03  0.00000000000E+00 0. -1.
        -13    1    3    3    0    0  0.79665351380E+03  0.23254293058E+03  0.34517551371E+03  0.89882098934E+03  0.00000000000E+00 0.  1.
         22    1    1    2    0    0 -0.15154608100E+04 -0.36808989095E+03  0.49205871127E+03  0.16353083532E+04  0.00000000000E+00 0.  1.
<mgrwt>
<rscale>  0 0.31276715E+04</rscale>
<asrwt>0</asrwt>
<pdfrwt beam="1">  1        1 0.34918951E+00 0.31276715E+04</pdfrwt>
<pdfrwt beam="2">  1       -1 0.16576558E+00 0.31276715E+04</pdfrwt>
<totfact> 0.43458663E-01</totfact>
</mgrwt>
</event>
<event>
 6    1  0.1568961E-005  0.2733617E+04  0.7818608E-02  0.8324179E-01
         -1   -1    0    0    0  501 -0.00000000000E+00  0.00000000000E+00  0.19723361706E+04  0.19723361706E+04  0.00000000000E+00 0.  1.
          1   -1    0    0  501    0  0.00000000000E+00 -0.00000000000E+00 -0.94718392362E+03  0.94718392362E+03  0.00000000000E+00 0. -1.
         23    2    1    2    0    0  0.73830333714E+03  0.71817211541E+03  0.14702871107E+04  0.17974648140E+04  0.90953639389E+02 0.  0.
         11    1    3    3    0    0  0.55345289696E+03  0.54851770119E+03  0.11761240728E+04  0.14108329498E+04  0.00000000000E+00 0. -1.
        -11    1    3    3    0    0  0.18485044018E+03  0.16965441422E+03  0.29416303795E+03  0.38663186417E+03  0.00000000000E+00 0.  1.
         22    1    1    2    0    0 -0.73830333714E+03 -0.71817211541E+03 -0.44513486376E+03  0.11220552802E+04  0.00000000000E+00 0. -1.
<mgrwt>
<rscale>  0 0.27336167E+04</rscale>
<asrwt>0</asrwt>
<pdfrwt beam="1">  1        1 0.14572060E+00 0.27336167E+04</pdfrwt>
<pdfrwt beam="2">  1       -1 0.30343633E+00 0.27336167E+04</pdfrwt>
<totfact> 0.45506453E-01</totfact>
</mgrwt>
</event>
<event>
 6    1  0.1568961E-005  0.1142930E+04  0.7818608E-02  0.9164330E-01
          1   -1    0    0  501    0  0.00000000000E+00  0.00000000000E+00  0.74618061242E+03  0.74618061242E+03  0.00000000000E+00 0. -1.
         -1   -1    0    0    0  501 -0.00000000000E+00 -0.00000000000E+00 -0.43765875463E+03  0.43765875463E+03  0.00000000000E+00 0.  1.
         23    2    1    2    0    0  0.70870960575E+02  0.18694281469E+03 -0.39520803144E+03  0.45226157487E+03  0.91546900400E+02 0.  0.
         11    1    3    3    0    0  0.37223620858E+02  0.11890339169E+03 -0.32804431356E+03  0.35090837289E+03  0.00000000000E+00 0.  1.
        -11    1    3    3    0    0  0.33647339717E+02  0.68039423004E+02 -0.67163717883E+02  0.10135320199E+03  0.00000000000E+00 0. -1.
         22    1    1    2    0    0 -0.70870960575E+02 -0.18694281469E+03  0.70372988922E+03  0.73157779218E+03  0.00000000000E+00 0. -1.
<mgrwt>
<rscale>  0 0.11429304E+04</rscale>
<asrwt>0</asrwt>
<pdfrwt beam="1">  1        1 0.11479702E+00 0.11429304E+04</pdfrwt>
<pdfrwt beam="2">  1       -1 0.67332116E-01 0.11429304E+04</pdfrwt>
<totfact> 0.54822020E+01</totfact>
</mgrwt>
</event>
<event>
 6    1  0.1568961E-005  0.1990560E+04  0.7818608E-02  0.8611047E-01
         -1   -1    0    0    0  501 -0.00000000000E+00  0.00000000000E+00  0.79456131263E+03  0.79456131263E+03  0.00000000000E+00 0.  1.
          1   -1    0    0  501    0  0.00000000000E+00 -0.00000000000E+00 -0.12467037290E+04  0.12467037290E+04  0.00000000000E+00 0. -1.
         23    2    1    2    0    0  0.56880001151E+03  0.41661450395E+03 -0.94403943891E+03  0.11815768547E+04  0.88387235832E+02 0.  0.
         11    1    3    3    0    0  0.29201750504E+03  0.26629699794E+03 -0.54497043025E+03  0.67318725790E+03  0.00000000000E+00 0. -1.
        -11    1    3    3    0    0  0.27678250647E+03  0.15031750601E+03 -0.39906900866E+03  0.50838959684E+03  0.00000000000E+00 0.  1.
         22    1    1    2    0    0 -0.56880001151E+03 -0.41661450395E+03  0.49189702250E+03  0.85968818693E+03  0.00000000000E+00 0.  1.
<mgrwt>
<rscale>  0 0.19905603E+04</rscale>
<asrwt>0</asrwt>
<pdfrwt beam="1">  1        1 0.19180057E+00 0.19905603E+04</pdfrwt>
<pdfrwt beam="2">  1       -1 0.12224020E+00 0.19905603E+04</pdfrwt>
<totfact> 0.54266851E+00</totfact>
</mgrwt>
</event>
<event>
 6    1  0.1568961E-005  0.2591563E+04  0.7818608E-02  0.8371073E-01
          1   -1    0    0  501    0  0.00000000000E+00  0.00000000000E+00  0.11021745306E+04  0.11021745306E+04  0.00000000000E+00 0. -1.
         -1   -1    0    0    0  501 -0.00000000000E+00 -0.00000000000E+00 -0.15233973200E+04  0.15233973200E+04  0.00000000000E+00 0.  1.
         23    2    1    2    0    0  0.93688502068E+03  0.29891919655E+03 -0.10633802738E+04  0.14510623944E+04  0.87739601899E+02 0.  0.
         11    1    3    3    0    0  0.22393156277E+03  0.94004849107E+02 -0.21794172181E+03  0.32631403673E+03  0.00000000000E+00 0. -1.
        -11    1    3    3    0    0  0.71295345792E+03  0.20491434744E+03 -0.84543855196E+03  0.11247483577E+04  0.00000000000E+00 0.  1.
         22    1    1    2    0    0 -0.93688502068E+03 -0.29891919655E+03  0.64215748437E+03  0.11745094562E+04  0.00000000000E+00 0. -1.
<mgrwt>
<rscale>  0 0.25915630E+04</rscale>
<asrwt>0</asrwt>
<pdfrwt beam="1">  1        1 0.16956531E+00 0.25915630E+04</pdfrwt>
<pdfrwt beam="2">  1       -1 0.23436882E+00 0.25915630E+04</pdfrwt>
<totfact> 0.98308239E-01</totfact>
</mgrwt>
</event>
<event>
 6    1  0.1568961E-005  0.1202353E+04  0.7818608E-02  0.9110799E-01
         -2   -1    0    0    0  501 -0.00000000000E+00  0.00000000000E+00  0.63526219224E+03  0.63526219224E+03  0.00000000000E+00 0.  1.
          2   -1    0    0  501    0  0.00000000000E+00 -0.00000000000E+00 -0.56892000032E+03  0.56892000032E+03  0.00000000000E+00 0. -1.
         23    2    1    2    0    0  0.53760683605E+03  0.14281552998E+03  0.25371795328E+03  0.61721791620E+03  0.84662686547E+02 0.  0.
         13    1    3    3    0    0  0.24447721046E+03  0.36664757422E+02  0.14745386135E+03  0.28784727217E+03  0.00000000000E+00 0. -1.
        -13    1    3    3    0    0  0.29312962559E+03  0.10615077256E+03  0.10626409192E+03  0.32937064403E+03  0.00000000000E+00 0.  1.
         22    1    1    2    0    0 -0.53760683605E+03 -0.14281552998E+03 -0.18737576136E+03  0.58696427635E+03  0.00000000000E+00 0. -1.
<mgrwt>
<rscale>  0 0.12023533E+04</rscale>
<asrwt>0</asrwt>
<pdfrwt beam="1">  1        2 0.87526154E-01 0.12023533E+04</pdfrwt>
<pdfrwt beam="2">  1       -2 0.97732644E-01 0.12023533E+04</pdfrwt>
<totfact> 0.45503142E+01</totfact>
</mgrwt>
</event>
<event>
 6    1  0.1568961E-005  0.1689266E+04  0.7818608E-02  0.8767510E-01
          2   -1    0    0  501    0  0.00000000000E+00  0.00000000000E+00  0.23516094877E+04  0.23516094877E+04  0.00000000000E+00 0.  1.
         -2   -1    0    0    0  501 -0.00000000000E+00 -0.00000000000E+00 -0.30336865180E+03  0.30336865180E+03  0.00000000000E+00 0. -1.
         23    2    1    2    0    0 -0.40001881152E+02  0.22328306726E+03  0.23017950284E+04  0.23147646666E+04  0.91758542842E+02 0.  0.
         13    1    3    3    0    0 -0.44457244203E+02  0.12140159393E+03  0.89649478289E+03  0.90576911480E+03  0.00000000000E+00 0. -1.
        -13    1    3    3    0    0  0.44553630517E+01  0.10188147333E+03  0.14053002455E+04  0.14089955518E+04  0.00000000000E+00 0.  1.
         22    1    1    2    0    0  0.40001881152E+02 -0.22328306726E+03 -0.25355419252E+03  0.34021347293E+03  0.00000000000E+00 0. -1.
<mgrwt>
<rscale>  0 0.16892656E+04</rscale>
<asrwt>0</asrwt>
<pdfrwt beam="1">  1        2 0.36178606E+00 0.16892656E+04</pdfrwt>
<pdfrwt beam="2">  1       -2 0.46672102E-01 0.16892656E+04</pdfrwt>
<totfact> 0.17579918E+01</totfact>
</mgrwt>
</event>
<event>
 6    1  0.1568961E-005  0.2161791E+04  0.7818608E-02  0.8534502E-01
          1   -1    0    0  501    0  0.00000000000E+00  0.00000000000E+00  0.23311695886E+04  0.23311695886E+04  0.00000000000E+00 0. -1.
         -1   -1    0    0    0  501 -0.00000000000E+00 -0.00000000000E+00 -0.50117982774E+03  0.50117982774E+03  0.00000000000E+00 0.  1.
         23    2    1    2    0    0 -0.10035679504E+04  0.17470406771E+03  0.13825577901E+04  0.17197553705E+04  0.91773357850E+02 0.  0.
         13    1    3    3    0    0 -0.45395733378E+03  0.33754564223E+02  0.59944444915E+03  0.75269534283E+03  0.00000000000E+00 0. -1.
        -13    1    3    3    0    0 -0.54961061659E+03  0.14094950349E+03  0.78311334095E+03  0.96706002770E+03  0.00000000000E+00 0.  1.
         22    1    1    2    0    0  0.10035679504E+04 -0.17470406771E+03  0.44743197074E+03  0.11125940458E+04  0.00000000000E+00 0.  1.
<mgrwt>
<rscale>  0 0.21617911E+04</rscale>
<asrwt>0</asrwt>
<pdfrwt beam="1">  1        1 0.35864147E+00 0.21617911E+04</pdfrwt>
<pdfrwt beam="2">  1       -1 0.77104590E-01 0.21617911E+04</pdfrwt>
<totfact> 0.27337177E+00</totfact>
</mgrwt>
</event>
<event>
 6    1  0.1568961E-005  0.3104556E+04  0.7818608E-02  0.8214489E-01
          1   -1    0    0  501    0  0.00000000000E+00  0.00000000000E+00  0.14894454920E+04  0.14894454920E+04  0.00000000000E+00 0. -1.
         -1   -1    0    0    0  501 -0.00000000000E+00 -0.00000000000E+00 -0.16177606888E+04  0.16177606888E+04  0.00000000000E+00 0.  1.
         23    2    1    2    0    0  0.88114748683E+03  0.67257127702E+03  0.10214118623E+04  0.15101321916E+04  0.91891389003E+02 0.  0.
         13    1    3    3    0    0  0.46859202288E+03  0.30076391919E+03  0.52228509386E+03  0.76342592192E+03  0.00000000000E+00 0.  1.
        -13    1    3    3    0    0  0.41255546395E+03  0.37180735783E+03  0.49912676848E+03  0.74670626968E+03  0.00000000000E+00 0. -1.
         22    1    1    2    0    0 -0.88114748683E+03 -0.67257127702E+03 -0.11497270591E+04  0.15970739891E+04  0.00000000000E+00 0.  1.
<mgrwt>
<rscale>  0 0.31045556E+04</rscale>
<asrwt>0</asrwt>
<pdfrwt beam="1">  1        1 0.22914546E+00 0.31045556E+04</pdfrwt>
<pdfrwt beam="2">  1       -1 0.24888626E+00 0.31045556E+04</pdfrwt>
<totfact> 0.39786335E-01</totfact>
</mgrwt>
</event>
<event>
 6    1  0.1568961E-005  0.8915738E+03  0.7818608E-02  0.9436176E-01
          1   -1    0    0  501    0  0.00000000000E+00  0.00000000000E+00  0.12745955951E+04  0.12745955951E+04  0.00000000000E+00 0. -1.
         -1   -1    0    0    0  501 -0.00000000000E+00 -0.00000000000E+00 -0.15591296266E+03  0.15591296266E+03  0.00000000000E+00 0.  1.
         23    2    1    2    0    0 -0.24679760127E+03  0.36516477256E+03  0.55120415120E+03  0.71197797819E+03  0.93980093763E+02 0.  0.
         13    1    3    3    0    0 -0.70800810736E+02  0.86382431818E+02  0.82146664006E+02  0.13864614576E+03  0.00000000000E+00 0.  1.
        -13    1    3    3    0    0 -0.17599679054E+03  0.27878234074E+03  0.46905748719E+03  0.57333183243E+03  0.00000000000E+00 0. -1.
         22    1    1    2    0    0  0.24679760127E+03 -0.36516477256E+03  0.56747848126E+03  0.71853057959E+03  0.00000000000E+00 0.  1.
<mgrwt>
<rscale>  0 0.89157383E+03</rscale>
<asrwt>0</asrwt>
<pdfrwt beam="1">  1        1 0.19609162E+00 0.89157383E+03</pdfrwt>
<pdfrwt beam="2">  1       -1 0.23986611E-01 0.89157383E+03</pdfrwt>
<totfact> 0.14289543E+02</totfact>
</mgrwt>
</event>
<event>
 6    1  0.1568961E-005  0.1296250E+04  0.7818608E-02  0.9032544E-01
          2   -1    0    0  501    0  0.00000000000E+00  0.00000000000E+00  0.70011793489E+03  0.70011793489E+03  0.00000000000E+00 0. -1.
         -2   -1    0    0    0  501 -0.00000000000E+00 -0.00000000000E+00 -0.59999308147E+03  0.59999308147E+03  0.00000000000E+00 0.  1.
         23    2    1    2    0    0 -0.30498489941E+03  0.54604214491E+03  0.20806510554E+03  0.66542297416E+03  0.91207639473E+02 0.  0.
         11    1    3    3    0    0 -0.11805426004E+03  0.26719068444E+03  0.58529619124E+02  0.29791506588E+03  0.00000000000E+00 0. -1.
        -11    1    3    3    0    0 -0.18693063938E+03  0.27885146047E+03  0.14953548642E+03  0.36750790827E+03  0.00000000000E+00 0.  1.
         22    1    1    2    0    0  0.30498489941E+03 -0.54604214491E+03 -0.10794025212E+03  0.63468804221E+03  0.00000000000E+00 0.  1.
<mgrwt>
<rscale>  0 0.12962498E+04</rscale>
<asrwt>0</asrwt>
<pdfrwt beam="1">  1        2 0.10771045E+00 0.12962498E+04</pdfrwt>
<pdfrwt beam="2">  1       -2 0.92306628E-01 0.12962498E+04</pdfrwt>
<totfact> 0.40041984E+01</totfact>
</mgrwt>
</event>
<event>
 6    1  0.1568961E-005  0.4647519E+04  0.7818608E-02  0.7885307E-01
          2   -1    0    0  501    0  0.00000000000E+00  0.00000000000E+00  0.40763764578E+04  0.40763764578E+04  0.00000000000E+00 0. -1.
         -2   -1    0    0    0  501 -0.00000000000E+00 -0.00000000000E+00 -0.13246713372E+04  0.13246713372E+04  0.00000000000E+00 0.  1.
         23    2    1    2    0    0 -0.61430367657E+03 -0.17194361264E+04  0.30451188381E+04  0.35517448968E+04  0.91178254092E+02 0.  0.
         13    1    3    3    0    0 -0.11824105286E+03 -0.26118050677E+03  0.43362979879E+03  0.51983748047E+03  0.00000000000E+00 0.  1.
        -13    1    3    3    0    0 -0.49606262371E+03 -0.14582556196E+04  0.26114890393E+04  0.30319074163E+04  0.00000000000E+00 0. -1.
         22    1    1    2    0    0  0.61430367657E+03  0.17194361264E+04 -0.29341371755E+03  0.18493028982E+04  0.00000000000E+00 0. -1.
<mgrwt>
<rscale>  0 0.46475194E+04</rscale>
<asrwt>0</asrwt>
<pdfrwt beam="1">  1        2 0.62713483E+00 0.46475194E+04</pdfrwt>
<pdfrwt beam="2">  1       -2 0.20379559E+00 0.46475194E+04</pdfrwt>
<totfact> 0.27714930E-02</totfact>
</mgrwt>
</event>
<event>
 6    1  0.1645951E-005  0.1086244E+04  0.7818608E-02  0.9218704E-01
         -1   -1    0    0    0  501 -0.00000000000E+00  0.00000000000E+00  0.47454957564E+03  0.47454957564E+03  0.00000000000E+00 0.  1.
          1   -1    0    0  501    0  0.00000000000E+00 -0.00000000000E+00 -0.62160298959E+03  0.62160298959E+03  0.00000000000E+00 0. -1.
         23    2    1    2    0    0 -0.14261611966E+03 -0.27123791950E+03  0.37375601248E+03  0.49187462817E+03  0.91311151656E+02 0.  0.
         11    1    3    3    0    0 -0.10869799867E+03 -0.14517880621E+03  0.26934263139E+03  0.32471155472E+03  0.00000000000E+00 0. -1.
        -11    1    3    3    0    0 -0.33918120989E+02 -0.12605911329E+03  0.10441338109E+03  0.16716307345E+03  0.00000000000E+00 0.  1.
         22    1    1    2    0    0  0.14261611966E+03  0.27123791950E+03 -0.52080942643E+03  0.60427793706E+03  0.00000000000E+00 0. -1.
<mgrwt>
<rscale>  0 0.10862439E+04</rscale>
<asrwt>0</asrwt>
<pdfrwt beam="1">  1        1 0.95631228E-01 0.10862439E+04</pdfrwt>
<pdfrwt beam="2">  1       -1 0.73007628E-01 0.10862439E+04</pdfrwt>
<totfact> 0.61388176E+01</totfact>
</mgrwt>
</event>
<event>
 6    1  0.1568961E-005  0.1251782E+04  0.7818608E-02  0.9068702E-01
          2   -1    0    0  501    0  0.00000000000E+00  0.00000000000E+00  0.92774850502E+03  0.92774850502E+03  0.00000000000E+00 0.  1.
         -2   -1    0    0    0  501 -0.00000000000E+00 -0.00000000000E+00 -0.42224723708E+03  0.42224723708E+03  0.00000000000E+00 0. -1.
         23    2    1    2    0    0  0.10860968067E+03 -0.24803709397E+03  0.85875262025E+03  0.90490588529E+03  0.89889575232E+02 0.  0.
         13    1    3    3    0    0  0.42581052884E+02 -0.13009293460E+03  0.56812471974E+03  0.58438259290E+03  0.00000000000E+00 0. -1.
        -13    1    3    3    0    0  0.66028627789E+02 -0.11794415937E+03  0.29062790050E+03  0.32052329240E+03  0.00000000000E+00 0.  1.
         22    1    1    2    0    0 -0.10860968067E+03  0.24803709397E+03 -0.35325135231E+03  0.44508985680E+03  0.00000000000E+00 0. -1.
<mgrwt>
<rscale>  0 0.12517815E+04</rscale>
<asrwt>0</asrwt>
<pdfrwt beam="1">  1        2 0.14273054E+00 0.12517815E+04</pdfrwt>
<pdfrwt beam="2">  1       -2 0.64961114E-01 0.12517815E+04</pdfrwt>
<totfact> 0.60396133E+01</totfact>
</mgrwt>
</event>
<event>
 6    1  0.1568961E-005  0.6603348E+03  0.7818608E-02  0.9787578E-01
         -1   -1    0    0    0  501 -0.00000000000E+00  0.00000000000E+00  0.60701756662E+03  0.60701756662E+03  0.00000000000E+00 0.  1.
          1   -1    0    0  501    0  0.00000000000E+00 -0.00000000000E+00 -0.17958378906E+03  0.17958378906E+03  0.00000000000E+00 0. -1.
         23    2    1    2    0    0 -0.22838848463E+03 -0.12526652994E+03 -0.11625875269E+02  0.27608555555E+03  0.90747284108E+02 0.  0.
         13    1    3    3    0    0 -0.13786834476E+03 -0.10332535827E+03  0.28566866001E+02  0.17464213690E+03  0.00000000000E+00 0. -1.
        -13    1    3    3    0    0 -0.90520139869E+02 -0.21941171669E+02 -0.40192741270E+02  0.10144341865E+03  0.00000000000E+00 0.  1.
         22    1    1    2    0    0  0.22838848463E+03  0.12526652994E+03  0.43905965284E+03  0.51051580013E+03  0.00000000000E+00 0.  1.
<mgrwt>
<rscale>  0 0.66033481E+03</rscale>
<asrwt>0</asrwt>
<pdfrwt beam="1">  1        1 0.27628276E-01 0.66033481E+03</pdfrwt>
<pdfrwt beam="2">  1       -1 0.93387317E-01 0.66033481E+03</pdfrwt>
<totfact> 0.19365655E+02</totfact>
</mgrwt>
</event>
<event>
 6    1  0.1568961E-005  0.2760412E+04  0.7818608E-02  0.8315665E-01
          2   -1    0    0  501    0  0.00000000000E+00  0.00000000000E+00  0.98790876014E+03  0.98790876014E+03  0.00000000000E+00 0. -1.
         -2   -1    0    0    0  501 -0.00000000000E+00 -0.00000000000E+00 -0.19282840357E+04  0.19282840357E+04  0.00000000000E+00 0.  1.
         23    2    1    2    0    0 -0.54654579218E+03 -0.10094366523E+04 -0.12774677462E+04  0.17198207836E+04  0.90471140069E+02 0.  0.
         13    1    3    3    0    0 -0.18623800689E+03 -0.43457987874E+03 -0.54100655743E+03  0.71849311854E+03  0.00000000000E+00 0.  1.
        -13    1    3    3    0    0 -0.36030778529E+03 -0.57485677356E+03 -0.73646118875E+03  0.10013276650E+04  0.00000000000E+00 0. -1.
         22    1    1    2    0    0  0.54654579218E+03  0.10094366523E+04  0.33709247062E+03  0.11963720123E+04  0.00000000000E+00 0. -1.
<mgrwt>
<rscale>  0 0.27604121E+04</rscale>
<asrwt>0</asrwt>
<pdfrwt beam="1">  1        2 0.15198597E+00 0.27604121E+04</pdfrwt>
<pdfrwt beam="2">  1       -2 0.29665908E+00 0.27604121E+04</pdfrwt>
<totfact> 0.74585953E-01</totfact>
</mgrwt>
</event>
<event>
 6    1  0.1568961E-005  0.3386857E+04  0.7818608E-02  0.8141140E-01
          2   -1    0    0  501    0  0.00000000000E+00  0.00000000000E+00  0.22388016389E+04  0.22388016389E+04  0.00000000000E+00 0. -1.
         -2   -1    0    0    0  501 -0.00000000000E+00 -0.00000000000E+00 -0.12809086992E+04  0.12809086992E+04  0.00000000000E+00 0.  1.
         23    2    1    2    0    0 -0.14201747150E+04  0.17168412823E+03  0.14186407450E+04  0.20168263768E+04  0.93141879132E+02 0.  0.
         11    1    3    3    0    0 -0.40867059508E+03  0.67254881863E+02  0.35765465068E+03  0.54722182300E+03  0.00000000000E+00 0. -1.
        -11    1    3    3    0    0 -0.10115041199E+04  0.10442924636E+03  0.10609860943E+04  0.14696045538E+04  0.00000000000E+00 0.  1.
         22    1    1    2    0    0  0.14201747150E+04 -0.17168412823E+03 -0.46074780537E+03  0.15028839613E+04  0.00000000000E+00 0.  1.
<mgrwt>
<rscale>  0 0.33868572E+04</rscale>
<asrwt>0</asrwt>
<pdfrwt beam="1">  1        2 0.34443102E+00 0.33868572E+04</pdfrwt>
<pdfrwt beam="2">  1       -2 0.19706288E+00 0.33868572E+04</pdfrwt>
<totfact> 0.56629386E-01</totfact>
</mgrwt>
</event>
<event>
 6    1  0.1568961E-005  0.2458428E+04  0.7818608E-02  0.8417947E-01
         -1   -1    0    0    0  501 -0.00000000000E+00  0.00000000000E+00  0.94064761513E+03  0.94064761513E+03  0.00000000000E+00 0.  1.
          1   -1    0    0  501    0  0.00000000000E+00 -0.00000000000E+00 -0.16063049316E+04  0.16063049316E+04  0.00000000000E+00 0. -1.
         23    2    1    2    0    0 -0.56594459555E+03  0.96838692318E+03 -0.84979582035E+03  0.14103024217E+04  0.93453015962E+02 0.  0.
         11    1    3    3    0    0 -0.25682848569E+03  0.49882062746E+03 -0.46941285415E+03  0.73152670292E+03  0.00000000000E+00 0. -1.
        -11    1    3    3    0    0 -0.30911610987E+03  0.46956629572E+03 -0.38038296619E+03  0.67877571879E+03  0.00000000000E+00 0.  1.
         22    1    1    2    0    0  0.56594459555E+03 -0.96838692318E+03  0.18413850383E+03  0.11366501251E+04  0.00000000000E+00 0.  1.
<mgrwt>
<rscale>  0 0.24584279E+04</rscale>
<asrwt>0</asrwt>
<pdfrwt beam="1">  1        1 0.24712384E+00 0.24584279E+04</pdfrwt>
<pdfrwt beam="2">  1       -1 0.14471502E+00 0.24584279E+04</pdfrwt>
<totfact> 0.18919662E+00</totfact>
</mgrwt>
</event>
<event>
 6    1  0.1568961E-005  0.1687902E+04  0.7818608E-02  0.8768295E-01
          2   -1    0    0  501    0  0.00000000000E+00  0.00000000000E+00  0.13252773641E+04  0.13252773641E+04  0.00000000000E+00 0. -1.
         -2   -1    0    0    0  501 -0.00000000000E+00 -0.00000000000E+00 -0.53743705317E+03  0.53743705317E+03  0.00000000000E+00 0.  1.
         23    2    1    2    0    0  0.14747112610E+03 -0.81938049470E+03  0.53036770235E+03  0.99126489357E+03  0.90465802394E+02 0.  0.
         13    1    3    3    0    0  0.32060371213E+02 -0.32393352454E+03  0.24975724384E+03  0.41029194066E+03  0.00000000000E+00 0.  1.
        -13    1    3    3    0    0  0.11541075489E+03 -0.49544697016E+03  0.28061045851E+03  0.58097295291E+03  0.00000000000E+00 0. -1.
         22    1    1    2    0    0 -0.14747112610E+03  0.81938049470E+03  0.25747260854E+03  0.87144952365E+03  0.00000000000E+00 0.  1.
<mgrwt>
<rscale>  0 0.16879018E+04</rscale>
<asrwt>0</asrwt>
<pdfrwt beam="1">  1        2 0.20388882E+00 0.16879018E+04</pdfrwt>
<pdfrwt beam="2">  1       -2 0.82682624E-01 0.16879018E+04</pdfrwt>
<totfact> 0.19530047E+01</totfact>
</mgrwt>
</event>
<event>
 6    1  0.1568961E-005  0.1538488E+04  0.7818608E-02  0.8859255E-01
         -1   -1    0    0    0  501 -0.00000000000E+00  0.00000000000E+00  0.46706482250E+03  0.46706482250E+03  0.00000000000E+00 0.  1.
          1   -1    0    0  501    0  0.00000000000E+00 -0.00000000000E+00 -0.12669251396E+04  0.12669251396E+04  0.00000000000E+00 0. -1.
         23    2    1    2    0    0 -0.45455532759E+03  0.17845965506E+03 -0.10675068296E+04  0.11771209919E+04  0.87032202129E+02 0.  0.
         11    1    3    3    0    0 -0.17520693091E+03  0.28090441824E+02 -0.42511678945E+03  0.46066346310E+03  0.00000000000E+00 0.  1.
        -11    1    3    3    0    0 -0.27934839667E+03  0.15036921323E+03 -0.64239004010E+03  0.71645752884E+03  0.00000000000E+00 0. -1.
         22    1    1    2    0    0  0.45455532759E+03 -0.17845965506E+03  0.26764651243E+03  0.55686897017E+03  0.00000000000E+00 0.  1.
<mgrwt>
<rscale>  0 0.15384878E+04</rscale>
<asrwt>0</asrwt>
<pdfrwt beam="1">  1        1 0.19491156E+00 0.15384878E+04</pdfrwt>
<pdfrwt beam="2">  1       -1 0.71856128E-01 0.15384878E+04</pdfrwt>
<totfact> 0.18010277E+01</totfact>
</mgrwt>
</event>
<event>
 6    1  0.1568961E-005  0.4435460E+04  0.7818608E-02  0.7922034E-01
          2   -1    0    0  501    0  0.00000000000E+00  0.00000000000E+00  0.17297684787E+04  0.17297684787E+04  0.00000000000E+00 0. -1.
         -2   -1    0    0    0  501 -0.00000000000E+00 -0.00000000000E+00 -0.28433436135E+04  0.28433436135E+04  0.00000000000E+00 0.  1.
         23    2    1    2    0    0  0.78070187951E+02  0.13943260388E+04 -0.23320965815E+04  0.27197274659E+04  0.89459298470E+02 0.  0.
         13    1    3    3    0    0  0.74110370393E+01  0.34819427247E+03 -0.51212320967E+03  0.61932572750E+03  0.00000000000E+00 0. -1.
        -13    1    3    3    0    0  0.70659150912E+02  0.10461317663E+04 -0.18199733719E+04  0.21004017384E+04  0.00000000000E+00 0.  1.
         22    1    1    2    0    0 -0.78070187951E+02 -0.13943260388E+04  0.12185214468E+04  0.18533846263E+04  0.00000000000E+00 0. -1.
<mgrwt>
<rscale>  0 0.44354599E+04</rscale>
<asrwt>0</asrwt>
<pdfrwt beam="1">  1        2 0.26611823E+00 0.44354599E+04</pdfrwt>
<pdfrwt beam="2">  1       -2 0.43743748E+00 0.44354599E+04</pdfrwt>
<totfact> 0.30244974E-02</totfact>
</mgrwt>
</event>
<event>
 6    1  0.1568961E-005  0.2142070E+04  0.7818608E-02  0.8542934E-01
         -2   -1    0    0    0  501 -0.00000000000E+00  0.00000000000E+00  0.55184996439E+03  0.55184996439E+03  0.00000000000E+00 0.  1.
          2   -1    0    0  501    0  0.00000000000E+00 -0.00000000000E+00 -0.20786736922E+04  0.20786736922E+04  0.00000000000E+00 0. -1.
         23    2    1    2    0    0 -0.96162408618E+03  0.27451214903E+03 -0.30081949504E+03  0.10483845408E+04  0.92411977754E+02 0.  0.
         11    1    3    3    0    0 -0.50914604250E+03  0.13075676520E+03 -0.11211121519E+03  0.53749041741E+03  0.00000000000E+00 0.  1.
        -11    1    3    3    0    0 -0.45247804368E+03  0.14375538383E+03 -0.18870827985E+03  0.51089412335E+03  0.00000000000E+00 0. -1.
         22    1    1    2    0    0  0.96162408618E+03 -0.27451214903E+03 -0.12260042328E+04  0.15821391159E+04  0.00000000000E+00 0. -1.
<mgrwt>
<rscale>  0 0.21420700E+04</rscale>
<asrwt>0</asrwt>
<pdfrwt beam="1">  1        2 0.31979596E+00 0.21420700E+04</pdfrwt>
<pdfrwt beam="2">  1       -2 0.84899993E-01 0.21420700E+04</pdfrwt>
<totfact> 0.67002788E+00</totfact>
</mgrwt>
</event>
<event>
 6    1  0.1568961E-005  0.3029086E+04  0.7818608E-02  0.8235474E-01
         -1   -1    0    0    0  501 -0.00000000000E+00  0.00000000000E+00  0.62866268026E+03  0.62866268026E+03  0.00000000000E+00 0.  1.
          1   -1    0    0  501    0  0.00000000000E+00 -0.00000000000E+00 -0.36487621489E+04  0.36487621489E+04  0.00000000000E+00 0. -1.
         23    2    1    2    0    0  0.53836930839E+03 -0.13046474986E+04 -0.74103863461E+03  0.15967411677E+04  0.92181834896E+02 0.  0.
         13    1    3    3    0    0  0.36158598144E+03 -0.91094720414E+03 -0.46836536092E+03  0.10862482875E+04  0.00000000000E+00 0.  1.
        -13    1    3    3    0    0  0.17678332696E+03 -0.39370029447E+03 -0.27267327368E+03  0.51049288020E+03  0.00000000000E+00 0. -1.
         22    1    1    2    0    0 -0.53836930839E+03  0.13046474986E+04 -0.22790608340E+04  0.26806836615E+04  0.00000000000E+00 0. -1.
<mgrwt>
<rscale>  0 0.30290861E+04</rscale>
<asrwt>0</asrwt>
<pdfrwt beam="1">  1        1 0.56134802E+00 0.30290861E+04</pdfrwt>
<pdfrwt beam="2">  1       -1 0.96717337E-01 0.30290861E+04</pdfrwt>
<totfact> 0.16569646E-01</totfact>
</mgrwt>
</event>
<event>
 6    1  0.1568961E-005  0.1257358E+04  0.7818608E-02  0.9064082E-01
          1   -1    0    0  501    0  0.00000000000E+00  0.00000000000E+00  0.11288143134E+04  0.11288143134E+04  0.00000000000E+00 0. -1.
         -1   -1    0    0    0  501 -0.00000000000E+00 -0.00000000000E+00 -0.35013477654E+03  0.35013477654E+03  0.00000000000E+00 0.  1.
         23    2    1    2    0    0  0.16969406661E+02 -0.57031273849E+03  0.90279147591E+02  0.58483518421E+03  0.91308749590E+02 0.  0.
         13    1    3    3    0    0  0.22481262250E+02 -0.15340233985E+03  0.61842753315E+02  0.16691977462E+03  0.00000000000E+00 0. -1.
        -13    1    3    3    0    0 -0.55118555887E+01 -0.41691039864E+03  0.28436394276E+02  0.41791540958E+03  0.00000000000E+00 0.  1.
         22    1    1    2    0    0 -0.16969406661E+02  0.57031273849E+03  0.68840038923E+03  0.89411390568E+03  0.00000000000E+00 0. -1.
<mgrwt>
<rscale>  0 0.12573578E+04</rscale>
<asrwt>0</asrwt>
<pdfrwt beam="1">  1        1 0.17366374E+00 0.12573578E+04</pdfrwt>
<pdfrwt beam="2">  1       -1 0.53866889E-01 0.12573578E+04</pdfrwt>
<totfact> 0.41353011E+01</totfact>
</mgrwt>
</event>
<event>
 6    1  0.1568961E-005  0.3559553E+04  0.7818608E-02  0.8099820E-01
         -1   -1    0    0    0  501 -0.00000000000E+00  0.00000000000E+00  0.70993242745E+03  0.70993242745E+03  0.00000000000E+00 0.  1.
          1   -1    0    0  501    0  0.00000000000E+00 -0.00000000000E+00 -0.44618383519E+04  0.44618383519E+04  0.00000000000E+00 0. -1.
         23    2    1    2    0    0  0.10950549341E+04  0.12620266763E+04 -0.99186141530E+03  0.19453637479E+04  0.93778484247E+02 0.  0.
         13    1    3    3    0    0  0.27499424759E+03  0.38027901053E+03 -0.27000095332E+03  0.54141894763E+03  0.00000000000E+00 0.  1.
        -13    1    3    3    0    0  0.82006068649E+03  0.88174766574E+03 -0.72186046198E+03  0.14039448002E+04  0.00000000000E+00 0. -1.
         22    1    1    2    0    0 -0.10950549341E+04 -0.12620266763E+04 -0.27600445092E+04  0.32264070315E+04  0.00000000000E+00 0. -1.
<mgrwt>
<rscale>  0 0.35595526E+04</rscale>
<asrwt>0</asrwt>
<pdfrwt beam="1">  1        1 0.68643667E+00 0.35595526E+04</pdfrwt>
<pdfrwt beam="2">  1       -1 0.10922037E+00 0.35595526E+04</pdfrwt>
<totfact> 0.22111149E-02</totfact>
</mgrwt>
</event>
<event>
 6    1  0.1568961E-005  0.3143401E+03  0.7818608E-02  0.1078284E+00
         -2   -1    0    0    0  501 -0.00000000000E+00  0.00000000000E+00  0.61077143180E+02  0.61077143180E+02  0.00000000000E+00 0.  1.
          2   -1    0    0  501    0  0.00000000000E+00 -0.00000000000E+00 -0.40444641378E+03  0.40444641378E+03  0.00000000000E+00 0. -1.
         23    2    1    2    0    0  0.56822175564E+02 -0.64714441445E+02 -0.35759515788E+03  0.37823613269E+03  0.88156432354E+02 0.  0.
         11    1    3    3    0    0 -0.65376929068E+01 -0.57296122585E+02 -0.20202820658E+03  0.21009755673E+03  0.00000000000E+00 0.  1.
        -11    1    3    3    0    0  0.63359868471E+02 -0.74183188596E+01 -0.15556695130E+03  0.16813857595E+03  0.00000000000E+00 0. -1.
         22    1    1    2    0    0 -0.56822175564E+02  0.64714441445E+02  0.14225887277E+02  0.87287424273E+02  0.00000000000E+00 0. -1.
<mgrwt>
<rscale>  0 0.31434014E+03</rscale>
<asrwt>0</asrwt>
<pdfrwt beam="1">  1        2 0.62222524E-01 0.31434014E+03</pdfrwt>
<pdfrwt beam="2">  1       -2 0.93964838E-02 0.31434014E+03</pdfrwt>
<totfact> 0.57796624E+03</totfact>
</mgrwt>
</event>
<event>
 6    1  0.1568961E-005  0.1533717E+04  0.7818608E-02  0.8862336E-01
          2   -1    0    0  501    0  0.00000000000E+00  0.00000000000E+00  0.69914589206E+03  0.69914589206E+03  0.00000000000E+00 0. -1.
         -2   -1    0    0    0  501 -0.00000000000E+00 -0.00000000000E+00 -0.84112910540E+03  0.84112910540E+03  0.00000000000E+00 0.  1.
         23    2    1    2    0    0 -0.48536846964E+03  0.55841303426E+03  0.12050521871E+03  0.75522223165E+03  0.91822890878E+02 0.  0.
         11    1    3    3    0    0 -0.16890287950E+02  0.12111688988E+02  0.19508608289E+02  0.28505449208E+02  0.00000000000E+00 0. -1.
        -11    1    3    3    0    0 -0.46847818169E+03  0.54630134528E+03  0.10099661042E+03  0.72671678244E+03  0.00000000000E+00 0.  1.
         22    1    1    2    0    0  0.48536846964E+03 -0.55841303426E+03 -0.26248843205E+03  0.78505276582E+03  0.00000000000E+00 0.  1.
<mgrwt>
<rscale>  0 0.15337170E+04</rscale>
<asrwt>0</asrwt>
<pdfrwt beam="1">  1        2 0.10756091E+00 0.15337170E+04</pdfrwt>
<pdfrwt beam="2">  1       -2 0.12940448E+00 0.15337170E+04</pdfrwt>
<totfact> 0.17372258E+01</totfact>
</mgrwt>
</event>
<event>
 6    1  0.1568961E-005  0.3459607E+04  0.7818608E-02  0.8123430E-01
         -2   -1    0    0    0  501 -0.00000000000E+00  0.00000000000E+00  0.12160847347E+04  0.12160847347E+04  0.00000000000E+00 0.  1.
          2   -1    0    0  501    0  0.00000000000E+00 -0.00000000000E+00 -0.24605359197E+04  0.24605359197E+04  0.00000000000E+00 0. -1.
         23    2    1    2    0    0 -0.95810681676E+03 -0.40868072052E+02  0.90576520244E+03  0.13222482573E+04  0.91054820058E+02 0.  0.
         13    1    3    3    0    0 -0.31828455575E+03 -0.19110017846E+02  0.36089707468E+03  0.48157756356E+03  0.00000000000E+00 0. -1.
        -13    1    3    3    0    0 -0.63982226102E+03 -0.21758054206E+02  0.54486812776E+03  0.84067069371E+03  0.00000000000E+00 0.  1.
         22    1    1    2    0    0  0.95810681676E+03  0.40868072052E+02 -0.21502163875E+04  0.23543723972E+04  0.00000000000E+00 0. -1.
<mgrwt>
<rscale>  0 0.34596070E+04</rscale>
<asrwt>0</asrwt>
<pdfrwt beam="1">  1        2 0.37854399E+00 0.34596070E+04</pdfrwt>
<pdfrwt beam="2">  1       -2 0.18708996E+00 0.34596070E+04</pdfrwt>
<totfact> 0.49048123E-01</totfact>
</mgrwt>
</event>
<event>
 6    1  0.1568961E-005  0.2484768E+04  0.7818608E-02  0.8408432E-01
         -2   -1    0    0    0  501 -0.00000000000E+00  0.00000000000E+00  0.69937006656E+03  0.69937006656E+03  0.00000000000E+00 0.  1.
          2   -1    0    0  501    0  0.00000000000E+00 -0.00000000000E+00 -0.22070116924E+04  0.22070116924E+04  0.00000000000E+00 0. -1.
         23    2    1    2    0    0  0.17588009237E+03  0.52687799871E+03 -0.20525201985E+04  0.21282899318E+04  0.90799979470E+02 0.  0.
         13    1    3    3    0    0  0.15893198399E+03  0.35071010638E+03 -0.13521154022E+04  0.14058709099E+04  0.00000000000E+00 0.  1.
        -13    1    3    3    0    0  0.16948108387E+02  0.17616789233E+03 -0.70040479626E+03  0.72241902196E+03  0.00000000000E+00 0. -1.
         22    1    1    2    0    0 -0.17588009237E+03 -0.52687799871E+03  0.54487857269E+03  0.77809182710E+03  0.00000000000E+00 0.  1.
<mgrwt>
<rscale>  0 0.24847679E+04</rscale>
<asrwt>0</asrwt>
<pdfrwt beam="1">  1        2 0.33954026E+00 0.24847679E+04</pdfrwt>
<pdfrwt beam="2">  1       -2 0.10759540E+00 0.24847679E+04</pdfrwt>
<totfact> 0.31667586E+00</totfact>
</mgrwt>
</event>
<event>
 6    1  0.1568961E-005  0.1273293E+04  0.7818608E-02  0.9051017E-01
         -1   -1    0    0    0  501 -0.00000000000E+00  0.00000000000E+00  0.37349718375E+03  0.37349718375E+03  0.00000000000E+00 0.  1.
          1   -1    0    0  501    0  0.00000000000E+00 -0.00000000000E+00 -0.10851983080E+04  0.10851983080E+04  0.00000000000E+00 0. -1.
         23    2    1    2    0    0 -0.34458860719E+03  0.52658218745E+03 -0.43702773388E+03  0.77205469796E+03  0.95105773349E+02 0.  0.
         11    1    3    3    0    0 -0.18991535664E+03  0.37067718147E+03 -0.27398973331E+03  0.49853765105E+03  0.00000000000E+00 0. -1.
        -11    1    3    3    0    0 -0.15467325055E+03  0.15590500597E+03 -0.16303800057E+03  0.27351704692E+03  0.00000000000E+00 0.  1.
         22    1    1    2    0    0  0.34458860719E+03 -0.52658218745E+03 -0.27467339040E+03  0.68664079382E+03  0.00000000000E+00 0.  1.
<mgrwt>
<rscale>  0 0.12732926E+04</rscale>
<asrwt>0</asrwt>
<pdfrwt beam="1">  1        1 0.16695359E+00 0.12732926E+04</pdfrwt>
<pdfrwt beam="2">  1       -1 0.57461105E-01 0.12732926E+04</pdfrwt>
<totfact> 0.39282509E+01</totfact>
</mgrwt>
</event>
<event>
 6    1  0.1568961E-005  0.2076482E+04  0.7818608E-02  0.8571675E-01
         -2   -1    0    0    0  501 -0.00000000000E+00  0.00000000000E+00  0.44239361597E+03  0.44239361597E+03  0.00000000000E+00 0.  1.
          2   -1    0    0  501    0  0.00000000000E+00 -0.00000000000E+00 -0.24366182132E+04  0.24366182132E+04  0.00000000000E+00 0. -1.
         23    2    1    2    0    0  0.98675886522E+02 -0.10242894132E+04 -0.11677434659E+04  0.15591721446E+04  0.92126225912E+02 0.  0.
         13    1    3    3    0    0  0.32742346731E+02 -0.75637550581E+03 -0.84379329065E+03  0.11336503360E+04  0.00000000000E+00 0.  1.
        -13    1    3    3    0    0  0.65933539791E+02 -0.26791390743E+03 -0.32395017528E+03  0.42552180852E+03  0.00000000000E+00 0. -1.
         22    1    1    2    0    0 -0.98675886522E+02  0.10242894132E+04 -0.82648113126E+03  0.13198396846E+04  0.00000000000E+00 0. -1.
<mgrwt>
<rscale>  0 0.20764820E+04</rscale>
<asrwt>0</asrwt>
<pdfrwt beam="1">  1        2 0.37486435E+00 0.20764820E+04</pdfrwt>
<pdfrwt beam="2">  1       -2 0.68060555E-01 0.20764820E+04</pdfrwt>
<totfact> 0.69130109E+00</totfact>
</mgrwt>
</event>
<event>
 6    1  0.1568961E-005  0.1556641E+04  0.7818608E-02  0.8847637E-01
          2   -1    0    0  501    0  0.00000000000E+00  0.00000000000E+00  0.40238495822E+03  0.40238495822E+03  0.00000000000E+00 0. -1.
         -2   -1    0    0    0  501 -0.00000000000E+00 -0.00000000000E+00 -0.15054812590E+04  0.15054812590E+04  0.00000000000E+00 0.  1.
         23    2    1    2    0    0 -0.35671482791E+03  0.44990594378E+03  0.85792576475E+02  0.58759443112E+03  0.90807613154E+02 0.  0.
         11    1    3    3    0    0 -0.24493768390E+03  0.33351404480E+03  0.22994241345E+02  0.41443313358E+03  0.00000000000E+00 0. -1.
        -11    1    3    3    0    0 -0.11177714401E+03  0.11639189898E+03  0.62798335130E+02  0.17316129754E+03  0.00000000000E+00 0.  1.
         22    1    1    2    0    0  0.35671482791E+03 -0.44990594378E+03 -0.11888888773E+04  0.13202717861E+04  0.00000000000E+00 0.  1.
<mgrwt>
<rscale>  0 0.15566413E+04</rscale>
<asrwt>0</asrwt>
<pdfrwt beam="1">  1        2 0.61905380E-01 0.15566413E+04</pdfrwt>
<pdfrwt beam="2">  1       -2 0.23161250E+00 0.15566413E+04</pdfrwt>
<totfact> 0.63460595E+00</totfact>
</mgrwt>
</event>
<event>
 6    1  0.1568961E-005  0.6170403E+04  0.7818608E-02  0.7669626E-01
          2   -1    0    0  501    0  0.00000000000E+00  0.00000000000E+00  0.47899513839E+04  0.47899513839E+04  0.00000000000E+00 0. -1.
         -2   -1    0    0    0  501 -0.00000000000E+00 -0.00000000000E+00 -0.19871745495E+04  0.19871745495E+04  0.00000000000E+00 0.  1.
         23    2    1    2    0    0 -0.11161858910E+04 -0.26881188127E+03  0.45460930888E+04  0.46897154961E+04  0.91314244952E+02 0.  0.
         11    1    3    3    0    0 -0.29182184380E+03 -0.40703123560E+02  0.12805327606E+04  0.13139942480E+04  0.00000000000E+00 0. -1.
        -11    1    3    3    0    0 -0.82436404720E+03 -0.22810875771E+03  0.32655603282E+04  0.33757212481E+04  0.00000000000E+00 0.  1.
         22    1    1    2    0    0  0.11161858910E+04  0.26881188127E+03 -0.17433162544E+04  0.20874104373E+04  0.00000000000E+00 0.  1.
<mgrwt>
<rscale>  0 0.61704034E+04</rscale>
<asrwt>0</asrwt>
<pdfrwt beam="1">  1        2 0.73691559E+00 0.61704034E+04</pdfrwt>
<pdfrwt beam="2">  1       -2 0.30571916E+00 0.61704034E+04</pdfrwt>
<totfact> 0.11695503E-03</totfact>
</mgrwt>
</event>
<event>
 6    1  0.1568961E-005  0.2223935E+04  0.7818608E-02  0.8508532E-01
          2   -1    0    0  501    0  0.00000000000E+00  0.00000000000E+00  0.12347566243E+04  0.12347566243E+04  0.00000000000E+00 0.  1.
         -2   -1    0    0    0  501 -0.00000000000E+00 -0.00000000000E+00 -0.10013887808E+04  0.10013887808E+04  0.00000000000E+00 0. -1.
         23    2    1    2    0    0  0.67898868060E+03  0.46835997418E+03  0.86391677876E+03  0.11978878968E+04  0.90534627572E+02 0.  0.
         13    1    3    3    0    0  0.14878437211E+02  0.28924912602E+02  0.23618829882E+02  0.40197855513E+02  0.00000000000E+00 0.  1.
        -13    1    3    3    0    0  0.66411024339E+03  0.43943506158E+03  0.84029794888E+03  0.11576900413E+04  0.00000000000E+00 0. -1.
         22    1    1    2    0    0 -0.67898868060E+03 -0.46835997418E+03 -0.63054893523E+03  0.10382575083E+04  0.00000000000E+00 0. -1.
<mgrwt>
<rscale>  0 0.22239347E+04</rscale>
<asrwt>0</asrwt>
<pdfrwt beam="1">  1        2 0.18996256E+00 0.22239347E+04</pdfrwt>
<pdfrwt beam="2">  1       -2 0.15405981E+00 0.22239347E+04</pdfrwt>
<totfact> 0.45973364E+00</totfact>
</mgrwt>
</event>
<event>
 6    1  0.1568961E-005  0.3061880E+04  0.7818608E-02  0.8226278E-01
         -1   -1    0    0    0  501 -0.00000000000E+00  0.00000000000E+00  0.11271246898E+04  0.11271246898E+04  0.00000000000E+00 0.  1.
          1   -1    0    0  501    0  0.00000000000E+00 -0.00000000000E+00 -0.20794300425E+04  0.20794300425E+04  0.00000000000E+00 0. -1.
         23    2    1    2    0    0 -0.16134206322E+03  0.79787092766E+03 -0.18327163862E+04  0.20074914034E+04  0.92428913106E+02 0.  0.
         13    1    3    3    0    0 -0.87087855958E+02  0.62265674503E+03 -0.13863109409E+04  0.15222167196E+04  0.00000000000E+00 0.  1.
        -13    1    3    3    0    0 -0.74254207266E+02  0.17521418263E+03 -0.44640544534E+03  0.48527468379E+03  0.00000000000E+00 0. -1.
         22    1    1    2    0    0  0.16134206322E+03 -0.79787092766E+03  0.88041103359E+03  0.11990633289E+04  0.00000000000E+00 0.  1.
<mgrwt>
<rscale>  0 0.30618798E+04</rscale>
<asrwt>0</asrwt>
<pdfrwt beam="1">  1        1 0.31991232E+00 0.30618798E+04</pdfrwt>
<pdfrwt beam="2">  1       -1 0.17340380E+00 0.30618798E+04</pdfrwt>
<totfact> 0.51763399E-01</totfact>
</mgrwt>
</event>
<event>
 6    1  0.1568961E-005  0.2975248E+04  0.7818608E-02  0.8250834E-01
         -2   -1    0    0    0  501 -0.00000000000E+00  0.00000000000E+00  0.29674865910E+04  0.29674865910E+04  0.00000000000E+00 0.  1.
          2   -1    0    0  501    0  0.00000000000E+00 -0.00000000000E+00 -0.74575763634E+03  0.74575763634E+03  0.00000000000E+00 0. -1.
         23    2    1    2    0    0  0.20921086196E+03  0.14249289894E+04  0.15699536082E+04  0.21324207357E+04  0.90950824252E+02 0.  0.
         11    1    3    3    0    0  0.89946651810E+02  0.85179992001E+03  0.97381794400E+03  0.12969097470E+04  0.00000000000E+00 0. -1.
        -11    1    3    3    0    0  0.11926421015E+03  0.57312906939E+03  0.59613566424E+03  0.83551098867E+03  0.00000000000E+00 0.  1.
         22    1    1    2    0    0 -0.20921086196E+03 -0.14249289894E+04  0.65177534646E+03  0.15808234917E+04  0.00000000000E+00 0. -1.
<mgrwt>
<rscale>  0 0.29752484E+04</rscale>
<asrwt>0</asrwt>
<pdfrwt beam="1">  1        2 0.11473195E+00 0.29752484E+04</pdfrwt>
<pdfrwt beam="2">  1       -2 0.45653639E+00 0.29752484E+04</pdfrwt>
<totfact> 0.10165918E-01</totfact>
</mgrwt>
</event>
<event>
 6    1  0.1568961E-005  0.2028490E+04  0.7818608E-02  0.8593416E-01
          2   -1    0    0  501    0  0.00000000000E+00  0.00000000000E+00  0.15780166180E+04  0.15780166180E+04  0.00000000000E+00 0. -1.
         -2   -1    0    0    0  501 -0.00000000000E+00 -0.00000000000E+00 -0.65188949416E+03  0.65188949416E+03  0.00000000000E+00 0.  1.
         23    2    1    2    0    0  0.46165633521E+03  0.33101526978E+02  0.14535142410E+04  0.15282228116E+04  0.92406873071E+02 0.  0.
         11    1    3    3    0    0  0.26335061579E+03 -0.16138334434E+02  0.72162117208E+03  0.76834309308E+03  0.00000000000E+00 0.  1.
        -11    1    3    3    0    0  0.19830571942E+03  0.49239861412E+02  0.73189306887E+03  0.75987971849E+03  0.00000000000E+00 0. -1.
         22    1    1    2    0    0 -0.46165633521E+03 -0.33101526978E+02 -0.52738711716E+03  0.70168330055E+03  0.00000000000E+00 0.  1.
<mgrwt>
<rscale>  0 0.20284895E+04</rscale>
<asrwt>0</asrwt>
<pdfrwt beam="1">  1        2 0.24277179E+00 0.20284895E+04</pdfrwt>
<pdfrwt beam="2">  1       -2 0.10029069E+00 0.20284895E+04</pdfrwt>
<totfact> 0.87245111E+00</totfact>
</mgrwt>
</event>
<event>
 6    1  0.1568961E-005  0.2024480E+04  0.7818608E-02  0.8595260E-01
         -1   -1    0    0    0  501 -0.00000000000E+00  0.00000000000E+00  0.13009457412E+04  0.13009457412E+04  0.00000000000E+00 0.  1.
          1   -1    0    0  501    0  0.00000000000E+00 -0.00000000000E+00 -0.78760413502E+03  0.78760413502E+03  0.00000000000E+00 0. -1.
         23    2    1    2    0    0  0.26139718065E+02 -0.89243306051E+03 -0.23033125174E+03  0.92658198854E+03  0.91551316777E+02 0.  0.
         13    1    3    3    0    0  0.43340048352E+02 -0.79296139960E+03 -0.18235010992E+03  0.81481145281E+03  0.00000000000E+00 0. -1.
        -13    1    3    3    0    0 -0.17200330287E+02 -0.99471660916E+02 -0.47981141820E+02  0.11177053573E+03  0.00000000000E+00 0.  1.
         22    1    1    2    0    0 -0.26139718065E+02  0.89243306051E+03  0.74367285787E+03  0.11619678876E+04  0.00000000000E+00 0.  1.
<mgrwt>
<rscale>  0 0.20244804E+04</rscale>
<asrwt>0</asrwt>
<pdfrwt beam="1">  1        1 0.12116987E+00 0.20244804E+04</pdfrwt>
<pdfrwt beam="2">  1       -1 0.20014550E+00 0.20244804E+04</pdfrwt>
<totfact> 0.31507759E+00</totfact>
</mgrwt>
</event>
<event>
 6    1  0.1568961E-005  0.2320127E+04  0.7818608E-02  0.8470027E-01
         -2   -1    0    0    0  501 -0.00000000000E+00  0.00000000000E+00  0.62877081140E+03  0.62877081140E+03  0.00000000000E+00 0.  1.
          2   -1    0    0  501    0  0.00000000000E+00 -0.00000000000E+00 -0.21402823938E+04  0.21402823938E+04  0.00000000000E+00 0. -1.
         23    2    1    2    0    0  0.42571180274E+03  0.10682636623E+04 -0.59641709513E+03  0.12994220570E+04  0.10181620593E+03 0.  0.
         13    1    3    3    0    0  0.90651040597E+02  0.20794473257E+03 -0.16396253835E+03  0.27989701132E+03  0.00000000000E+00 0. -1.
        -13    1    3    3    0    0  0.33506076214E+03  0.86031892969E+03 -0.43245455678E+03  0.10195250457E+04  0.00000000000E+00 0.  1.
         22    1    1    2    0    0 -0.42571180274E+03 -0.10682636623E+04 -0.91509448725E+03  0.14696311482E+04  0.00000000000E+00 0. -1.
<mgrwt>
<rscale>  0 0.23201268E+04</rscale>
<asrwt>0</asrwt>
<pdfrwt beam="1">  1        2 0.32927421E+00 0.23201268E+04</pdfrwt>
<pdfrwt beam="2">  1       -2 0.96733971E-01 0.23201268E+04</pdfrwt>
<totfact> 0.45100515E+00</totfact>
</mgrwt>
</event>
<event>
 6    1  0.1568961E-005  0.3338619E+04  0.7818608E-02  0.8153138E-01
          1   -1    0    0  501    0  0.00000000000E+00  0.00000000000E+00  0.13788124265E+04  0.13788124265E+04  0.00000000000E+00 0. -1.
         -1   -1    0    0    0  501 -0.00000000000E+00 -0.00000000000E+00 -0.20210106198E+04  0.20210106198E+04  0.00000000000E+00 0.  1.
         23    2    1    2    0    0 -0.38955239554E+03  0.55957425879E+03 -0.18715861026E+04  0.19940246782E+04  0.91790293352E+02 0.  0.
         11    1    3    3    0    0 -0.24906829233E+03  0.38735444165E+03 -0.11426949955E+04  0.12320025691E+04  0.00000000000E+00 0.  1.
        -11    1    3    3    0    0 -0.14048410321E+03  0.17221981713E+03 -0.72889110716E+03  0.76202210910E+03  0.00000000000E+00 0. -1.
         22    1    1    2    0    0  0.38955239554E+03 -0.55957425879E+03  0.12293879094E+04  0.14057983681E+04  0.00000000000E+00 0. -1.
<mgrwt>
<rscale>  0 0.33386192E+04</rscale>
<asrwt>0</asrwt>
<pdfrwt beam="1">  1        1 0.21212499E+00 0.33386192E+04</pdfrwt>
<pdfrwt beam="2">  1       -1 0.31092471E+00 0.33386192E+04</pdfrwt>
<totfact> 0.18437212E-01</totfact>
</mgrwt>
</event>
<event>
 6    1  0.1568961E-005  0.2930897E+04  0.7818608E-02  0.8263744E-01
          1   -1    0    0  501    0  0.00000000000E+00  0.00000000000E+00  0.20027374352E+04  0.20027374352E+04  0.00000000000E+00 0. -1.
         -1   -1    0    0    0  501 -0.00000000000E+00 -0.00000000000E+00 -0.10723018394E+04  0.10723018394E+04  0.00000000000E+00 0.  1.
         23    2    1    2    0    0 -0.31052960991E+03  0.14090863369E+04  0.72499706737E+03  0.16175901564E+04  0.94995909356E+02 0.  0.
         13    1    3    3    0    0 -0.44387927585E+02  0.31623246734E+03  0.19522045206E+03  0.37427835420E+03  0.00000000000E+00 0. -1.
        -13    1    3    3    0    0 -0.26614168232E+03  0.10928538696E+04  0.52977661532E+03  0.12433118022E+04  0.00000000000E+00 0.  1.
         22    1    1    2    0    0  0.31052960991E+03 -0.14090863369E+04  0.20543852842E+03  0.14574491183E+04  0.00000000000E+00 0. -1.
<mgrwt>
<rscale>  0 0.29308968E+04</rscale>
<asrwt>0</asrwt>
<pdfrwt beam="1">  1        1 0.30811345E+00 0.29308968E+04</pdfrwt>
<pdfrwt beam="2">  1       -1 0.16496951E+00 0.29308968E+04</pdfrwt>
<totfact> 0.68108191E-01</totfact>
</mgrwt>
</event>
<event>
 6    1  0.1568961E-005  0.1969529E+04  0.7818608E-02  0.8621001E-01
         -1   -1    0    0    0  501 -0.00000000000E+00  0.00000000000E+00  0.16795043427E+04  0.16795043427E+04  0.00000000000E+00 0.  1.
          1   -1    0    0  501    0  0.00000000000E+00 -0.00000000000E+00 -0.57740918687E+03  0.57740918687E+03  0.00000000000E+00 0. -1.
         23    2    1    2    0    0  0.17992095805E+03  0.83817115765E+03 -0.20694673339E+00  0.86049941981E+03  0.74543732159E+02 0.  0.
         11    1    3    3    0    0  0.35588217398E+02  0.22089080665E+03  0.30596728405E+02  0.22582167626E+03  0.00000000000E+00 0. -1.
        -11    1    3    3    0    0  0.14433274065E+03  0.61728035100E+03 -0.30803675139E+02  0.63467774355E+03  0.00000000000E+00 0.  1.
         22    1    1    2    0    0 -0.17992095805E+03 -0.83817115765E+03  0.11023021026E+04  0.13964141098E+04  0.00000000000E+00 0. -1.
<mgrwt>
<rscale>  0 0.19695291E+04</rscale>
<asrwt>0</asrwt>
<pdfrwt beam="1">  1        1 0.88832183E-01 0.19695291E+04</pdfrwt>
<pdfrwt beam="2">  1       -1 0.25838528E+00 0.19695291E+04</pdfrwt>
<totfact> 0.20695652E+00</totfact>
</mgrwt>
</event>
<event>
 6    1  0.1568961E-005  0.4153074E+04  0.7818608E-02  0.7974359E-01
          1   -1    0    0  501    0  0.00000000000E+00  0.00000000000E+00  0.38085643392E+04  0.38085643392E+04  0.00000000000E+00 0. -1.
         -1   -1    0    0    0  501 -0.00000000000E+00 -0.00000000000E+00 -0.11321865789E+04  0.11321865789E+04  0.00000000000E+00 0.  1.
         23    2    1    2    0    0  0.20479509165E+04  0.33420476354E+03  0.12816583965E+04  0.24405433499E+04  0.88361851668E+02 0.  0.
         11    1    3    3    0    0  0.15367688614E+04  0.25558910163E+03  0.91706275317E+03  0.18077578420E+04  0.00000000000E+00 0.  1.
        -11    1    3    3    0    0  0.51118205518E+03  0.78615661912E+02  0.36459564335E+03  0.63278550789E+03  0.00000000000E+00 0. -1.
         22    1    1    2    0    0 -0.20479509165E+04 -0.33420476354E+03  0.13947193637E+04  0.25002075682E+04  0.00000000000E+00 0. -1.
<mgrwt>
<rscale>  0 0.41530738E+04</rscale>
<asrwt>0</asrwt>
<pdfrwt beam="1">  1        1 0.58593297E+00 0.41530738E+04</pdfrwt>
<pdfrwt beam="2">  1       -1 0.17418255E+00 0.41530738E+04</pdfrwt>
<totfact> 0.24783268E-02</totfact>
</mgrwt>
</event>
<event>
 6    1  0.1568961E-005  0.1167448E+04  0.7818608E-02  0.9141837E-01
          2   -1    0    0  501    0  0.00000000000E+00  0.00000000000E+00  0.48075580033E+03  0.48075580033E+03  0.00000000000E+00 0.  1.
         -2   -1    0    0    0  501 -0.00000000000E+00 -0.00000000000E+00 -0.70874547644E+03  0.70874547644E+03  0.00000000000E+00 0. -1.
         23    2    1    2    0    0  0.13845963982E+03 -0.55932721254E+03 -0.44989991884E+02  0.58492962098E+03  0.90003108725E+02 0.  0.
         11    1    3    3    0    0  0.11792967692E+02 -0.23072826116E+03 -0.18076589499E+02  0.23173555547E+03  0.00000000000E+00 0. -1.
        -11    1    3    3    0    0  0.12666667213E+03 -0.32859895139E+03 -0.26913402385E+02  0.35319406551E+03  0.00000000000E+00 0.  1.
         22    1    1    2    0    0 -0.13845963982E+03  0.55932721254E+03 -0.18299968423E+03  0.60457165579E+03  0.00000000000E+00 0. -1.
<mgrwt>
<rscale>  0 0.11674476E+04</rscale>
<asrwt>0</asrwt>
<pdfrwt beam="1">  1        2 0.73962430E-01 0.11674476E+04</pdfrwt>
<pdfrwt beam="2">  1       -2 0.10903777E+00 0.11674476E+04</pdfrwt>
<totfact> 0.42771314E+01</totfact>
</mgrwt>
</event>
<event>
 6    1  0.1568961E-005  0.2491638E+04  0.7818608E-02  0.8405971E-01
         -1   -1    0    0    0  501 -0.00000000000E+00  0.00000000000E+00  0.70495121618E+03  0.70495121618E+03  0.00000000000E+00 0.  1.
          1   -1    0    0  501    0  0.00000000000E+00 -0.00000000000E+00 -0.22016628919E+04  0.22016628919E+04  0.00000000000E+00 0. -1.
         23    2    1    2    0    0 -0.91770958797E+03  0.64991031235E+03 -0.12832374088E+03  0.11354394012E+04  0.90450812376E+02 0.  0.
         11    1    3    3    0    0 -0.35533599029E+03  0.30492958326E+03 -0.43457213343E+02  0.47024913198E+03  0.00000000000E+00 0. -1.
        -11    1    3    3    0    0 -0.56237359768E+03  0.34498072909E+03 -0.84866527533E+02  0.66519026925E+03  0.00000000000E+00 0.  1.
         22    1    1    2    0    0  0.91770958797E+03 -0.64991031235E+03 -0.13683879348E+04  0.17711747068E+04  0.00000000000E+00 0. -1.
<mgrwt>
<rscale>  0 0.24916380E+04</rscale>
<asrwt>0</asrwt>
<pdfrwt beam="1">  1        1 0.33871736E+00 0.24916380E+04</pdfrwt>
<pdfrwt beam="2">  1       -1 0.10845403E+00 0.24916380E+04</pdfrwt>
<totfact> 0.15240099E+00</totfact>
</mgrwt>
</event>
<event>
 6    1  0.1568961E-005  0.2242969E+04  0.7818608E-02  0.8500753E-01
         -1   -1    0    0    0  501 -0.00000000000E+00  0.00000000000E+00  0.80376066032E+03  0.80376066032E+03  0.00000000000E+00 0.  1.
          1   -1    0    0  501    0  0.00000000000E+00 -0.00000000000E+00 -0.15648030075E+04  0.15648030075E+04  0.00000000000E+00 0. -1.
         23    2    1    2    0    0  0.83539613128E+03  0.48633672548E+03  0.21545297338E+03  0.99453556848E+03  0.90944524486E+02 0.  0.
         13    1    3    3    0    0  0.22046512546E+03  0.96735844746E+02  0.82737313745E+02  0.25457446511E+03  0.00000000000E+00 0. -1.
        -13    1    3    3    0    0  0.61493100582E+03  0.38960088074E+03  0.13271565964E+03  0.73996110337E+03  0.00000000000E+00 0.  1.
         22    1    1    2    0    0 -0.83539613128E+03 -0.48633672548E+03 -0.97649532059E+03  0.13740280994E+04  0.00000000000E+00 0. -1.
<mgrwt>
<rscale>  0 0.22429687E+04</rscale>
<asrwt>0</asrwt>
<pdfrwt beam="1">  1        1 0.24073892E+00 0.22429687E+04</pdfrwt>
<pdfrwt beam="2">  1       -1 0.12365549E+00 0.22429687E+04</pdfrwt>
<totfact> 0.30809929E+00</totfact>
</mgrwt>
</event>
<event>
 6    1  0.1568961E-005  0.1319118E+04  0.7818608E-02  0.9014541E-01
          2   -1    0    0  501    0  0.00000000000E+00  0.00000000000E+00  0.17333274884E+04  0.17333274884E+04  0.00000000000E+00 0. -1.
         -2   -1    0    0    0  501 -0.00000000000E+00 -0.00000000000E+00 -0.25097266346E+03  0.25097266346E+03  0.00000000000E+00 0.  1.
         23    2    1    2    0    0  0.14221430499E+03  0.25708556266E+03  0.16277518025E+04  0.16564920126E+04  0.89844100213E+02 0.  0.
         11    1    3    3    0    0  0.98720501517E+02  0.13492725264E+03  0.69809461740E+03  0.71783507561E+03  0.00000000000E+00 0. -1.
        -11    1    3    3    0    0  0.43493803471E+02  0.12215831002E+03  0.92965718507E+03  0.93865693701E+03  0.00000000000E+00 0.  1.
         22    1    1    2    0    0 -0.14221430499E+03 -0.25708556266E+03 -0.14539697754E+03  0.32780813924E+03  0.00000000000E+00 0.  1.
<mgrwt>
<rscale>  0 0.13191176E+04</rscale>
<asrwt>0</asrwt>
<pdfrwt beam="1">  1        2 0.26666576E+00 0.13191176E+04</pdfrwt>
<pdfrwt beam="2">  1       -2 0.38611180E-01 0.13191176E+04</pdfrwt>
<totfact> 0.58287947E+01</totfact>
</mgrwt>
</event>
<event>
 6    1  0.1568961E-005  0.2021472E+04  0.7818608E-02  0.8596647E-01
         -1   -1    0    0    0  501 -0.00000000000E+00  0.00000000000E+00  0.11805162649E+04  0.11805162649E+04  0.00000000000E+00 0.  1.
          1   -1    0    0  501    0  0.00000000000E+00 -0.00000000000E+00 -0.86537343577E+03  0.86537343577E+03  0.00000000000E+00 0. -1.
         23    2    1    2    0    0  0.39996118656E+03  0.74496502887E+03 -0.39882108977E+03  0.93923423375E+03  0.90337363256E+02 0.  0.
         11    1    3    3    0    0  0.11022658008E+03  0.29316394677E+03 -0.16145142881E+03  0.35236566590E+03  0.00000000000E+00 0.  1.
        -11    1    3    3    0    0  0.28973460648E+03  0.45180108211E+03 -0.23736966096E+03  0.58686856785E+03  0.00000000000E+00 0. -1.
         22    1    1    2    0    0 -0.39996118656E+03 -0.74496502887E+03  0.71396391892E+03  0.11066554669E+04  0.00000000000E+00 0.  1.
<mgrwt>
<rscale>  0 0.20214722E+04</rscale>
<asrwt>0</asrwt>
<pdfrwt beam="1">  1        1 0.13313437E+00 0.20214722E+04</pdfrwt>
<pdfrwt beam="2">  1       -1 0.18161789E+00 0.20214722E+04</pdfrwt>
<totfact> 0.36471129E+00</totfact>
</mgrwt>
</event>
<event>
 6    1  0.1568961E-005  0.5437160E+04  0.7818608E-02  0.7764396E-01
         -1   -1    0    0    0  501 -0.00000000000E+00  0.00000000000E+00  0.26666174361E+04  0.26666174361E+04  0.00000000000E+00 0.  1.
          1   -1    0    0  501    0  0.00000000000E+00 -0.00000000000E+00 -0.27715547178E+04  0.27715547178E+04  0.00000000000E+00 0. -1.
         23    2    1    2    0    0 -0.52858837720E+03 -0.26397047639E+04  0.32032557755E+03  0.27126822140E+04  0.92679046323E+02 0.  0.
         11    1    3    3    0    0 -0.28576588358E+03 -0.16006241255E+04  0.22348921487E+03  0.16412212405E+04  0.00000000000E+00 0. -1.
        -11    1    3    3    0    0 -0.24282249362E+03 -0.10390806384E+04  0.96836362677E+02  0.10714609735E+04  0.00000000000E+00 0.  1.
         22    1    1    2    0    0  0.52858837720E+03  0.26397047639E+04 -0.42526285917E+03  0.27254899399E+04  0.00000000000E+00 0. -1.
<mgrwt>
<rscale>  0 0.54371596E+04</rscale>
<asrwt>0</asrwt>
<pdfrwt beam="1">  1        1 0.42639303E+00 0.54371596E+04</pdfrwt>
<pdfrwt beam="2">  1       -1 0.41024884E+00 0.54371596E+04</pdfrwt>
<totfact> 0.37106743E-03</totfact>
</mgrwt>
</event>
<event>
 6    1  0.1568961E-005  0.1425933E+04  0.7818608E-02  0.8935258E-01
          2   -1    0    0  501    0  0.00000000000E+00  0.00000000000E+00  0.28789834703E+04  0.28789834703E+04  0.00000000000E+00 0. -1.
         -2   -1    0    0    0  501 -0.00000000000E+00 -0.00000000000E+00 -0.17656263109E+03  0.17656263109E+03  0.00000000000E+00 0.  1.
         23    2    1    2    0    0  0.70646658527E+03  0.53760944573E+02  0.14779494949E+04  0.16408675696E+04  0.78271298717E+02 0.  0.
         13    1    3    3    0    0  0.55549450186E+03  0.74351644576E+02  0.11633788221E+04  0.12913375207E+04  0.00000000000E+00 0. -1.
        -13    1    3    3    0    0  0.15097208341E+03 -0.20590700003E+02  0.31457067277E+03  0.34953004887E+03  0.00000000000E+00 0.  1.
         22    1    1    2    0    0 -0.70646658527E+03 -0.53760944573E+02  0.12244713442E+04  0.14146785317E+04  0.00000000000E+00 0. -1.
<mgrwt>
<rscale>  0 0.14259325E+04</rscale>
<asrwt>0</asrwt>
<pdfrwt beam="1">  1        2 0.44292050E+00 0.14259325E+04</pdfrwt>
<pdfrwt beam="2">  1       -2 0.27163484E-01 0.14259325E+04</pdfrwt>
<totfact> 0.24965481E+01</totfact>
</mgrwt>
</event>
<event>
 6    1  0.1568961E-005  0.1108167E+04  0.7818608E-02  0.9197268E-01
          2   -1    0    0  501    0  0.00000000000E+00  0.00000000000E+00  0.48118862270E+03  0.48118862270E+03  0.00000000000E+00 0. -1.
         -2   -1    0    0    0  501 -0.00000000000E+00 -0.00000000000E+00 -0.63802143590E+03  0.63802143590E+03  0.00000000000E+00 0.  1.
         23    2    1    2    0    0  0.17581579697E+02 -0.23388168993E+03 -0.58178906486E+03  0.63382611505E+03  0.90814488376E+02 0.  0.
         11    1    3    3    0    0  0.41790164512E+02 -0.88487656249E+02 -0.30388495135E+03  0.31925310776E+03  0.00000000000E+00 0. -1.
        -11    1    3    3    0    0 -0.24208584815E+02 -0.14539403368E+03 -0.27790411351E+03  0.31457300729E+03  0.00000000000E+00 0.  1.
         22    1    1    2    0    0 -0.17581579697E+02  0.23388168993E+03  0.42495625167E+03  0.48538394355E+03  0.00000000000E+00 0. -1.
<mgrwt>
<rscale>  0 0.11081672E+04</rscale>
<asrwt>0</asrwt>
<pdfrwt beam="1">  1        2 0.74029019E-01 0.11081672E+04</pdfrwt>
<pdfrwt beam="2">  1       -2 0.98157144E-01 0.11081672E+04</pdfrwt>
<totfact> 0.55164780E+01</totfact>
</mgrwt>
</event>
<event>
 6    1  0.1568961E-005  0.1215052E+04  0.7818608E-02  0.9099783E-01
          2   -1    0    0  501    0  0.00000000000E+00  0.00000000000E+00  0.20547330230E+04  0.20547330230E+04  0.00000000000E+00 0.  1.
         -2   -1    0    0    0  501 -0.00000000000E+00 -0.00000000000E+00 -0.17962804127E+03  0.17962804127E+03  0.00000000000E+00 0. -1.
         23    2    1    2    0    0  0.28608450698E+03 -0.36398895507E+03  0.22901671584E+03  0.52440817497E+03  0.90680611461E+02 0.  0.
         13    1    3    3    0    0  0.12797864145E+03 -0.14618007815E+03  0.14508792100E+03  0.24248227303E+03  0.00000000000E+00 0.  1.
        -13    1    3    3    0    0  0.15810586553E+03 -0.21780887692E+03  0.83928794843E+02  0.28192590194E+03  0.00000000000E+00 0. -1.
         22    1    1    2    0    0 -0.28608450698E+03  0.36398895507E+03  0.16460882659E+04  0.17099528893E+04  0.00000000000E+00 0.  1.
<mgrwt>
<rscale>  0 0.12150517E+04</rscale>
<asrwt>0</asrwt>
<pdfrwt beam="1">  1        2 0.31611276E+00 0.12150517E+04</pdfrwt>
<pdfrwt beam="2">  1       -2 0.27635085E-01 0.12150517E+04</pdfrwt>
<totfact> 0.73444386E+01</totfact>
</mgrwt>
</event>
<event>
 6    1  0.1568961E-005  0.6498915E+04  0.7818608E-02  0.7631443E-01
          2   -1    0    0  501    0  0.00000000000E+00  0.00000000000E+00  0.25048689888E+04  0.25048689888E+04  0.00000000000E+00 0. -1.
         -2   -1    0    0    0  501 -0.00000000000E+00 -0.00000000000E+00 -0.42153794862E+04  0.42153794862E+04  0.00000000000E+00 0.  1.
         23    2    1    2    0    0  0.27379592021E+03  0.73657694008E+03 -0.41151285631E+04  0.41904860678E+04  0.91545612269E+02 0.  0.
         11    1    3    3    0    0  0.14590479695E+03  0.26491568880E+03 -0.15684861108E+04  0.15973782307E+04  0.00000000000E+00 0.  1.
        -11    1    3    3    0    0  0.12789112326E+03  0.47166125129E+03 -0.25466424523E+04  0.25931078372E+04  0.00000000000E+00 0. -1.
         22    1    1    2    0    0 -0.27379592021E+03 -0.73657694008E+03  0.24046180657E+04  0.25297624072E+04  0.00000000000E+00 0. -1.
<mgrwt>
<rscale>  0 0.64989148E+04</rscale>
<asrwt>0</asrwt>
<pdfrwt beam="1">  1        2 0.38536446E+00 0.64989148E+04</pdfrwt>
<pdfrwt beam="2">  1       -2 0.64851992E+00 0.64989148E+04</pdfrwt>
<totfact> 0.78118436E-04</totfact>
</mgrwt>
</event>
<event>
 6    1  0.2294497E-005  0.3750935E+04  0.7818608E-02  0.8056767E-01
          1   -1    0    0  501    0  0.00000000000E+00  0.00000000000E+00  0.33689874362E+04  0.33689874362E+04  0.00000000000E+00 0. -1.
         -1   -1    0    0    0  501 -0.00000000000E+00 -0.00000000000E+00 -0.10440462075E+04  0.10440462075E+04  0.00000000000E+00 0.  1.
         23    2    1    2    0    0 -0.10486125121E+04  0.13819035792E+04  0.19981522423E+04  0.26478037027E+04  0.94901854374E+02 0.  0.
         13    1    3    3    0    0 -0.29573699687E+03  0.40516344045E+03  0.51491395388E+03  0.71885615021E+03  0.00000000000E+00 0. -1.
        -13    1    3    3    0    0 -0.75287551528E+03  0.97674013874E+03  0.14832382884E+04  0.19289475525E+04  0.00000000000E+00 0.  1.
         22    1    1    2    0    0  0.10486125121E+04 -0.13819035792E+04  0.32678898638E+03  0.17652299410E+04  0.00000000000E+00 0.  1.
<mgrwt>
<rscale>  0 0.37509351E+04</rscale>
<asrwt>0</asrwt>
<pdfrwt beam="1">  1        1 0.51830575E+00 0.37509351E+04</pdfrwt>
<pdfrwt beam="2">  1       -1 0.16062249E+00 0.37509351E+04</pdfrwt>
<totfact> 0.72927211E-02</totfact>
</mgrwt>
</event>
<event>
 6    1  0.1568961E-005  0.6880552E+03  0.7818608E-02  0.9737880E-01
         -2   -1    0    0    0  501 -0.00000000000E+00  0.00000000000E+00  0.15389737306E+03  0.15389737306E+03  0.00000000000E+00 0. -1.
          2   -1    0    0  501    0  0.00000000000E+00 -0.00000000000E+00 -0.76905141602E+03  0.76905141602E+03  0.00000000000E+00 0.  1.
         23    2    1    2    0    0 -0.13182182331E+03 -0.19272163872E+03  0.14873337456E+02  0.25104617470E+03  0.91018363732E+02 0.  0.
         13    1    3    3    0    0 -0.89003933477E+02 -0.54526654356E+02 -0.75117186132E+01  0.10464837374E+03  0.00000000000E+00 0. -1.
        -13    1    3    3    0    0 -0.42817889829E+02 -0.13819498436E+03  0.22385056069E+02  0.14639780097E+03  0.00000000000E+00 0.  1.
         22    1    1    2    0    0  0.13182182331E+03  0.19272163872E+03 -0.63002738042E+03  0.67190261438E+03  0.00000000000E+00 0.  1.
<mgrwt>
<rscale>  0 0.68805521E+03</rscale>
<asrwt>0</asrwt>
<pdfrwt beam="1">  1        2 0.11831560E+00 0.68805521E+03</pdfrwt>
<pdfrwt beam="2">  1       -2 0.23676519E-01 0.68805521E+03</pdfrwt>
<totfact> 0.57722938E+02</totfact>
</mgrwt>
</event>
<event>
 6    1  0.1568961E-005  0.1356041E+04  0.7818608E-02  0.8986268E-01
         -1   -1    0    0    0  501 -0.00000000000E+00  0.00000000000E+00  0.19961554251E+03  0.19961554251E+03  0.00000000000E+00 0.  1.
          1   -1    0    0  501    0  0.00000000000E+00 -0.00000000000E+00 -0.23029845002E+04  0.23029845002E+04  0.00000000000E+00 0. -1.
         23    2    1    2    0    0  0.29660474408E+03 -0.52738971444E+03 -0.50454759545E+03  0.79311356032E+03  0.91359500783E+02 0.  0.
         11    1    3    3    0    0  0.28651284538E+02 -0.88027113955E+02 -0.11527703205E+03  0.14784607879E+03  0.00000000000E+00 0. -1.
        -11    1    3    3    0    0  0.26795345954E+03 -0.43936260048E+03 -0.38927056340E+03  0.64526748152E+03  0.00000000000E+00 0.  1.
         22    1    1    2    0    0 -0.29660474408E+03  0.52738971444E+03 -0.15988213622E+04  0.17094864824E+04  0.00000000000E+00 0. -1.
<mgrwt>
<rscale>  0 0.13560406E+04</rscale>
<asrwt>0</asrwt>
<pdfrwt beam="1">  1        1 0.35430530E+00 0.13560406E+04</pdfrwt>
<pdfrwt beam="2">  1       -1 0.30710084E-01 0.13560406E+04</pdfrwt>
<totfact> 0.17793283E+01</totfact>
</mgrwt>
</event>
<event>
 6    1  0.1568961E-005  0.1816240E+04  0.7818608E-02  0.8697711E-01
          2   -1    0    0  501    0  0.00000000000E+00  0.00000000000E+00  0.23462893945E+04  0.23462893945E+04  0.00000000000E+00 0. -1.
         -2   -1    0    0    0  501 -0.00000000000E+00 -0.00000000000E+00 -0.35148338441E+03  0.35148338441E+03  0.00000000000E+00 0.  1.
         23    2    1    2    0    0 -0.70703677324E+03  0.44373318083E+03  0.47835350812E+03  0.96675333210E+03  0.94814513209E+02 0.  0.
         11    1    3    3    0    0 -0.14524712474E+03  0.51157232761E+02  0.72149004745E+02  0.17005666289E+03  0.00000000000E+00 0. -1.
        -11    1    3    3    0    0 -0.56178964850E+03  0.39257594807E+03  0.40620450338E+03  0.79669666921E+03  0.00000000000E+00 0.  1.
         22    1    1    2    0    0  0.70703677324E+03 -0.44373318083E+03  0.15164525019E+04  0.17310194468E+04  0.00000000000E+00 0. -1.
<mgrwt>
<rscale>  0 0.18162398E+04</rscale>
<asrwt>0</asrwt>
<pdfrwt beam="1">  1        2 0.36096759E+00 0.18162398E+04</pdfrwt>
<pdfrwt beam="2">  1       -2 0.54074368E-01 0.18162398E+04</pdfrwt>
<totfact> 0.12964251E+01</totfact>
</mgrwt>
</event>
<event>
 6    1  0.1568961E-005  0.8657407E+03  0.7818608E-02  0.9469451E-01
         -2   -1    0    0    0  501 -0.00000000000E+00  0.00000000000E+00  0.13634830849E+04  0.13634830849E+04  0.00000000000E+00 0.  1.
          2   -1    0    0  501    0  0.00000000000E+00 -0.00000000000E+00 -0.13742504292E+03  0.13742504292E+03  0.00000000000E+00 0. -1.
         23    2    1    2    0    0 -0.65605656758E+02 -0.22682842412E+03  0.12388187513E+04  0.12644381046E+04  0.91523688604E+02 0.  0.
         11    1    3    3    0    0 -0.49247086072E+02 -0.20736640374E+03  0.90949707868E+03  0.93413651948E+03  0.00000000000E+00 0. -1.
        -11    1    3    3    0    0 -0.16358570686E+02 -0.19462020380E+02  0.32932167263E+03  0.33030158513E+03  0.00000000000E+00 0.  1.
         22    1    1    2    0    0  0.65605656758E+02  0.22682842412E+03 -0.12760709317E+02  0.23647002324E+03  0.00000000000E+00 0. -1.
<mgrwt>
<rscale>  0 0.86574066E+03</rscale>
<asrwt>0</asrwt>
<pdfrwt beam="1">  1        2 0.21142315E-01 0.86574066E+03</pdfrwt>
<pdfrwt beam="2">  1       -2 0.20976662E+00 0.86574066E+03</pdfrwt>
<totfact> 0.30918513E+01</totfact>
</mgrwt>
</event>
<event>
 6    1  0.1568961E-005  0.9360882E+03  0.7818608E-02  0.9381561E-01
         -3   -1    0    0    0  501 -0.00000000000E+00  0.00000000000E+00  0.92286789949E+03  0.92286789949E+03  0.00000000000E+00 0.  1.
          3   -1    0    0  501    0  0.00000000000E+00 -0.00000000000E+00 -0.23737445988E+03  0.23737445988E+03  0.00000000000E+00 0. -1.
         23    2    1    2    0    0 -0.41430058540E+03 -0.52831671689E+02  0.59539534858E+03  0.73297917748E+03  0.91250714622E+02 0.  0.
         13    1    3    3    0    0 -0.20900744006E+03 -0.66815968088E+02  0.26911988244E+03  0.34723766316E+03  0.00000000000E+00 0. -1.
        -13    1    3    3    0    0 -0.20529314534E+03  0.13984296398E+02  0.32627546613E+03  0.38574151432E+03  0.00000000000E+00 0.  1.
         22    1    1    2    0    0  0.41430058540E+03  0.52831671689E+02  0.90098091037E+02  0.42726318190E+03  0.00000000000E+00 0. -1.
<mgrwt>
<rscale>  0 0.93608818E+03</rscale>
<asrwt>0</asrwt>
<pdfrwt beam="1">  1        3 0.36519148E-01 0.93608818E+03</pdfrwt>
<pdfrwt beam="2">  1       -3 0.14197968E+00 0.93608818E+03</pdfrwt>
<totfact> 0.72456161E+00</totfact>
</mgrwt>
</event>
<event>
 6    1  0.1568961E-005  0.1730811E+04  0.7818608E-02  0.8743984E-01
         -2   -1    0    0    0  501 -0.00000000000E+00  0.00000000000E+00  0.16979356188E+03  0.16979356188E+03  0.00000000000E+00 0. -1.
          2   -1    0    0  501    0  0.00000000000E+00 -0.00000000000E+00 -0.44108057351E+04  0.44108057351E+04  0.00000000000E+00 0.  1.
         23    2    1    2    0    0 -0.12332991166E+02  0.41576881986E+03 -0.41276230941E+04  0.41494695050E+04  0.88368274080E+02 0.  0.
         13    1    3    3    0    0  0.98915635736E+01  0.21546424659E+03 -0.25318035702E+04  0.25409746166E+04  0.00000000000E+00 0. -1.
        -13    1    3    3    0    0 -0.22224554740E+02  0.20030457327E+03 -0.15958195240E+04  0.16084948884E+04  0.00000000000E+00 0.  1.
         22    1    1    2    0    0  0.12332991166E+02 -0.41576881986E+03 -0.11338907908E+03  0.43112979194E+03  0.00000000000E+00 0. -1.
<mgrwt>
<rscale>  0 0.17308107E+04</rscale>
<asrwt>0</asrwt>
<pdfrwt beam="1">  1        2 0.67858558E+00 0.17308107E+04</pdfrwt>
<pdfrwt beam="2">  1       -2 0.26122083E-01 0.17308107E+04</pdfrwt>
<totfact> 0.19295325E+00</totfact>
</mgrwt>
</event>
<event>
 6    1  0.1568961E-005  0.3953948E+04  0.7818608E-02  0.8013902E-01
          1   -1    0    0  501    0  0.00000000000E+00  0.00000000000E+00  0.92838875668E+03  0.92838875668E+03  0.00000000000E+00 0. -1.
         -1   -1    0    0    0  501 -0.00000000000E+00 -0.00000000000E+00 -0.42099020957E+04  0.42099020957E+04  0.00000000000E+00 0.  1.
         23    2    1    2    0    0  0.17221369098E+04  0.96057485518E+03 -0.18065685048E+04  0.26757876844E+04  0.87694816828E+02 0.  0.
         13    1    3    3    0    0  0.92558448623E+03  0.55509445162E+03 -0.10253970959E+04  0.14887161233E+04  0.00000000000E+00 0. -1.
        -13    1    3    3    0    0  0.79655242355E+03  0.40548040356E+03 -0.78117140892E+03  0.11870715611E+04  0.00000000000E+00 0.  1.
         22    1    1    2    0    0 -0.17221369098E+04 -0.96057485518E+03 -0.14749448342E+04  0.24625031680E+04  0.00000000000E+00 0.  1.
<mgrwt>
<rscale>  0 0.39539478E+04</rscale>
<asrwt>0</asrwt>
<pdfrwt beam="1">  1        1 0.14282904E+00 0.39539478E+04</pdfrwt>
<pdfrwt beam="2">  1       -1 0.64767725E+00 0.39539478E+04</pdfrwt>
<totfact> 0.40351371E-03</totfact>
</mgrwt>
</event>
<event>
 6    1  0.1568961E-005  0.9079022E+03  0.7818608E-02  0.9415757E-01
         -1   -1    0    0    0  501 -0.00000000000E+00  0.00000000000E+00  0.24675094863E+03  0.24675094863E+03  0.00000000000E+00 0.  1.
          1   -1    0    0  501    0  0.00000000000E+00 -0.00000000000E+00 -0.83514006365E+03  0.83514006365E+03  0.00000000000E+00 0. -1.
         23    2    1    2    0    0 -0.47832346919E+01  0.11515624206E+03 -0.81475921342E+03  0.82786884619E+03  0.90831774289E+02 0.  0.
         13    1    3    3    0    0 -0.75285869182E+01  0.10086312051E+03 -0.39133036016E+03  0.40418992996E+03  0.00000000000E+00 0. -1.
        -13    1    3    3    0    0  0.27453522263E+01  0.14293121545E+02 -0.42342885326E+03  0.42367891623E+03  0.00000000000E+00 0.  1.
         22    1    1    2    0    0  0.47832346919E+01 -0.11515624206E+03  0.22637009839E+03  0.25402216609E+03  0.00000000000E+00 0.  1.
<mgrwt>
<rscale>  0 0.90790220E+03</rscale>
<asrwt>0</asrwt>
<pdfrwt beam="1">  1        1 0.12848309E+00 0.90790220E+03</pdfrwt>
<pdfrwt beam="2">  1       -1 0.37961684E-01 0.90790220E+03</pdfrwt>
<totfact> 0.13902153E+02</totfact>
</mgrwt>
</event>
<event>
 6    1  0.1568961E-005  0.1655514E+04  0.7818608E-02  0.8787151E-01
          1   -1    0    0  501    0  0.00000000000E+00  0.00000000000E+00  0.34825922892E+03  0.34825922892E+03  0.00000000000E+00 0. -1.
         -1   -1    0    0    0  501 -0.00000000000E+00 -0.00000000000E+00 -0.19674479389E+04  0.19674479389E+04  0.00000000000E+00 0.  1.
         23    2    1    2    0    0 -0.56104683335E+03 -0.20635655805E+03 -0.16083332308E+04  0.17178155224E+04  0.82448829866E+02 0.  0.
         11    1    3    3    0    0 -0.15812911030E+03 -0.44667250079E+02 -0.54610439291E+03  0.57028938856E+03  0.00000000000E+00 0. -1.
        -11    1    3    3    0    0 -0.40291772305E+03 -0.16168930797E+03 -0.10622288379E+04  0.11475261338E+04  0.00000000000E+00 0.  1.
         22    1    1    2    0    0  0.56104683335E+03  0.20635655805E+03 -0.10855479232E+02  0.59789164544E+03  0.00000000000E+00 0. -1.
<mgrwt>
<rscale>  0 0.16555143E+04</rscale>
<asrwt>0</asrwt>
<pdfrwt beam="1">  1        1 0.53578343E-01 0.16555143E+04</pdfrwt>
<pdfrwt beam="2">  1       -1 0.30268430E+00 0.16555143E+04</pdfrwt>
<totfact> 0.21886197E+00</totfact>
</mgrwt>
</event>
<event>
 6    1  0.1568961E-005  0.2347883E+04  0.7818608E-02  0.8459277E-01
         -2   -1    0    0    0  501 -0.00000000000E+00  0.00000000000E+00  0.35647454973E+03  0.35647454973E+03  0.00000000000E+00 0. -1.
          2   -1    0    0  501    0  0.00000000000E+00 -0.00000000000E+00 -0.38660209965E+04  0.38660209965E+04  0.00000000000E+00 0.  1.
         23    2    1    2    0    0  0.14499733561E+03 -0.11090652739E+04 -0.23871558277E+04  0.26379417570E+04  0.95779739634E+02 0.  0.
         13    1    3    3    0    0  0.49805157994E+02 -0.63105438480E+03 -0.14296251440E+04  0.15635019164E+04  0.00000000000E+00 0.  1.
        -13    1    3    3    0    0  0.95192177616E+02 -0.47801088911E+03 -0.95753068369E+03  0.10744398406E+04  0.00000000000E+00 0. -1.
         22    1    1    2    0    0 -0.14499733561E+03  0.11090652739E+04 -0.11223906190E+04  0.15845537892E+04  0.00000000000E+00 0. -1.
<mgrwt>
<rscale>  0 0.23478825E+04</rscale>
<asrwt>0</asrwt>
<pdfrwt beam="1">  1        2 0.59477241E+00 0.23478825E+04</pdfrwt>
<pdfrwt beam="2">  1       -2 0.54842243E-01 0.23478825E+04</pdfrwt>
<totfact> 0.12395324E+00</totfact>
</mgrwt>
</event>
<event>
 6    1  0.1568961E-005  0.1239977E+04  0.7818608E-02  0.9078567E-01
         -2   -1    0    0    0  501 -0.00000000000E+00  0.00000000000E+00  0.66191967236E+03  0.66191967236E+03  0.00000000000E+00 0.  1.
          2   -1    0    0  501    0  0.00000000000E+00 -0.00000000000E+00 -0.58071396674E+03  0.58071396674E+03  0.00000000000E+00 0. -1.
         23    2    1    2    0    0  0.28937301104E+03  0.35880601790E+03  0.45226909245E+03  0.65088492974E+03  0.81396325299E+02 0.  0.
         11    1    3    3    0    0  0.11186641025E+03  0.11339067042E+03  0.10853498654E+03  0.19274693560E+03  0.00000000000E+00 0.  1.
        -11    1    3    3    0    0  0.17750660079E+03  0.24541534748E+03  0.34373410591E+03  0.45813799414E+03  0.00000000000E+00 0. -1.
         22    1    1    2    0    0 -0.28937301104E+03 -0.35880601790E+03 -0.37106338683E+03  0.59174870937E+03  0.00000000000E+00 0. -1.
<mgrwt>
<rscale>  0 0.12399774E+04</rscale>
<asrwt>0</asrwt>
<pdfrwt beam="1">  1        2 0.89340610E-01 0.12399774E+04</pdfrwt>
<pdfrwt beam="2">  1       -2 0.10183380E+00 0.12399774E+04</pdfrwt>
<totfact> 0.40171473E+01</totfact>
</mgrwt>
</event>
<event>
 6    1  0.1568961E-005  0.1931515E+04  0.7818608E-02  0.8639327E-01
          1   -1    0    0  501    0  0.00000000000E+00  0.00000000000E+00  0.56883183947E+03  0.56883183947E+03  0.00000000000E+00 0. -1.
         -1   -1    0    0    0  501 -0.00000000000E+00 -0.00000000000E+00 -0.16396534531E+04  0.16396534531E+04  0.00000000000E+00 0.  1.
         23    2    1    2    0    0  0.26314586021E+02 -0.64109476168E+03 -0.13585988144E+04  0.15052707676E+04  0.91402375266E+02 0.  0.
         13    1    3    3    0    0  0.18436247619E+02 -0.53034196667E+03 -0.10342516829E+04  0.11624452849E+04  0.00000000000E+00 0.  1.
        -13    1    3    3    0    0  0.78783384020E+01 -0.11075279502E+03 -0.32434713154E+03  0.34282548266E+03  0.00000000000E+00 0. -1.
         22    1    1    2    0    0 -0.26314586021E+02  0.64109476168E+03  0.28777720080E+03  0.70321452502E+03  0.00000000000E+00 0. -1.
<mgrwt>
<rscale>  0 0.19315145E+04</rscale>
<asrwt>0</asrwt>
<pdfrwt beam="1">  1        1 0.87512591E-01 0.19315145E+04</pdfrwt>
<pdfrwt beam="2">  1       -1 0.25225438E+00 0.19315145E+04</pdfrwt>
<totfact> 0.23255514E+00</totfact>
</mgrwt>
</event>
<event>
 6    1  0.1568961E-005  0.2363699E+04  0.7818608E-02  0.8453221E-01
         -2   -1    0    0    0  501 -0.00000000000E+00  0.00000000000E+00  0.16547931122E+04  0.16547931122E+04  0.00000000000E+00 0.  1.
          2   -1    0    0  501    0  0.00000000000E+00 -0.00000000000E+00 -0.84407400140E+03  0.84407400140E+03  0.00000000000E+00 0. -1.
         23    2    1    2    0    0 -0.33490069697E+03 -0.84226126984E+03 -0.39290260864E+03  0.99212633728E+03  0.91540623489E+02 0.  0.
         11    1    3    3    0    0  0.44124177309E+01 -0.31920555034E+02 -0.95053059726E+01  0.33596757367E+02  0.00000000000E+00 0. -1.
        -11    1    3    3    0    0 -0.33931311470E+03 -0.81034071481E+03 -0.38339730266E+03  0.95852957992E+03  0.00000000000E+00 0.  1.
         22    1    1    2    0    0  0.33490069697E+03  0.84226126984E+03  0.12036217195E+04  0.15067407763E+04  0.00000000000E+00 0.  1.
<mgrwt>
<rscale>  0 0.23636987E+04</rscale>
<asrwt>0</asrwt>
<pdfrwt beam="1">  1        2 0.12985754E+00 0.23636987E+04</pdfrwt>
<pdfrwt beam="2">  1       -2 0.25458355E+00 0.23636987E+04</pdfrwt>
<totfact> 0.17402852E+00</totfact>
</mgrwt>
</event>
<event>
 6    1  0.1568961E-005  0.2213207E+04  0.7818608E-02  0.8512951E-01
          1   -1    0    0  501    0  0.00000000000E+00  0.00000000000E+00  0.52190339885E+03  0.52190339885E+03  0.00000000000E+00 0. -1.
         -1   -1    0    0    0  501 -0.00000000000E+00 -0.00000000000E+00 -0.23463570103E+04  0.23463570103E+04  0.00000000000E+00 0.  1.
         23    2    1    2    0    0 -0.84452365405E+03 -0.68290075363E+03 -0.65190014129E+03  0.12699940728E+04  0.91309961725E+02 0.  0.
         13    1    3    3    0    0 -0.66202987172E+03 -0.50898569381E+03 -0.46179358677E+03  0.95425536642E+03  0.00000000000E+00 0. -1.
        -13    1    3    3    0    0 -0.18249378233E+03 -0.17391505982E+03 -0.19010655452E+03  0.31573870636E+03  0.00000000000E+00 0.  1.
         22    1    1    2    0    0  0.84452365405E+03  0.68290075363E+03 -0.11725534701E+04  0.15982663363E+04  0.00000000000E+00 0.  1.
<mgrwt>
<rscale>  0 0.22132074E+04</rscale>
<asrwt>0</asrwt>
<pdfrwt beam="1">  1        1 0.80292829E-01 0.22132074E+04</pdfrwt>
<pdfrwt beam="2">  1       -1 0.36097801E+00 0.22132074E+04</pdfrwt>
<totfact> 0.49984467E-01</totfact>
</mgrwt>
</event>
<event>
 6    1  0.1568961E-005  0.2025658E+04  0.7818608E-02  0.8594718E-01
          2   -1    0    0  501    0  0.00000000000E+00  0.00000000000E+00  0.23260889185E+04  0.23260889185E+04  0.00000000000E+00 0. -1.
         -2   -1    0    0    0  501 -0.00000000000E+00 -0.00000000000E+00 -0.44100725213E+03  0.44100725213E+03  0.00000000000E+00 0.  1.
         23    2    1    2    0    0 -0.43764049490E+03  0.90762644076E+03  0.10524117650E+04  0.14599411976E+04  0.92427370440E+02 0.  0.
         11    1    3    3    0    0 -0.20926095383E+03  0.48308378850E+03  0.49012957097E+03  0.71929624623E+03  0.00000000000E+00 0. -1.
        -11    1    3    3    0    0 -0.22837954107E+03  0.42454265226E+03  0.56228219398E+03  0.74064495140E+03  0.00000000000E+00 0.  1.
         22    1    1    2    0    0  0.43764049490E+03 -0.90762644076E+03  0.83266990144E+03  0.13071549730E+04  0.00000000000E+00 0. -1.
<mgrwt>
<rscale>  0 0.20256575E+04</rscale>
<asrwt>0</asrwt>
<pdfrwt beam="1">  1        2 0.35785983E+00 0.20256575E+04</pdfrwt>
<pdfrwt beam="2">  1       -2 0.67847271E-01 0.20256575E+04</pdfrwt>
<totfact> 0.80843878E+00</totfact>
</mgrwt>
</event>
<event>
 6    1  0.1568961E-005  0.2399342E+04  0.7818608E-02  0.8439750E-01
          2   -1    0    0  501    0  0.00000000000E+00  0.00000000000E+00  0.11649694332E+04  0.11649694332E+04  0.00000000000E+00 0. -1.
         -2   -1    0    0    0  501 -0.00000000000E+00 -0.00000000000E+00 -0.12354057529E+04  0.12354057529E+04  0.00000000000E+00 0.  1.
         23    2    1    2    0    0 -0.32881342869E+03 -0.66521638097E+03  0.90561652306E+03  0.11742796531E+04  0.90334447606E+02 0.  0.
         11    1    3    3    0    0 -0.21976833131E+03 -0.36622141319E+03  0.47439800043E+03  0.63833353800E+03  0.00000000000E+00 0. -1.
        -11    1    3    3    0    0 -0.10904509739E+03 -0.29899496778E+03  0.43121852263E+03  0.53594611509E+03  0.00000000000E+00 0.  1.
         22    1    1    2    0    0  0.32881342869E+03  0.66521638097E+03 -0.97605284276E+03  0.12260955331E+04  0.00000000000E+00 0.  1.
<mgrwt>
<rscale>  0 0.23993415E+04</rscale>
<asrwt>0</asrwt>
<pdfrwt beam="1">  1        2 0.17922607E+00 0.23993415E+04</pdfrwt>
<pdfrwt beam="2">  1       -2 0.19006242E+00 0.23993415E+04</pdfrwt>
<totfact> 0.27686144E+00</totfact>
</mgrwt>
</event>
<event>
 6    1  0.1568961E-005  0.3218165E+04  0.7818608E-02  0.8184036E-01
          1   -1    0    0  501    0  0.00000000000E+00  0.00000000000E+00  0.12397539269E+04  0.12397539269E+04  0.00000000000E+00 0. -1.
         -1   -1    0    0    0  501 -0.00000000000E+00 -0.00000000000E+00 -0.20884359885E+04  0.20884359885E+04  0.00000000000E+00 0.  1.
         23    2    1    2    0    0  0.21723169958E+03  0.62878497337E+03 -0.19384076032E+04  0.20514511363E+04  0.92019422200E+02 0.  0.
         13    1    3    3    0    0  0.12801699605E+03  0.35682444726E+03 -0.12405009428E+04  0.12971332339E+04  0.00000000000E+00 0. -1.
        -13    1    3    3    0    0  0.89214703534E+02  0.27196052611E+03 -0.69790666046E+03  0.75431790235E+03  0.00000000000E+00 0.  1.
         22    1    1    2    0    0 -0.21723169958E+03 -0.62878497337E+03  0.10897255416E+04  0.12767387791E+04  0.00000000000E+00 0. -1.
<mgrwt>
<rscale>  0 0.32181651E+04</rscale>
<asrwt>0</asrwt>
<pdfrwt beam="1">  1        1 0.19073137E+00 0.32181651E+04</pdfrwt>
<pdfrwt beam="2">  1       -1 0.32129784E+00 0.32181651E+04</pdfrwt>
<totfact> 0.20037991E-01</totfact>
</mgrwt>
</event>
<event>
 6    1  0.1568961E-005  0.1555061E+04  0.7818608E-02  0.8848642E-01
         -2   -1    0    0    0  501 -0.00000000000E+00  0.00000000000E+00  0.64868112993E+03  0.64868112993E+03  0.00000000000E+00 0.  1.
          2   -1    0    0  501    0  0.00000000000E+00 -0.00000000000E+00 -0.93197353725E+03  0.93197353725E+03  0.00000000000E+00 0. -1.
         23    2    1    2    0    0  0.46335395288E+03 -0.45569486898E+03  0.28675207564E+03  0.71618638448E+03  0.91331731411E+02 0.  0.
         13    1    3    3    0    0  0.24771788861E+03 -0.18004162255E+03  0.12882794899E+03  0.33222850364E+03  0.00000000000E+00 0. -1.
        -13    1    3    3    0    0  0.21563606427E+03 -0.27565324643E+03  0.15792412665E+03  0.38395788084E+03  0.00000000000E+00 0.  1.
         22    1    1    2    0    0 -0.46335395288E+03  0.45569486898E+03 -0.57004448296E+03  0.86446828271E+03  0.00000000000E+00 0. -1.
<mgrwt>
<rscale>  0 0.15550610E+04</rscale>
<asrwt>0</asrwt>
<pdfrwt beam="1">  1        2 0.14338054E+00 0.15550610E+04</pdfrwt>
<pdfrwt beam="2">  1       -2 0.99797097E-01 0.15550610E+04</pdfrwt>
<totfact> 0.22291902E+01</totfact>
</mgrwt>
</event>
<event>
 6    1  0.1568961E-005  0.9957211E+03  0.7818608E-02  0.9313250E-01
         -1   -1    0    0    0  501 -0.00000000000E+00  0.00000000000E+00  0.16549523832E+03  0.16549523832E+03  0.00000000000E+00 0.  1.
          1   -1    0    0  501    0  0.00000000000E+00 -0.00000000000E+00 -0.14977175785E+04  0.14977175785E+04  0.00000000000E+00 0. -1.
         23    2    1    2    0    0  0.32062265041E+03 -0.86027350602E+02 -0.66295790456E+02  0.35448457218E+03  0.10518835996E+03 0.  0.
         13    1    3    3    0    0  0.16409495984E+03 -0.41686238834E+02 -0.87228245865E+02  0.19045646544E+03  0.00000000000E+00 0. -1.
        -13    1    3    3    0    0  0.15652769058E+03 -0.44341111769E+02  0.20932455409E+02  0.16402810674E+03  0.00000000000E+00 0.  1.
         22    1    1    2    0    0 -0.32062265041E+03  0.86027350602E+02 -0.12659265498E+04  0.13087282447E+04  0.00000000000E+00 0. -1.
<mgrwt>
<rscale>  0 0.99572110E+03</rscale>
<asrwt>0</asrwt>
<pdfrwt beam="1">  1        1 0.23041809E+00 0.99572110E+03</pdfrwt>
<pdfrwt beam="2">  1       -1 0.25460806E-01 0.99572110E+03</pdfrwt>
<totfact> 0.89376312E+01</totfact>
</mgrwt>
</event>
<event>
 6    1  0.1568961E-005  0.5230376E+04  0.7818608E-02  0.7793920E-01
          2   -1    0    0  501    0  0.00000000000E+00  0.00000000000E+00  0.15756903407E+04  0.15756903407E+04  0.00000000000E+00 0.  1.
         -2   -1    0    0    0  501 -0.00000000000E+00 -0.00000000000E+00 -0.43404524974E+04  0.43404524974E+04  0.00000000000E+00 0. -1.
         23    2    1    2    0    0 -0.16275446215E+04  0.18065088336E+04 -0.24692804525E+04  0.34667173752E+04  0.91693760228E+02 0.  0.
         11    1    3    3    0    0 -0.59423892681E+03  0.70061940991E+03 -0.98275822626E+03  0.13452885159E+04  0.00000000000E+00 0. -1.
        -11    1    3    3    0    0 -0.10333056947E+04  0.11058894237E+04 -0.14865222262E+04  0.21214288593E+04  0.00000000000E+00 0.  1.
         22    1    1    2    0    0  0.16275446215E+04 -0.18065088336E+04 -0.29548170423E+03  0.24494254629E+04  0.00000000000E+00 0.  1.
<mgrwt>
<rscale>  0 0.52303763E+04</rscale>
<asrwt>0</asrwt>
<pdfrwt beam="1">  1        2 0.24241390E+00 0.52303763E+04</pdfrwt>
<pdfrwt beam="2">  1       -2 0.66776192E+00 0.52303763E+04</pdfrwt>
<totfact> 0.24421183E-03</totfact>
</mgrwt>
</event>
<event>
 6    1  0.1568961E-005  0.4025985E+04  0.7818608E-02  0.7999325E-01
          2   -1    0    0  501    0  0.00000000000E+00  0.00000000000E+00  0.18871108118E+04  0.18871108118E+04  0.00000000000E+00 0. -1.
         -2   -1    0    0    0  501 -0.00000000000E+00 -0.00000000000E+00 -0.21472709086E+04  0.21472709086E+04  0.00000000000E+00 0.  1.
         23    2    1    2    0    0  0.33493548725E+03  0.80235170705E+03 -0.19482209590E+04  0.21355664274E+04  0.95545895326E+02 0.  0.
         13    1    3    3    0    0  0.10223211022E+03  0.15017106831E+03 -0.37437801521E+03  0.41612696667E+03  0.00000000000E+00 0.  1.
        -13    1    3    3    0    0  0.23270337703E+03  0.65218063874E+03 -0.15738429438E+04  0.17194394607E+04  0.00000000000E+00 0. -1.
         22    1    1    2    0    0 -0.33493548725E+03 -0.80235170705E+03  0.16880608623E+04  0.18988152931E+04  0.00000000000E+00 0. -1.
<mgrwt>
<rscale>  0 0.40259847E+04</rscale>
<asrwt>0</asrwt>
<pdfrwt beam="1">  1        2 0.29032474E+00 0.40259847E+04</pdfrwt>
<pdfrwt beam="2">  1       -2 0.33034937E+00 0.40259847E+04</pdfrwt>
<totfact> 0.12550843E-01</totfact>
</mgrwt>
</event>
<event>
 6    1  0.1568961E-005  0.9779794E+03  0.7818608E-02  0.9333032E-01
          1   -1    0    0  501    0  0.00000000000E+00  0.00000000000E+00  0.18154461787E+04  0.18154461787E+04  0.00000000000E+00 0. -1.
         -1   -1    0    0    0  501 -0.00000000000E+00 -0.00000000000E+00 -0.13170918841E+03  0.13170918841E+03  0.00000000000E+00 0.  1.
         23    2    1    2    0    0  0.24306705401E+03  0.10130702027E+03  0.16595557632E+04  0.16827136214E+04  0.89750184139E+02 0.  0.
         13    1    3    3    0    0  0.89850195920E+02  0.11515485796E+02  0.79232902954E+03  0.79749041071E+03  0.00000000000E+00 0. -1.
        -13    1    3    3    0    0  0.15321685809E+03  0.89791534475E+02  0.86722673362E+03  0.88522321071E+03  0.00000000000E+00 0.  1.
         22    1    1    2    0    0 -0.24306705401E+03 -0.10130702027E+03  0.24181227104E+02  0.26444174566E+03  0.00000000000E+00 0.  1.
<mgrwt>
<rscale>  0 0.97797943E+03</rscale>
<asrwt>0</asrwt>
<pdfrwt beam="1">  1        1 0.27929939E+00 0.97797943E+03</pdfrwt>
<pdfrwt beam="2">  1       -1 0.20262953E-01 0.97797943E+03</pdfrwt>
<totfact> 0.80127079E+01</totfact>
</mgrwt>
</event>
<event>
 6    1  0.1568961E-005  0.2266284E+04  0.7818608E-02  0.8491335E-01
          2   -1    0    0  501    0  0.00000000000E+00  0.00000000000E+00  0.17131150766E+04  0.17131150766E+04  0.00000000000E+00 0. -1.
         -2   -1    0    0    0  501 -0.00000000000E+00 -0.00000000000E+00 -0.74951782844E+03  0.74951782844E+03  0.00000000000E+00 0.  1.
         23    2    1    2    0    0  0.27672639417E+03 -0.10637677521E+04  0.77308090767E+03  0.13470721476E+04  0.93648029567E+02 0.  0.
         13    1    3    3    0    0  0.20527557180E+03 -0.70554309752E+03  0.46830800041E+03  0.87134465402E+03  0.00000000000E+00 0. -1.
        -13    1    3    3    0    0  0.71450822370E+02 -0.35822465457E+03  0.30477290726E+03  0.47572749359E+03  0.00000000000E+00 0.  1.
         22    1    1    2    0    0 -0.27672639417E+03  0.10637677521E+04  0.19051634053E+03  0.11155607575E+04  0.00000000000E+00 0. -1.
<mgrwt>
<rscale>  0 0.22662836E+04</rscale>
<asrwt>0</asrwt>
<pdfrwt beam="1">  1        2 0.26355616E+00 0.22662836E+04</pdfrwt>
<pdfrwt beam="2">  1       -2 0.11531044E+00 0.22662836E+04</pdfrwt>
<totfact> 0.51359528E+00</totfact>
</mgrwt>
</event>
<event>
 6    1  0.1568961E-005  0.3310848E+04  0.7818608E-02  0.8160141E-01
         -1   -1    0    0    0  501 -0.00000000000E+00  0.00000000000E+00  0.10525974968E+04  0.10525974968E+04  0.00000000000E+00 0.  1.
          1   -1    0    0  501    0  0.00000000000E+00 -0.00000000000E+00 -0.26034913147E+04  0.26034913147E+04  0.00000000000E+00 0. -1.
         23    2    1    2    0    0  0.56409347520E+03 -0.10529382796E+04 -0.20396599776E+04  0.23654405913E+04  0.90641587719E+02 0.  0.
         11    1    3    3    0    0  0.39611801444E+03 -0.64733165530E+03 -0.12841203692E+04  0.14916141846E+04  0.00000000000E+00 0.  1.
        -11    1    3    3    0    0  0.16797546076E+03 -0.40560662430E+03 -0.75553960840E+03  0.87382640665E+03  0.00000000000E+00 0. -1.
         22    1    1    2    0    0 -0.56409347520E+03  0.10529382796E+04  0.48876615963E+03  0.12906482202E+04  0.00000000000E+00 0.  1.
<mgrwt>
<rscale>  0 0.33108479E+04</rscale>
<asrwt>0</asrwt>
<pdfrwt beam="1">  1        1 0.40053712E+00 0.33108479E+04</pdfrwt>
<pdfrwt beam="2">  1       -1 0.16193808E+00 0.33108479E+04</pdfrwt>
<totfact> 0.26860305E-01</totfact>
</mgrwt>
</event>
<event>
 6    1  0.1568961E-005  0.2522148E+04  0.7818608E-02  0.8395138E-01
          1   -1    0    0  501    0  0.00000000000E+00  0.00000000000E+00  0.12964249508E+04  0.12964249508E+04  0.00000000000E+00 0. -1.
         -1   -1    0    0    0  501 -0.00000000000E+00 -0.00000000000E+00 -0.12266866674E+04  0.12266866674E+04  0.00000000000E+00 0.  1.
         23    2    1    2    0    0 -0.37805373553E+03 -0.10621009028E+04  0.59645281722E+03  0.12787599176E+04  0.92130391762E+02 0.  0.
         13    1    3    3    0    0 -0.33355270068E+03 -0.90988423111E+03  0.54608733701E+03  0.11123659909E+04  0.00000000000E+00 0. -1.
        -13    1    3    3    0    0 -0.44501034842E+02 -0.15221667166E+03  0.50365480205E+02  0.16639392666E+03  0.00000000000E+00 0.  1.
         22    1    1    2    0    0  0.37805373553E+03  0.10621009028E+04 -0.52671453384E+03  0.12443517006E+04  0.00000000000E+00 0.  1.
<mgrwt>
<rscale>  0 0.25221477E+04</rscale>
<asrwt>0</asrwt>
<pdfrwt beam="1">  1        1 0.19944999E+00 0.25221477E+04</pdfrwt>
<pdfrwt beam="2">  1       -1 0.18872103E+00 0.25221477E+04</pdfrwt>
<totfact> 0.14555611E+00</totfact>
</mgrwt>
</event>
<event>
 6    1  0.1568961E-005  0.2846107E+04  0.7818608E-02  0.8289095E-01
          1   -1    0    0  501    0  0.00000000000E+00  0.00000000000E+00  0.17810312696E+04  0.17810312696E+04  0.00000000000E+00 0. -1.
         -1   -1    0    0    0  501 -0.00000000000E+00 -0.00000000000E+00 -0.11370277150E+04  0.11370277150E+04  0.00000000000E+00 0.  1.
         23    2    1    2    0    0  0.13586836939E+04 -0.24939194783E+03 -0.21821888778E+02  0.13845853968E+04  0.91557646471E+02 0.  0.
         13    1    3    3    0    0  0.94533961404E+03 -0.14890393162E+03  0.19550602750E+02  0.95719464728E+03  0.00000000000E+00 0.  1.
        -13    1    3    3    0    0  0.41334407982E+03 -0.10048801620E+03 -0.41372491529E+02  0.42739074952E+03  0.00000000000E+00 0. -1.
         22    1    1    2    0    0 -0.13586836939E+04  0.24939194783E+03  0.66582544335E+03  0.15334735878E+04  0.00000000000E+00 0.  1.
<mgrwt>
<rscale>  0 0.28461075E+04</rscale>
<asrwt>0</asrwt>
<pdfrwt beam="1">  1        1 0.27400481E+00 0.28461075E+04</pdfrwt>
<pdfrwt beam="2">  1       -1 0.17492734E+00 0.28461075E+04</pdfrwt>
<totfact> 0.81960756E-01</totfact>
</mgrwt>
</event>
<event>
 6    1  0.1568961E-005  0.8329100E+03  0.7818608E-02  0.9513566E-01
         -1   -1    0    0    0  501 -0.00000000000E+00  0.00000000000E+00  0.10139365398E+03  0.10139365398E+03  0.00000000000E+00 0.  1.
          1   -1    0    0  501    0  0.00000000000E+00 -0.00000000000E+00 -0.17105090093E+04  0.17105090093E+04  0.00000000000E+00 0. -1.
         23    2    1    2    0    0  0.74125694966E+02 -0.23730632578E+03 -0.15272895631E+04  0.15501692661E+04  0.92749302366E+02 0.  0.
         11    1    3    3    0    0 -0.11238594735E+02 -0.11620250589E+03 -0.71769818378E+03  0.72713135772E+03  0.00000000000E+00 0. -1.
        -11    1    3    3    0    0  0.85364289701E+02 -0.12110381990E+03 -0.80959137936E+03  0.82303790841E+03  0.00000000000E+00 0.  1.
         22    1    1    2    0    0 -0.74125694966E+02  0.23730632578E+03 -0.81825792165E+02  0.26173339713E+03  0.00000000000E+00 0.  1.
<mgrwt>
<rscale>  0 0.83290998E+03</rscale>
<asrwt>0</asrwt>
<pdfrwt beam="1">  1        1 0.26315524E+00 0.83290998E+03</pdfrwt>
<pdfrwt beam="2">  1       -1 0.15599024E-01 0.83290998E+03</pdfrwt>
<totfact> 0.14704821E+02</totfact>
</mgrwt>
</event>
<event>
 6    1  0.1568961E-005  0.1926225E+04  0.7818608E-02  0.8641912E-01
         -2   -1    0    0    0  501 -0.00000000000E+00  0.00000000000E+00  0.89497126773E+03  0.89497126773E+03  0.00000000000E+00 0. -1.
          2   -1    0    0  501    0  0.00000000000E+00 -0.00000000000E+00 -0.10364418371E+04  0.10364418371E+04  0.00000000000E+00 0.  1.
         23    2    1    2    0    0  0.90984183445E+03 -0.19335777012E+02 -0.37991643498E+03  0.99064614807E+03  0.94113001945E+02 0.  0.
         13    1    3    3    0    0  0.52193206048E+03 -0.25489527420E+02 -0.26569662033E+03  0.58622306831E+03  0.00000000000E+00 0. -1.
        -13    1    3    3    0    0  0.38790977397E+03  0.61537504084E+01 -0.11421981465E+03  0.40442307976E+03  0.00000000000E+00 0.  1.
         22    1    1    2    0    0 -0.90984183445E+03  0.19335777012E+02  0.23844586565E+03  0.94076695671E+03  0.00000000000E+00 0. -1.
<mgrwt>
<rscale>  0 0.19262250E+04</rscale>
<asrwt>0</asrwt>
<pdfrwt beam="1">  1        2 0.15945259E+00 0.19262250E+04</pdfrwt>
<pdfrwt beam="2">  1       -2 0.13768789E+00 0.19262250E+04</pdfrwt>
<totfact> 0.83678185E+00</totfact>
</mgrwt>
</event>
<event>
 6    1  0.1568961E-005  0.1359201E+04  0.7818608E-02  0.8983892E-01
         -2   -1    0    0    0  501 -0.00000000000E+00  0.00000000000E+00  0.22315091103E+04  0.22315091103E+04  0.00000000000E+00 0.  1.
          2   -1    0    0  501    0  0.00000000000E+00 -0.00000000000E+00 -0.20697052258E+03  0.20697052258E+03  0.00000000000E+00 0. -1.
         23    2    1    2    0    0 -0.18035396573E+03  0.54897502752E+03  0.16480661191E+04  0.17488183730E+04  0.91338026112E+02 0.  0.
         11    1    3    3    0    0 -0.10532031163E+03  0.30158228067E+03  0.10434278576E+04  0.10912313843E+04  0.00000000000E+00 0. -1.
        -11    1    3    3    0    0 -0.75033654099E+02  0.24739274685E+03  0.60463826150E+03  0.65758698870E+03  0.00000000000E+00 0.  1.
         22    1    1    2    0    0  0.18035396573E+03 -0.54897502752E+03  0.37647246869E+03  0.68966125995E+03  0.00000000000E+00 0. -1.
<mgrwt>
<rscale>  0 0.13592007E+04</rscale>
<asrwt>0</asrwt>
<pdfrwt beam="1">  1        2 0.31841620E-01 0.13592007E+04</pdfrwt>
<pdfrwt beam="2">  1       -2 0.34330908E+00 0.13592007E+04</pdfrwt>
<totfact> 0.28115491E+00</totfact>
</mgrwt>
</event>
<event>
 6    1  0.1568961E-005  0.4949042E+04  0.7818608E-02  0.7836416E-01
          2   -1    0    0  501    0  0.00000000000E+00  0.00000000000E+00  0.41629672724E+04  0.41629672724E+04  0.00000000000E+00 0. -1.
         -2   -1    0    0    0  501 -0.00000000000E+00 -0.00000000000E+00 -0.14708867524E+04  0.14708867524E+04  0.00000000000E+00 0.  1.
         23    2    1    2    0    0 -0.91274662131E+03 -0.22942071458E+04  0.15163485220E+04  0.28991075002E+04  0.94966492533E+02 0.  0.
         13    1    3    3    0    0 -0.40013374207E+03 -0.10833516098E+04  0.66485447549E+03  0.13325874063E+04  0.00000000000E+00 0.  1.
        -13    1    3    3    0    0 -0.51261287924E+03 -0.12108555361E+04  0.85149404655E+03  0.15665200939E+04  0.00000000000E+00 0. -1.
         22    1    1    2    0    0  0.91274662131E+03  0.22942071458E+04  0.11757319980E+04  0.27347465246E+04  0.00000000000E+00 0.  1.
<mgrwt>
<rscale>  0 0.49490417E+04</rscale>
<asrwt>0</asrwt>
<pdfrwt beam="1">  1        2 0.64045650E+00 0.49490417E+04</pdfrwt>
<pdfrwt beam="2">  1       -2 0.22629027E+00 0.49490417E+04</pdfrwt>
<totfact> 0.16404832E-02</totfact>
</mgrwt>
</event>
<event>
 6    1  0.1568961E-005  0.1533379E+04  0.7818608E-02  0.8862554E-01
         -1   -1    0    0    0  501 -0.00000000000E+00  0.00000000000E+00  0.42457048586E+03  0.42457048586E+03  0.00000000000E+00 0.  1.
          1   -1    0    0  501    0  0.00000000000E+00 -0.00000000000E+00 -0.13844890038E+04  0.13844890038E+04  0.00000000000E+00 0. -1.
         23    2    1    2    0    0  0.33575990128E+03  0.19461434805E+03  0.29432632879E+03  0.49614685307E+03  0.94468281524E+02 0.  0.
         11    1    3    3    0    0  0.20489055423E+03  0.15679015577E+03  0.22941850153E+03  0.34524794134E+03  0.00000000000E+00 0. -1.
        -11    1    3    3    0    0  0.13086934705E+03  0.37824192280E+02  0.64907827263E+02  0.15089891173E+03  0.00000000000E+00 0.  1.
         22    1    1    2    0    0 -0.33575990128E+03 -0.19461434805E+03 -0.12542448467E+04  0.13129126366E+04  0.00000000000E+00 0. -1.
<mgrwt>
<rscale>  0 0.15333795E+04</rscale>
<asrwt>0</asrwt>
<pdfrwt beam="1">  1        1 0.21299831E+00 0.15333795E+04</pdfrwt>
<pdfrwt beam="2">  1       -1 0.65318536E-01 0.15333795E+04</pdfrwt>
<totfact> 0.18059252E+01</totfact>
</mgrwt>
</event>
<event>
 6    1  0.1568961E-005  0.2373075E+04  0.7818608E-02  0.8449653E-01
         -1   -1    0    0    0  501 -0.00000000000E+00  0.00000000000E+00  0.11039573273E+04  0.11039573273E+04  0.00000000000E+00 0.  1.
          1   -1    0    0  501    0  0.00000000000E+00 -0.00000000000E+00 -0.12752954030E+04  0.12752954030E+04  0.00000000000E+00 0. -1.
         23    2    1    2    0    0  0.92790261310E+01 -0.48226858497E+03 -0.11708030554E+04  0.12694782784E+04  0.90145529850E+02 0.  0.
         11    1    3    3    0    0  0.49488313144E+02 -0.23240184189E+03 -0.56197117746E+03  0.61014040478E+03  0.00000000000E+00 0. -1.
        -11    1    3    3    0    0 -0.40209287013E+02 -0.24986674308E+03 -0.60883187790E+03  0.65933787363E+03  0.00000000000E+00 0.  1.
         22    1    1    2    0    0 -0.92790261310E+01  0.48226858497E+03  0.99946497965E+03  0.11097744518E+04  0.00000000000E+00 0.  1.
<mgrwt>
<rscale>  0 0.23730754E+04</rscale>
<asrwt>0</asrwt>
<pdfrwt beam="1">  1        1 0.19619929E+00 0.23730754E+04</pdfrwt>
<pdfrwt beam="2">  1       -1 0.16983959E+00 0.23730754E+04</pdfrwt>
<totfact> 0.20883251E+00</totfact>
</mgrwt>
</event>
<event>
 6    1  0.1568961E-005  0.8995446E+03  0.7818608E-02  0.9426151E-01
         -3   -1    0    0    0  501 -0.00000000000E+00  0.00000000000E+00  0.63590794083E+03  0.63590794083E+03  0.00000000000E+00 0.  1.
          3   -1    0    0  501    0  0.00000000000E+00 -0.00000000000E+00 -0.31812013081E+03  0.31812013081E+03  0.00000000000E+00 0. -1.
         23    2    1    2    0    0 -0.71474838364E+02  0.40558902906E+03 -0.19094275721E+02  0.42195603450E+03  0.89839805579E+02 0.  0.
         11    1    3    3    0    0 -0.30992781356E+02  0.26706943266E+03  0.27603272770E+02  0.27027499889E+03  0.00000000000E+00 0. -1.
        -11    1    3    3    0    0 -0.40482057008E+02  0.13851959640E+03 -0.46697548491E+02  0.15168103561E+03  0.00000000000E+00 0.  1.
         22    1    1    2    0    0  0.71474838364E+02 -0.40558902906E+03  0.33688208574E+03  0.53207203715E+03  0.00000000000E+00 0.  1.
<mgrwt>
<rscale>  0 0.89954459E+03</rscale>
<asrwt>0</asrwt>
<pdfrwt beam="1">  1        3 0.48941559E-01 0.89954459E+03</pdfrwt>
<pdfrwt beam="2">  1       -3 0.97831991E-01 0.89954459E+03</pdfrwt>
<totfact> 0.10013994E+01</totfact>
</mgrwt>
</event>
<event>
 6    1  0.1568961E-005  0.3843466E+04  0.7818608E-02  0.8036891E-01
          1   -1    0    0  501    0  0.00000000000E+00  0.00000000000E+00  0.25201005386E+04  0.25201005386E+04  0.00000000000E+00 0. -1.
         -1   -1    0    0    0  501 -0.00000000000E+00 -0.00000000000E+00 -0.14654405508E+04  0.14654405508E+04  0.00000000000E+00 0.  1.
         23    2    1    2    0    0  0.92297721079E+03  0.64148137014E+03 -0.10873553189E+04  0.15665299580E+04  0.91045262043E+02 0.  0.
         11    1    3    3    0    0  0.27367658186E+03  0.22568276098E+03 -0.30071516190E+03  0.46503891091E+03  0.00000000000E+00 0.  1.
        -11    1    3    3    0    0  0.64930062892E+03  0.41579860916E+03 -0.78664015702E+03  0.11014910471E+04  0.00000000000E+00 0. -1.
         22    1    1    2    0    0 -0.92297721079E+03 -0.64148137014E+03  0.21420153067E+04  0.24190111315E+04  0.00000000000E+00 0. -1.
<mgrwt>
<rscale>  0 0.38434659E+04</rscale>
<asrwt>0</asrwt>
<pdfrwt beam="1">  1        1 0.38770777E+00 0.38434659E+04</pdfrwt>
<pdfrwt beam="2">  1       -1 0.22545239E+00 0.38434659E+04</pdfrwt>
<totfact> 0.10524305E-01</totfact>
</mgrwt>
</event>
<event>
 6    1  0.1568961E-005  0.1452667E+04  0.7818608E-02  0.8916553E-01
         -2   -1    0    0    0  501 -0.00000000000E+00  0.00000000000E+00  0.35840747307E+03  0.35840747307E+03  0.00000000000E+00 0.  1.
          2   -1    0    0  501    0  0.00000000000E+00 -0.00000000000E+00 -0.14719572341E+04  0.14719572341E+04  0.00000000000E+00 0. -1.
         23    2    1    2    0    0  0.39806710233E+03  0.10929734576E+03 -0.13075123654E+04  0.13742673276E+04  0.92837354545E+02 0.  0.
         11    1    3    3    0    0  0.10841868630E+03 -0.88068177783E+01 -0.28846193902E+03  0.30828957466E+03  0.00000000000E+00 0.  1.
        -11    1    3    3    0    0  0.28964841603E+03  0.11810416354E+03 -0.10190504263E+04  0.10659777529E+04  0.00000000000E+00 0. -1.
         22    1    1    2    0    0 -0.39806710233E+03 -0.10929734576E+03  0.19396260435E+03  0.45609737955E+03  0.00000000000E+00 0.  1.
<mgrwt>
<rscale>  0 0.14526672E+04</rscale>
<asrwt>0</asrwt>
<pdfrwt beam="1">  1        2 0.22645496E+00 0.14526672E+04</pdfrwt>
<pdfrwt beam="2">  1       -2 0.55139611E-01 0.14526672E+04</pdfrwt>
<totfact> 0.39473827E+01</totfact>
</mgrwt>
</event>
<event>
 6    1  0.1568961E-005  0.3198543E+04  0.7818608E-02  0.8189202E-01
         -2   -1    0    0    0  501 -0.00000000000E+00  0.00000000000E+00  0.66451354123E+03  0.66451354123E+03  0.00000000000E+00 0.  1.
          2   -1    0    0  501    0  0.00000000000E+00 -0.00000000000E+00 -0.38489343885E+04  0.38489343885E+04  0.00000000000E+00 0. -1.
         23    2    1    2    0    0  0.13378531794E+03  0.66894345568E+03  0.44569840411E+03  0.81978448574E+03  0.89530315772E+02 0.  0.
         11    1    3    3    0    0  0.21233436982E+02  0.12121198245E+03  0.41685556647E+02  0.12992647601E+03  0.00000000000E+00 0. -1.
        -11    1    3    3    0    0  0.11255188096E+03  0.54773147323E+03  0.40401284747E+03  0.68985800973E+03  0.00000000000E+00 0.  1.
         22    1    1    2    0    0 -0.13378531794E+03 -0.66894345568E+03 -0.36301192514E+04  0.36936634440E+04  0.00000000000E+00 0. -1.
<mgrwt>
<rscale>  0 0.31985428E+04</rscale>
<asrwt>0</asrwt>
<pdfrwt beam="1">  1        2 0.59214375E+00 0.31985428E+04</pdfrwt>
<pdfrwt beam="2">  1       -2 0.10223285E+00 0.31985428E+04</pdfrwt>
<totfact> 0.29683816E-01</totfact>
</mgrwt>
</event>
<event>
 6    1  0.1568961E-005  0.1077535E+04  0.7818608E-02  0.9227369E-01
          1   -1    0    0  501    0  0.00000000000E+00  0.00000000000E+00  0.14800928394E+04  0.14800928394E+04  0.00000000000E+00 0. -1.
         -1   -1    0    0    0  501 -0.00000000000E+00 -0.00000000000E+00 -0.19611629431E+03  0.19611629431E+03  0.00000000000E+00 0.  1.
         23    2    1    2    0    0  0.62215895847E+02 -0.75560086068E+02  0.14644783170E+04  0.14708776116E+04  0.95937809006E+02 0.  0.
         13    1    3    3    0    0  0.63542437424E+02 -0.22841636555E+01  0.64245264773E+03  0.64559140587E+03  0.00000000000E+00 0. -1.
        -13    1    3    3    0    0 -0.13265415773E+01 -0.73275922413E+02  0.82202566922E+03  0.82528620574E+03  0.00000000000E+00 0.  1.
         22    1    1    2    0    0 -0.62215895847E+02  0.75560086068E+02 -0.18050177189E+03  0.20533152207E+03  0.00000000000E+00 0.  1.
<mgrwt>
<rscale>  0 0.10775348E+04</rscale>
<asrwt>0</asrwt>
<pdfrwt beam="1">  1        1 0.22770658E+00 0.10775348E+04</pdfrwt>
<pdfrwt beam="2">  1       -1 0.30171739E-01 0.10775348E+04</pdfrwt>
<totfact> 0.68059160E+01</totfact>
</mgrwt>
</event>
<event>
 6    1  0.1568961E-005  0.3224406E+04  0.7818608E-02  0.8182401E-01
          2   -1    0    0  501    0  0.00000000000E+00  0.00000000000E+00  0.17511773356E+04  0.17511773356E+04  0.00000000000E+00 0. -1.
         -2   -1    0    0    0  501 -0.00000000000E+00 -0.00000000000E+00 -0.14842581580E+04  0.14842581580E+04  0.00000000000E+00 0.  1.
         23    2    1    2    0    0  0.32512723601E+02 -0.39545075269E+03 -0.14330421724E+04  0.14897817575E+04  0.91659381280E+02 0.  0.
         11    1    3    3    0    0  0.11088859908E+02 -0.33256727730E+03 -0.10643534697E+04  0.11151557135E+04  0.00000000000E+00 0. -1.
        -11    1    3    3    0    0  0.21423863693E+02 -0.62883475388E+02 -0.36868870262E+03  0.37462604401E+03  0.00000000000E+00 0.  1.
         22    1    1    2    0    0 -0.32512723601E+02  0.39545075269E+03  0.16999613500E+04  0.17456537361E+04  0.00000000000E+00 0. -1.
<mgrwt>
<rscale>  0 0.32244065E+04</rscale>
<asrwt>0</asrwt>
<pdfrwt beam="1">  1        2 0.26941190E+00 0.32244065E+04</pdfrwt>
<pdfrwt beam="2">  1       -2 0.22834741E+00 0.32244065E+04</pdfrwt>
<totfact> 0.67591298E-01</totfact>
</mgrwt>
</event>
<event>
 6    1  0.1568961E-005  0.3879678E+04  0.7818608E-02  0.8029269E-01
         -2   -1    0    0    0  501 -0.00000000000E+00  0.00000000000E+00  0.16236359020E+04  0.16236359020E+04  0.00000000000E+00 0.  1.
          2   -1    0    0  501    0  0.00000000000E+00 -0.00000000000E+00 -0.23176232352E+04  0.23176232352E+04  0.00000000000E+00 0. -1.
         23    2    1    2    0    0 -0.46954280613E+03 -0.66474156456E+03 -0.21347851630E+04  0.22864932380E+04  0.91606989663E+02 0.  0.
         11    1    3    3    0    0 -0.32411388118E+03 -0.45272673667E+03 -0.15741393880E+04  0.16697083934E+04  0.00000000000E+00 0. -1.
        -11    1    3    3    0    0 -0.14542892495E+03 -0.21201482789E+03 -0.56064577499E+03  0.61678484455E+03  0.00000000000E+00 0.  1.
         22    1    1    2    0    0  0.46954280613E+03  0.66474156456E+03  0.14407978298E+04  0.16547658991E+04  0.00000000000E+00 0.  1.
<mgrwt>
<rscale>  0 0.38796785E+04</rscale>
<asrwt>0</asrwt>
<pdfrwt beam="1">  1        2 0.35655742E+00 0.38796785E+04</pdfrwt>
<pdfrwt beam="2">  1       -2 0.24979014E+00 0.38796785E+04</pdfrwt>
<totfact> 0.22747827E-01</totfact>
</mgrwt>
</event>
<event>
 6    1  0.1568961E-005  0.1653564E+04  0.7818608E-02  0.8788301E-01
         -2   -1    0    0    0  501 -0.00000000000E+00  0.00000000000E+00  0.26993409332E+03  0.26993409332E+03  0.00000000000E+00 0. -1.
          2   -1    0    0  501    0  0.00000000000E+00 -0.00000000000E+00 -0.25323525623E+04  0.25323525623E+04  0.00000000000E+00 0.  1.
         23    2    1    2    0    0 -0.25723399996E+03 -0.43645241620E+03 -0.33095526985E+02  0.51612375196E+03  0.92889025684E+02 0.  0.
         13    1    3    3    0    0 -0.14592098017E+03 -0.23147735499E+03 -0.63491784284E+02  0.28090194909E+03  0.00000000000E+00 0.  1.
        -13    1    3    3    0    0 -0.11131301978E+03 -0.20497506120E+03  0.30396257299E+02  0.23522180287E+03  0.00000000000E+00 0. -1.
         22    1    1    2    0    0  0.25723399996E+03  0.43645241620E+03 -0.22293229420E+04  0.22861629037E+04  0.00000000000E+00 0.  1.
<mgrwt>
<rscale>  0 0.16535638E+04</rscale>
<asrwt>0</asrwt>
<pdfrwt beam="1">  1        2 0.38959269E+00 0.16535638E+04</pdfrwt>
<pdfrwt beam="2">  1       -2 0.41528324E-01 0.16535638E+04</pdfrwt>
<totfact> 0.17525222E+01</totfact>
</mgrwt>
</event>
<event>
 6    1  0.1568961E-005  0.9895892E+03  0.7818608E-02  0.9320037E-01
         -1   -1    0    0    0  501 -0.00000000000E+00  0.00000000000E+00  0.23886464856E+03  0.23886464856E+03  0.00000000000E+00 0.  1.
          1   -1    0    0  501    0  0.00000000000E+00 -0.00000000000E+00 -0.10249389883E+04  0.10249389883E+04  0.00000000000E+00 0. -1.
         23    2    1    2    0    0  0.20744937756E+03  0.21373604166E+03 -0.89493815965E+03  0.94667642106E+03  0.81016028214E+02 0.  0.
         13    1    3    3    0    0  0.21247831208E+02  0.65762469636E+02 -0.24614157307E+03  0.25565963063E+03  0.00000000000E+00 0.  1.
        -13    1    3    3    0    0  0.18620154636E+03  0.14797357203E+03 -0.64879658659E+03  0.69101679042E+03  0.00000000000E+00 0. -1.
         22    1    1    2    0    0 -0.20744937756E+03 -0.21373604166E+03  0.10886381987E+03  0.31712721585E+03  0.00000000000E+00 0.  1.
<mgrwt>
<rscale>  0 0.98958919E+03</rscale>
<asrwt>0</asrwt>
<pdfrwt beam="1">  1        1 0.15768292E+00 0.98958919E+03</pdfrwt>
<pdfrwt beam="2">  1       -1 0.36748408E-01 0.98958919E+03</pdfrwt>
<totfact> 0.10305153E+02</totfact>
</mgrwt>
</event>
<event>
 6    1  0.1568961E-005  0.3210998E+04  0.7818608E-02  0.8185919E-01
         -2   -1    0    0    0  501 -0.00000000000E+00  0.00000000000E+00  0.17537078815E+04  0.17537078815E+04  0.00000000000E+00 0.  1.
          2   -1    0    0  501    0  0.00000000000E+00 -0.00000000000E+00 -0.14698157851E+04  0.14698157851E+04  0.00000000000E+00 0. -1.
         23    2    1    2    0    0  0.19662959252E+02  0.93937944966E+03  0.14474141395E+04  0.17279956905E+04  0.90227672015E+02 0.  0.
         11    1    3    3    0    0 -0.16691724606E+02  0.62042533968E+03  0.89650213707E+03  0.10903771355E+04  0.00000000000E+00 0. -1.
        -11    1    3    3    0    0  0.36354683859E+02  0.31895410998E+03  0.55091200244E+03  0.63761855505E+03  0.00000000000E+00 0.  1.
         22    1    1    2    0    0 -0.19662959252E+02 -0.93937944966E+03 -0.11635220431E+04  0.14955279761E+04  0.00000000000E+00 0. -1.
<mgrwt>
<rscale>  0 0.32109983E+04</rscale>
<asrwt>0</asrwt>
<pdfrwt beam="1">  1        2 0.22612551E+00 0.32109983E+04</pdfrwt>
<pdfrwt beam="2">  1       -2 0.26980121E+00 0.32109983E+04</pdfrwt>
<totfact> 0.53986915E-01</totfact>
</mgrwt>
</event>
<event>
 6    1  0.1568961E-005  0.2749370E+03  0.7818608E-02  0.1098487E+00
         -1   -1    0    0    0  501 -0.00000000000E+00  0.00000000000E+00  0.19076816093E+02  0.19076816093E+02  0.00000000000E+00 0.  1.
          1   -1    0    0  501    0  0.00000000000E+00 -0.00000000000E+00 -0.99060506888E+03  0.99060506888E+03  0.00000000000E+00 0. -1.
         23    2    1    2    0    0  0.10623603884E+03  0.30828771613E+02 -0.73552082926E+03  0.74903650698E+03  0.88477620940E+02 0.  0.
         13    1    3    3    0    0  0.46331664929E+02  0.58771966475E+02 -0.42773354031E+03  0.43423121574E+03  0.00000000000E+00 0.  1.
        -13    1    3    3    0    0  0.59904373914E+02 -0.27943194863E+02 -0.30778728895E+03  0.31480529124E+03  0.00000000000E+00 0. -1.
         22    1    1    2    0    0 -0.10623603884E+03 -0.30828771613E+02 -0.23600742353E+03  0.26064537800E+03  0.00000000000E+00 0.  1.
<mgrwt>
<rscale>  0 0.27493702E+03</rscale>
<asrwt>0</asrwt>
<pdfrwt beam="1">  1        1 0.15240081E+00 0.27493702E+03</pdfrwt>
<pdfrwt beam="2">  1       -1 0.29348942E-02 0.27493702E+03</pdfrwt>
<totfact> 0.63288618E+03</totfact>
</mgrwt>
</event>
<event>
 6    1  0.1568961E-005  0.5071119E+04  0.7818608E-02  0.7817629E-01
          1   -1    0    0  501    0  0.00000000000E+00  0.00000000000E+00  0.23987683696E+04  0.23987683696E+04  0.00000000000E+00 0. -1.
         -1   -1    0    0    0  501 -0.00000000000E+00 -0.00000000000E+00 -0.26801511045E+04  0.26801511045E+04  0.00000000000E+00 0.  1.
         23    2    1    2    0    0 -0.94928661993E+03 -0.17218028137E+04 -0.17429449044E+04  0.26290390705E+04  0.90771573384E+02 0.  0.
         13    1    3    3    0    0 -0.76564770331E+03 -0.14036332066E+04 -0.14624893626E+04  0.21668589525E+04  0.00000000000E+00 0.  1.
        -13    1    3    3    0    0 -0.18363891662E+03 -0.31816960715E+03 -0.28045554175E+03  0.46218011804E+03  0.00000000000E+00 0. -1.
         22    1    1    2    0    0  0.94928661993E+03  0.17218028137E+04  0.14615621695E+04  0.24498804035E+04  0.00000000000E+00 0. -1.
<mgrwt>
<rscale>  0 0.50711189E+04</rscale>
<asrwt>0</asrwt>
<pdfrwt beam="1">  1        1 0.36904129E+00 0.50711189E+04</pdfrwt>
<pdfrwt beam="2">  1       -1 0.41233094E+00 0.50711189E+04</pdfrwt>
<totfact> 0.67343108E-03</totfact>
</mgrwt>
</event>
<event>
 6    1  0.1568961E-005  0.4369711E+04  0.7818608E-02  0.7933852E-01
         -1   -1    0    0    0  501 -0.00000000000E+00  0.00000000000E+00  0.10408861512E+04  0.10408861512E+04  0.00000000000E+00 0.  1.
          1   -1    0    0  501    0  0.00000000000E+00 -0.00000000000E+00 -0.45860854885E+04  0.45860854885E+04  0.00000000000E+00 0. -1.
         23    2    1    2    0    0  0.20810709448E+04  0.38899392000E+03 -0.24630988299E+04  0.32493438186E+04  0.95952375762E+02 0.  0.
         11    1    3    3    0    0  0.63205455775E+03  0.15465441143E+03 -0.71714523768E+03  0.96835336674E+03  0.00000000000E+00 0. -1.
        -11    1    3    3    0    0  0.14490163871E+04  0.23433950857E+03 -0.17459535922E+04  0.22809904519E+04  0.00000000000E+00 0.  1.
         22    1    1    2    0    0 -0.20810709448E+04 -0.38899392000E+03 -0.10821005074E+04  0.23776278210E+04  0.00000000000E+00 0.  1.
<mgrwt>
<rscale>  0 0.43697107E+04</rscale>
<asrwt>0</asrwt>
<pdfrwt beam="1">  1        1 0.70555160E+00 0.43697107E+04</pdfrwt>
<pdfrwt beam="2">  1       -1 0.16013633E+00 0.43697107E+04</pdfrwt>
<totfact> 0.57554617E-03</totfact>
</mgrwt>
</event>
<event>
 6    1  0.1568961E-005  0.2580387E+04  0.7818608E-02  0.8374894E-01
         -2   -1    0    0    0  501 -0.00000000000E+00  0.00000000000E+00  0.13019765185E+04  0.13019765185E+04  0.00000000000E+00 0. -1.
          2   -1    0    0  501    0  0.00000000000E+00 -0.00000000000E+00 -0.12785174572E+04  0.12785174572E+04  0.00000000000E+00 0.  1.
         23    2    1    2    0    0 -0.89897503473E+03 -0.88568589665E+03 -0.24804155028E+03  0.12896383669E+04  0.95115120770E+02 0.  0.
         11    1    3    3    0    0 -0.71782276071E+03 -0.65254300189E+03 -0.20026119699E+03  0.99054855112E+03  0.00000000000E+00 0. -1.
        -11    1    3    3    0    0 -0.18115227402E+03 -0.23314289476E+03 -0.47780353282E+02  0.29908981580E+03  0.00000000000E+00 0.  1.
         22    1    1    2    0    0  0.89897503473E+03  0.88568589665E+03  0.27150061165E+03  0.12908556088E+04  0.00000000000E+00 0.  1.
<mgrwt>
<rscale>  0 0.25803873E+04</rscale>
<asrwt>0</asrwt>
<pdfrwt beam="1">  1        2 0.19669499E+00 0.25803873E+04</pdfrwt>
<pdfrwt beam="2">  1       -2 0.20030408E+00 0.25803873E+04</pdfrwt>
<totfact> 0.19960842E+00</totfact>
</mgrwt>
</event>
<event>
 6    1  0.1568961E-005  0.1281592E+04  0.7818608E-02  0.9044291E-01
         -3   -1    0    0    0  501 -0.00000000000E+00  0.00000000000E+00  0.80250526885E+03  0.80250526885E+03  0.00000000000E+00 0.  1.
          3   -1    0    0  501    0  0.00000000000E+00 -0.00000000000E+00 -0.51167226656E+03  0.51167226656E+03  0.00000000000E+00 0. -1.
         23    2    1    2    0    0 -0.17887203045E+03  0.40553334760E+03  0.61612212473E+03  0.76439074721E+03  0.90742727231E+02 0.  0.
         13    1    3    3    0    0 -0.74291358939E+02  0.12996089364E+03  0.14335163538E+03  0.20726488186E+03  0.00000000000E+00 0.  1.
        -13    1    3    3    0    0 -0.10458067151E+03  0.27557245396E+03  0.47277048936E+03  0.55712586535E+03  0.00000000000E+00 0. -1.
         22    1    1    2    0    0  0.17887203045E+03 -0.40553334760E+03 -0.32528912244E+03  0.54978678820E+03  0.00000000000E+00 0. -1.
<mgrwt>
<rscale>  0 0.12815923E+04</rscale>
<asrwt>0</asrwt>
<pdfrwt beam="1">  1        3 0.78718810E-01 0.12815923E+04</pdfrwt>
<pdfrwt beam="2">  1       -3 0.12346235E+00 0.12815923E+04</pdfrwt>
<totfact> 0.20455315E+00</totfact>
</mgrwt>
</event>
<event>
 6    1  0.1568961E-005  0.2564295E+04  0.7818608E-02  0.8380431E-01
          2   -1    0    0  501    0  0.00000000000E+00  0.00000000000E+00  0.35702347702E+04  0.35702347702E+04  0.00000000000E+00 0.  1.
         -2   -1    0    0    0  501 -0.00000000000E+00 -0.00000000000E+00 -0.46044664207E+03  0.46044664207E+03  0.00000000000E+00 0. -1.
         23    2    1    2    0    0 -0.96571988607E+03  0.20316032889E+03  0.28394648733E+04  0.30074689809E+04  0.91759942245E+02 0.  0.
         11    1    3    3    0    0 -0.27985455865E+03  0.79400222864E+02  0.95140312708E+03  0.99488234461E+03  0.00000000000E+00 0. -1.
        -11    1    3    3    0    0 -0.68586532742E+03  0.12376010603E+03  0.18880617462E+04  0.20125866363E+04  0.00000000000E+00 0.  1.
         22    1    1    2    0    0  0.96571988607E+03 -0.20316032889E+03  0.27032325488E+03  0.10232124314E+04  0.00000000000E+00 0. -1.
<mgrwt>
<rscale>  0 0.25642953E+04</rscale>
<asrwt>0</asrwt>
<pdfrwt beam="1">  1        2 0.54926687E+00 0.25642953E+04</pdfrwt>
<pdfrwt beam="2">  1       -2 0.70837947E-01 0.25642953E+04</pdfrwt>
<totfact> 0.11664324E+00</totfact>
</mgrwt>
</event>
<event>
 6    1  0.1568961E-005  0.2324423E+04  0.7818608E-02  0.8468353E-01
          1   -1    0    0  501    0  0.00000000000E+00  0.00000000000E+00  0.11910462372E+04  0.11910462372E+04  0.00000000000E+00 0. -1.
         -1   -1    0    0    0  501 -0.00000000000E+00 -0.00000000000E+00 -0.11340745993E+04  0.11340745993E+04  0.00000000000E+00 0.  1.
         23    2    1    2    0    0  0.11523456600E+04  0.25394013185E+02  0.16267070015E+03  0.11676591016E+04  0.91764070553E+02 0.  0.
         13    1    3    3    0    0  0.47462653548E+03  0.52835570611E+02  0.51367135317E+02  0.48031294829E+03  0.00000000000E+00 0.  1.
        -13    1    3    3    0    0  0.67771912456E+03 -0.27441557426E+02  0.11130356483E+03  0.68734615327E+03  0.00000000000E+00 0. -1.
         22    1    1    2    0    0 -0.11523456600E+04 -0.25394013185E+02 -0.10569906223E+03  0.11574617350E+04  0.00000000000E+00 0.  1.
<mgrwt>
<rscale>  0 0.23244228E+04</rscale>
<asrwt>0</asrwt>
<pdfrwt beam="1">  1        1 0.18323788E+00 0.23244228E+04</pdfrwt>
<pdfrwt beam="2">  1       -1 0.17447301E+00 0.23244228E+04</pdfrwt>
<totfact> 0.22330561E+00</totfact>
</mgrwt>
</event>
<event>
 6    1  0.1568961E-005  0.1219505E+04  0.7818608E-02  0.9095953E-01
         -2   -1    0    0    0  501 -0.00000000000E+00  0.00000000000E+00  0.86040063273E+03  0.86040063273E+03  0.00000000000E+00 0.  1.
          2   -1    0    0  501    0  0.00000000000E+00 -0.00000000000E+00 -0.43212235485E+03  0.43212235485E+03  0.00000000000E+00 0. -1.
         23    2    1    2    0    0  0.39169008448E+03 -0.46208466949E+03  0.24118390509E+03  0.65852955829E+03  0.92456146411E+02 0.  0.
         11    1    3    3    0    0  0.16925225962E+03 -0.26327044711E+03  0.14612599990E+03  0.34541346753E+03  0.00000000000E+00 0.  1.
        -11    1    3    3    0    0  0.22243782487E+03 -0.19881422238E+03  0.95057905188E+02  0.31311609076E+03  0.00000000000E+00 0. -1.
         22    1    1    2    0    0 -0.39169008448E+03  0.46208466949E+03  0.18709437278E+03  0.63399342929E+03  0.00000000000E+00 0. -1.
<mgrwt>
<rscale>  0 0.12195054E+04</rscale>
<asrwt>0</asrwt>
<pdfrwt beam="1">  1        2 0.66480362E-01 0.12195054E+04</pdfrwt>
<pdfrwt beam="2">  1       -2 0.13236933E+00 0.12195054E+04</pdfrwt>
<totfact> 0.29759892E+01</totfact>
</mgrwt>
</event>
<event>
 6    1  0.1568961E-005  0.1629343E+04  0.7818608E-02  0.8802721E-01
         -2   -1    0    0    0  501 -0.00000000000E+00  0.00000000000E+00  0.10445337673E+04  0.10445337673E+04  0.00000000000E+00 0.  1.
          2   -1    0    0  501    0  0.00000000000E+00 -0.00000000000E+00 -0.63539331329E+03  0.63539331329E+03  0.00000000000E+00 0. -1.
         23    2    1    2    0    0  0.37984926146E+03  0.55221649398E+03  0.67830278589E+03  0.95765505529E+03  0.88204409859E+02 0.  0.
         13    1    3    3    0    0  0.14555654838E+03  0.24366698431E+03  0.23143469436E+03  0.36622715051E+03  0.00000000000E+00 0.  1.
        -13    1    3    3    0    0  0.23429271308E+03  0.30854950967E+03  0.44686809153E+03  0.59142790478E+03  0.00000000000E+00 0. -1.
         22    1    1    2    0    0 -0.37984926146E+03 -0.55221649398E+03 -0.26916233186E+03  0.72227202531E+03  0.00000000000E+00 0. -1.
<mgrwt>
<rscale>  0 0.16293431E+04</rscale>
<asrwt>0</asrwt>
<pdfrwt beam="1">  1        2 0.97752818E-01 0.16293431E+04</pdfrwt>
<pdfrwt beam="2">  1       -2 0.16069750E+00 0.16293431E+04</pdfrwt>
<totfact> 0.11004765E+01</totfact>
</mgrwt>
</event>
<event>
 6    1  0.1568961E-005  0.2191433E+04  0.7818608E-02  0.8522002E-01
         -2   -1    0    0    0  501 -0.00000000000E+00  0.00000000000E+00  0.38862300013E+03  0.38862300013E+03  0.00000000000E+00 0.  1.
          2   -1    0    0  501    0  0.00000000000E+00 -0.00000000000E+00 -0.30893554859E+04  0.30893554859E+04  0.00000000000E+00 0. -1.
         23    2    1    2    0    0  0.12348718460E+03  0.75641956389E+03 -0.11081066547E+03  0.77703148976E+03  0.63869328396E+02 0.  0.
         13    1    3    3    0    0  0.63546341450E+02  0.41213338425E+03 -0.28331017591E+02  0.41796496322E+03  0.00000000000E+00 0.  1.
        -13    1    3    3    0    0  0.59940843149E+02  0.34428617964E+03 -0.82479647877E+02  0.35906652654E+03  0.00000000000E+00 0. -1.
         22    1    1    2    0    0 -0.12348718460E+03 -0.75641956389E+03 -0.25899218203E+04  0.27009469962E+04  0.00000000000E+00 0. -1.
<mgrwt>
<rscale>  0 0.21914330E+04</rscale>
<asrwt>0</asrwt>
<pdfrwt beam="1">  1        2 0.47528546E+00 0.21914330E+04</pdfrwt>
<pdfrwt beam="2">  1       -2 0.59788154E-01 0.21914330E+04</pdfrwt>
<totfact> 0.36543010E+00</totfact>
</mgrwt>
</event>
<event>
 6    1  0.1568961E-005  0.1263448E+04  0.7818608E-02  0.9059064E-01
          1   -1    0    0  501    0  0.00000000000E+00  0.00000000000E+00  0.19594384149E+04  0.19594384149E+04  0.00000000000E+00 0. -1.
         -1   -1    0    0    0  501 -0.00000000000E+00 -0.00000000000E+00 -0.20366814272E+03  0.20366814272E+03  0.00000000000E+00 0.  1.
         23    2    1    2    0    0  0.31251884986E+03  0.60400983402E+02  0.18101593076E+04  0.18401909689E+04  0.91157955002E+02 0.  0.
         13    1    3    3    0    0  0.66017237016E+02 -0.15743644921E+02  0.52700401544E+03  0.53135616137E+03  0.00000000000E+00 0.  1.
        -13    1    3    3    0    0  0.24650161284E+03  0.76144628323E+02  0.12831552921E+04  0.13088348075E+04  0.00000000000E+00 0. -1.
         22    1    1    2    0    0 -0.31251884986E+03 -0.60400983402E+02 -0.54389035371E+02  0.32291558879E+03  0.00000000000E+00 0.  1.
<mgrwt>
<rscale>  0 0.12634480E+04</rscale>
<asrwt>0</asrwt>
<pdfrwt beam="1">  1        1 0.30145205E+00 0.12634480E+04</pdfrwt>
<pdfrwt beam="2">  1       -1 0.31333562E-01 0.12634480E+04</pdfrwt>
<totfact> 0.29598623E+01</totfact>
</mgrwt>
</event>
<event>
 6    1  0.1568961E-005  0.1034356E+04  0.7818608E-02  0.9271646E-01
          3   -1    0    0  501    0  0.00000000000E+00  0.00000000000E+00  0.10020083030E+03  0.10020083030E+03  0.00000000000E+00 0. -1.
         -3   -1    0    0    0  501 -0.00000000000E+00 -0.00000000000E+00 -0.26693689124E+04  0.26693689124E+04  0.00000000000E+00 0.  1.
         23    2    1    2    0    0  0.16247877863E+03  0.48652422010E+03 -0.12795986657E+04  0.13817316938E+04  0.93298221549E+02 0.  0.
         11    1    3    3    0    0  0.74900481663E+02  0.31704666747E+03 -0.89439563617E+03  0.95187826192E+03  0.00000000000E+00 0.  1.
        -11    1    3    3    0    0  0.87578296966E+02  0.16947755263E+03 -0.38520302953E+03  0.42985343189E+03  0.00000000000E+00 0. -1.
         22    1    1    2    0    0 -0.16247877863E+03 -0.48652422010E+03 -0.12895694164E+04  0.13878380489E+04  0.00000000000E+00 0. -1.
<mgrwt>
<rscale>  0 0.10343558E+04</rscale>
<asrwt>0</asrwt>
<pdfrwt beam="1">  1        3 0.15415513E-01 0.10343558E+04</pdfrwt>
<pdfrwt beam="2">  1       -3 0.41067213E+00 0.10343558E+04</pdfrwt>
<totfact> 0.90662500E-01</totfact>
</mgrwt>
</event>
<event>
 6    1  0.1568961E-005  0.4167530E+03  0.7818608E-02  0.1038128E+00
          1   -1    0    0  501    0  0.00000000000E+00  0.00000000000E+00  0.12224460918E+04  0.12224460918E+04  0.00000000000E+00 0. -1.
         -1   -1    0    0    0  501 -0.00000000000E+00 -0.00000000000E+00 -0.35519581805E+02  0.35519581805E+02  0.00000000000E+00 0.  1.
         23    2    1    2    0    0  0.16968789804E+03  0.92076920055E+02  0.76183757880E+03  0.79109016411E+03  0.90305090280E+02 0.  0.
         11    1    3    3    0    0  0.95775902438E+02  0.95570977685E+02  0.56009397868E+03  0.57620491166E+03  0.00000000000E+00 0. -1.
        -11    1    3    3    0    0  0.73911995597E+02 -0.34940576301E+01  0.20174360012E+03  0.21488525245E+03  0.00000000000E+00 0.  1.
         22    1    1    2    0    0 -0.16968789804E+03 -0.92076920055E+02  0.42508893123E+03  0.46687550953E+03  0.00000000000E+00 0. -1.
<mgrwt>
<rscale>  0 0.41675304E+03</rscale>
<asrwt>0</asrwt>
<pdfrwt beam="1">  1        1 0.18806860E+00 0.41675304E+03</pdfrwt>
<pdfrwt beam="2">  1       -1 0.54645520E-02 0.41675304E+03</pdfrwt>
<totfact> 0.16968119E+03</totfact>
</mgrwt>
</event>
<event>
 6    1  0.1568961E-005  0.3869721E+04  0.7818608E-02  0.8031356E-01
          1   -1    0    0  501    0  0.00000000000E+00  0.00000000000E+00  0.23741204758E+04  0.23741204758E+04  0.00000000000E+00 0. -1.
         -1   -1    0    0    0  501 -0.00000000000E+00 -0.00000000000E+00 -0.15768727019E+04  0.15768727019E+04  0.00000000000E+00 0.  1.
         23    2    1    2    0    0  0.30609322943E+02  0.16978468847E+04  0.13434551515E+04  0.21671872819E+04  0.90597993240E+02 0.  0.
         13    1    3    3    0    0  0.92033211256E+01  0.16105375224E+04  0.12677063565E+04  0.20496329473E+04  0.00000000000E+00 0.  1.
        -13    1    3    3    0    0  0.21406001817E+02  0.87309362314E+02  0.75748794963E+02  0.11755433467E+03  0.00000000000E+00 0. -1.
         22    1    1    2    0    0 -0.30609322943E+02 -0.16978468847E+04 -0.54620737755E+03  0.17838058958E+04  0.00000000000E+00 0.  1.
<mgrwt>
<rscale>  0 0.38697213E+04</rscale>
<asrwt>0</asrwt>
<pdfrwt beam="1">  1        1 0.36524930E+00 0.38697213E+04</pdfrwt>
<pdfrwt beam="2">  1       -1 0.24259580E+00 0.38697213E+04</pdfrwt>
<totfact> 0.10207819E-01</totfact>
</mgrwt>
</event>
<event>
 6    1  0.1568961E-005  0.1957022E+04  0.7818608E-02  0.8626982E-01
          2   -1    0    0  501    0  0.00000000000E+00  0.00000000000E+00  0.18689129512E+04  0.18689129512E+04  0.00000000000E+00 0. -1.
         -2   -1    0    0    0  501 -0.00000000000E+00 -0.00000000000E+00 -0.51232127840E+03  0.51232127840E+03  0.00000000000E+00 0.  1.
         23    2    1    2    0    0  0.59472802591E+03 -0.61322873319E+03  0.10444182770E+03  0.86544066232E+03  0.91260838338E+02 0.  0.
         11    1    3    3    0    0  0.43678179128E+03 -0.50372716496E+03  0.88861590306E+02  0.67261859337E+03  0.00000000000E+00 0.  1.
        -11    1    3    3    0    0  0.15794623463E+03 -0.10950156823E+03  0.15580237394E+02  0.19282206895E+03  0.00000000000E+00 0. -1.
         22    1    1    2    0    0 -0.59472802591E+03  0.61322873319E+03  0.12521498451E+04  0.15157935673E+04  0.00000000000E+00 0. -1.
<mgrwt>
<rscale>  0 0.19570221E+04</rscale>
<asrwt>0</asrwt>
<pdfrwt beam="1">  1        2 0.28752506E+00 0.19570221E+04</pdfrwt>
<pdfrwt beam="2">  1       -2 0.78818659E-01 0.19570221E+04</pdfrwt>
<totfact> 0.10527650E+01</totfact>
</mgrwt>
</event>
<event>
 6    1  0.1620052E-005  0.3302739E+04  0.7818608E-02  0.8162199E-01
         -2   -1    0    0    0  501 -0.00000000000E+00  0.00000000000E+00  0.15563315135E+04  0.15563315135E+04  0.00000000000E+00 0.  1.
          2   -1    0    0  501    0  0.00000000000E+00 -0.00000000000E+00 -0.17522107620E+04  0.17522107620E+04  0.00000000000E+00 0. -1.
         23    2    1    2    0    0  0.26872274781E+03  0.15766095811E+04 -0.50396166181E+03  0.16797929210E+04  0.99081856918E+02 0.  0.
         13    1    3    3    0    0  0.11004927852E+03  0.85021979822E+03 -0.23263727760E+03  0.88831562630E+03  0.00000000000E+00 0.  1.
        -13    1    3    3    0    0  0.15867346929E+03  0.72638978292E+03 -0.27132438420E+03  0.79147729472E+03  0.00000000000E+00 0. -1.
         22    1    1    2    0    0 -0.26872274781E+03 -0.15766095811E+04  0.30808241327E+03  0.16287493545E+04  0.00000000000E+00 0. -1.
<mgrwt>
<rscale>  0 0.33027388E+04</rscale>
<asrwt>0</asrwt>
<pdfrwt beam="1">  1        2 0.26957089E+00 0.33027388E+04</pdfrwt>
<pdfrwt beam="2">  1       -2 0.23943562E+00 0.33027388E+04</pdfrwt>
<totfact> 0.57199245E-01</totfact>
</mgrwt>
</event>
<event>
 6    1  0.1568961E-005  0.4576211E+04  0.7818608E-02  0.7897429E-01
         -2   -1    0    0    0  501 -0.00000000000E+00  0.00000000000E+00  0.26109900667E+04  0.26109900667E+04  0.00000000000E+00 0.  1.
          2   -1    0    0  501    0  0.00000000000E+00 -0.00000000000E+00 -0.20051502886E+04  0.20051502886E+04  0.00000000000E+00 0. -1.
         23    2    1    2    0    0  0.89692697943E+02  0.12536262247E+04  0.22306202414E+04  0.25619896683E+04  0.92200366496E+02 0.  0.
         13    1    3    3    0    0  0.89767901704E+02  0.78209828512E+03  0.13349825933E+04  0.15498111266E+04  0.00000000000E+00 0.  1.
        -13    1    3    3    0    0 -0.75203761279E-01  0.47152793955E+03  0.89563764814E+03  0.10121785417E+04  0.00000000000E+00 0. -1.
         22    1    1    2    0    0 -0.89692697943E+02 -0.12536262247E+04 -0.16247804633E+04  0.20541506871E+04  0.00000000000E+00 0. -1.
<mgrwt>
<rscale>  0 0.45762113E+04</rscale>
<asrwt>0</asrwt>
<pdfrwt beam="1">  1        2 0.30848466E+00 0.45762113E+04</pdfrwt>
<pdfrwt beam="2">  1       -2 0.40169078E+00 0.45762113E+04</pdfrwt>
<totfact> 0.36174334E-02</totfact>
</mgrwt>
</event>
<event>
 6    1  0.1568961E-005  0.1726402E+04  0.7818608E-02  0.8746448E-01
          2   -1    0    0  501    0  0.00000000000E+00  0.00000000000E+00  0.28432009432E+04  0.28432009432E+04  0.00000000000E+00 0.  1.
         -2   -1    0    0    0  501 -0.00000000000E+00 -0.00000000000E+00 -0.26206931299E+03  0.26206931299E+03  0.00000000000E+00 0. -1.
         23    2    1    2    0    0 -0.51875479890E+03 -0.24694915648E+03  0.14137184726E+03  0.59877504857E+03  0.91951793497E+02 0.  0.
         13    1    3    3    0    0 -0.23025412934E+03 -0.16048474970E+03  0.67124875844E+02  0.28857939622E+03  0.00000000000E+00 0. -1.
        -13    1    3    3    0    0 -0.28850066956E+03 -0.86464406787E+02  0.74246971414E+02  0.31019565236E+03  0.00000000000E+00 0.  1.
         22    1    1    2    0    0  0.51875479890E+03  0.24694915648E+03  0.24397597829E+04  0.25064952076E+04  0.00000000000E+00 0.  1.
<mgrwt>
<rscale>  0 0.17264017E+04</rscale>
<asrwt>0</asrwt>
<pdfrwt beam="1">  1        2 0.43741551E+00 0.17264017E+04</pdfrwt>
<pdfrwt beam="2">  1       -2 0.40318358E-01 0.17264017E+04</pdfrwt>
<totfact> 0.12077509E+01</totfact>
</mgrwt>
</event>
<event>
 6    1  0.1568961E-005  0.3284029E+04  0.7818608E-02  0.8166971E-01
          2   -1    0    0  501    0  0.00000000000E+00  0.00000000000E+00  0.17088047893E+04  0.17088047893E+04  0.00000000000E+00 0. -1.
         -2   -1    0    0    0  501 -0.00000000000E+00 -0.00000000000E+00 -0.15778351296E+04  0.15778351296E+04  0.00000000000E+00 0.  1.
         23    2    1    2    0    0 -0.42826871137E+03 -0.14229090581E+04 -0.63059065367E+03  0.16168919177E+04  0.92793449022E+02 0.  0.
         13    1    3    3    0    0 -0.36726230723E+03 -0.12719137526E+04 -0.53376637123E+03  0.14274287146E+04  0.00000000000E+00 0.  1.
        -13    1    3    3    0    0 -0.61006404146E+02 -0.15099530554E+03 -0.96824282444E+02  0.18946320306E+03  0.00000000000E+00 0. -1.
         22    1    1    2    0    0  0.42826871137E+03  0.14229090581E+04  0.76156031333E+03  0.16697480013E+04  0.00000000000E+00 0.  1.
<mgrwt>
<rscale>  0 0.32840294E+04</rscale>
<asrwt>0</asrwt>
<pdfrwt beam="1">  1        2 0.26289304E+00 0.32840294E+04</pdfrwt>
<pdfrwt beam="2">  1       -2 0.24274387E+00 0.32840294E+04</pdfrwt>
<totfact> 0.57770899E-01</totfact>
</mgrwt>
</event>
<event>
 6    1  0.1568961E-005  0.3832247E+04  0.7818608E-02  0.8039270E-01
          2   -1    0    0  501    0  0.00000000000E+00  0.00000000000E+00  0.28402106567E+04  0.28402106567E+04  0.00000000000E+00 0. -1.
         -2   -1    0    0    0  501 -0.00000000000E+00 -0.00000000000E+00 -0.12926961827E+04  0.12926961827E+04  0.00000000000E+00 0.  1.
         23    2    1    2    0    0 -0.18533829281E+04 -0.28915186133E+03  0.11902664678E+04  0.22233877337E+04  0.89898124136E+02 0.  0.
         13    1    3    3    0    0 -0.11261179582E+03  0.41911866184E-02  0.86451223817E+02  0.14196911874E+03  0.00000000000E+00 0. -1.
        -13    1    3    3    0    0 -0.17407711323E+04 -0.28915605252E+03  0.11038152439E+04  0.20814186149E+04  0.00000000000E+00 0.  1.
         22    1    1    2    0    0  0.18533829281E+04  0.28915186133E+03  0.35724800616E+03  0.19095191057E+04  0.00000000000E+00 0.  1.
<mgrwt>
<rscale>  0 0.38322471E+04</rscale>
<asrwt>0</asrwt>
<pdfrwt beam="1">  1        2 0.43695548E+00 0.38322471E+04</pdfrwt>
<pdfrwt beam="2">  1       -2 0.19887634E+00 0.38322471E+04</pdfrwt>
<totfact> 0.23639593E-01</totfact>
</mgrwt>
</event>
<event>
 6    1  0.1568961E-005  0.1553102E+04  0.7818608E-02  0.8849888E-01
         -2   -1    0    0    0  501 -0.00000000000E+00  0.00000000000E+00  0.32192904097E+03  0.32192904097E+03  0.00000000000E+00 0.  1.
          2   -1    0    0  501    0  0.00000000000E+00 -0.00000000000E+00 -0.18731823930E+04  0.18731823930E+04  0.00000000000E+00 0. -1.
         23    2    1    2    0    0 -0.32881030446E+03 -0.60314842149E+03 -0.27423733739E+03  0.74505138820E+03  0.89393619335E+02 0.  0.
         11    1    3    3    0    0 -0.48226091400E+02 -0.10130169159E+03 -0.81408665933E+02  0.13861875594E+03  0.00000000000E+00 0. -1.
        -11    1    3    3    0    0 -0.28058421306E+03 -0.50184672990E+03 -0.19282867145E+03  0.60643263226E+03  0.00000000000E+00 0.  1.
         22    1    1    2    0    0  0.32881030446E+03  0.60314842149E+03 -0.12770160147E+04  0.14500600458E+04  0.00000000000E+00 0. -1.
<mgrwt>
<rscale>  0 0.15531025E+04</rscale>
<asrwt>0</asrwt>
<pdfrwt beam="1">  1        2 0.28818190E+00 0.15531025E+04</pdfrwt>
<pdfrwt beam="2">  1       -2 0.49527545E-01 0.15531025E+04</pdfrwt>
<totfact> 0.29179368E+01</totfact>
</mgrwt>
</event>
<event>
 6    1  0.1568961E-005  0.1788036E+04  0.7818608E-02  0.8712688E-01
         -1   -1    0    0    0  501 -0.00000000000E+00  0.00000000000E+00  0.36148436678E+03  0.36148436678E+03  0.00000000000E+00 0.  1.
          1   -1    0    0  501    0  0.00000000000E+00 -0.00000000000E+00 -0.22110717621E+04  0.22110717621E+04  0.00000000000E+00 0. -1.
         23    2    1    2    0    0 -0.38031903791E+03  0.74796047385E+03 -0.49276161312E+03  0.97723056829E+03  0.89878446742E+02 0.  0.
         11    1    3    3    0    0 -0.30334405404E+03  0.56373396003E+03 -0.33348073910E+03  0.72181922679E+03  0.00000000000E+00 0. -1.
        -11    1    3    3    0    0 -0.76974983876E+02  0.18422651382E+03 -0.15928087403E+03  0.25541134150E+03  0.00000000000E+00 0.  1.
         22    1    1    2    0    0  0.38031903791E+03 -0.74796047385E+03 -0.13568257822E+04  0.15953255606E+04  0.00000000000E+00 0.  1.
<mgrwt>
<rscale>  0 0.17880357E+04</rscale>
<asrwt>0</asrwt>
<pdfrwt beam="1">  1        1 0.34016489E+00 0.17880357E+04</pdfrwt>
<pdfrwt beam="2">  1       -1 0.55612978E-01 0.17880357E+04</pdfrwt>
<totfact> 0.66154203E+00</totfact>
</mgrwt>
</event>
<event>
 6    1  0.1568961E-005  0.9078564E+03  0.7818608E-02  0.9415813E-01
          2   -1    0    0  501    0  0.00000000000E+00  0.00000000000E+00  0.50286286782E+03  0.50286286782E+03  0.00000000000E+00 0. -1.
         -2   -1    0    0    0  501 -0.00000000000E+00 -0.00000000000E+00 -0.40975547117E+03  0.40975547117E+03  0.00000000000E+00 0.  1.
         23    2    1    2    0    0 -0.70956723107E+02 -0.30049433742E+03 -0.28117065729E+03  0.42742171387E+03  0.91108065487E+02 0.  0.
         11    1    3    3    0    0  0.46511861347E+01 -0.17495336675E+03 -0.14302185523E+03  0.22602116083E+03  0.00000000000E+00 0.  1.
        -11    1    3    3    0    0 -0.75607909242E+02 -0.12554097066E+03 -0.13814880205E+03  0.20140055304E+03  0.00000000000E+00 0. -1.
         22    1    1    2    0    0  0.70956723107E+02  0.30049433742E+03  0.37427805394E+03  0.48519662513E+03  0.00000000000E+00 0. -1.
<mgrwt>
<rscale>  0 0.90785640E+03</rscale>
<asrwt>0</asrwt>
<pdfrwt beam="1">  1        2 0.77363519E-01 0.90785640E+03</pdfrwt>
<pdfrwt beam="2">  1       -2 0.63039303E-01 0.90785640E+03</pdfrwt>
<totfact> 0.14313279E+02</totfact>
</mgrwt>
</event>
<event>
 6    1  0.1568961E-005  0.9206796E+03  0.7818608E-02  0.9400094E-01
          2   -1    0    0  501    0  0.00000000000E+00  0.00000000000E+00  0.18188587111E+03  0.18188587111E+03  0.00000000000E+00 0. -1.
         -2   -1    0    0    0  501 -0.00000000000E+00 -0.00000000000E+00 -0.11650862323E+04  0.11650862323E+04  0.00000000000E+00 0.  1.
         23    2    1    2    0    0  0.27406396286E+03 -0.62999469288E+02 -0.10230483724E+04  0.10629512364E+04  0.64477669708E+02 0.  0.
         11    1    3    3    0    0  0.24652157406E+02 -0.55575547962E+01 -0.18423161313E+03  0.18595672227E+03  0.00000000000E+00 0.  1.
        -11    1    3    3    0    0  0.24941180545E+03 -0.57441914492E+02 -0.83881675928E+03  0.87699451417E+03  0.00000000000E+00 0. -1.
         22    1    1    2    0    0 -0.27406396286E+03  0.62999469288E+02  0.39848011234E+02  0.28402086696E+03  0.00000000000E+00 0. -1.
<mgrwt>
<rscale>  0 0.92067958E+03</rscale>
<asrwt>0</asrwt>
<pdfrwt beam="1">  1        2 0.27982441E-01 0.92067958E+03</pdfrwt>
<pdfrwt beam="2">  1       -2 0.17924404E+00 0.92067958E+03</pdfrwt>
<totfact> 0.35476676E+01</totfact>
</mgrwt>
</event>
<event>
 6    1  0.1568961E-005  0.1172092E+04  0.7818608E-02  0.9137641E-01
         -2   -1    0    0    0  501 -0.00000000000E+00  0.00000000000E+00  0.49744041466E+03  0.49744041466E+03  0.00000000000E+00 0.  1.
          2   -1    0    0  501    0  0.00000000000E+00 -0.00000000000E+00 -0.69043423253E+03  0.69043423253E+03  0.00000000000E+00 0. -1.
         23    2    1    2    0    0  0.46425705772E+03  0.34922692775E+03 -0.53804898484E+02  0.59049066850E+03  0.91050534213E+02 0.  0.
         13    1    3    3    0    0  0.22844821548E+03  0.12323837066E+03 -0.59032112862E+00  0.25957009003E+03  0.00000000000E+00 0. -1.
        -13    1    3    3    0    0  0.23580884223E+03  0.22598855709E+03 -0.53214577355E+02  0.33092057847E+03  0.00000000000E+00 0.  1.
         22    1    1    2    0    0 -0.46425705772E+03 -0.34922692775E+03 -0.13918891938E+03  0.59738397868E+03  0.00000000000E+00 0. -1.
<mgrwt>
<rscale>  0 0.11720920E+04</rscale>
<asrwt>0</asrwt>
<pdfrwt beam="1">  1        2 0.10622065E+00 0.11720920E+04</pdfrwt>
<pdfrwt beam="2">  1       -2 0.76529295E-01 0.11720920E+04</pdfrwt>
<totfact> 0.62955133E+01</totfact>
</mgrwt>
</event>
<event>
 6    1  0.1568961E-005  0.3712046E+04  0.7818608E-02  0.8065298E-01
          2   -1    0    0  501    0  0.00000000000E+00  0.00000000000E+00  0.21043635271E+04  0.21043635271E+04  0.00000000000E+00 0. -1.
         -2   -1    0    0    0  501 -0.00000000000E+00 -0.00000000000E+00 -0.16369895871E+04  0.16369895871E+04  0.00000000000E+00 0.  1.
         23    2    1    2    0    0  0.13632849063E+04 -0.23366737177E+03 -0.10117940689E+04  0.17162397409E+04  0.92765480163E+02 0.  0.
         11    1    3    3    0    0  0.18979770880E+02 -0.12507026493E+02 -0.26478499810E+02  0.34896538031E+02  0.00000000000E+00 0.  1.
        -11    1    3    3    0    0  0.13443051354E+04 -0.22116034528E+03 -0.98531556907E+03  0.16813432029E+04  0.00000000000E+00 0. -1.
         22    1    1    2    0    0 -0.13632849063E+04  0.23366737177E+03  0.14791680088E+04  0.20251133733E+04  0.00000000000E+00 0. -1.
<mgrwt>
<rscale>  0 0.37120459E+04</rscale>
<asrwt>0</asrwt>
<pdfrwt beam="1">  1        2 0.32374823E+00 0.37120459E+04</pdfrwt>
<pdfrwt beam="2">  1       -2 0.25184455E+00 0.37120459E+04</pdfrwt>
<totfact> 0.29543655E-01</totfact>
</mgrwt>
</event>
<event>
 6    1  0.1568961E-005  0.1735118E+04  0.7818608E-02  0.8741585E-01
          1   -1    0    0  501    0  0.00000000000E+00  0.00000000000E+00  0.37884601397E+03  0.37884601397E+03  0.00000000000E+00 0. -1.
         -1   -1    0    0    0  501 -0.00000000000E+00 -0.00000000000E+00 -0.19867134898E+04  0.19867134898E+04  0.00000000000E+00 0.  1.
         23    2    1    2    0    0  0.33562018701E+03 -0.73577549283E+03 -0.39046150579E+03  0.90402476874E+03  0.10389470251E+03 0.  0.
         11    1    3    3    0    0  0.13436065993E+03 -0.32759980397E+03 -0.11613381522E+03  0.37264122361E+03  0.00000000000E+00 0. -1.
        -11    1    3    3    0    0  0.20125952709E+03 -0.40817568886E+03 -0.27432769057E+03  0.53138354513E+03  0.00000000000E+00 0.  1.
         22    1    1    2    0    0 -0.33562018701E+03  0.73577549283E+03 -0.12174059700E+04  0.14615347350E+04  0.00000000000E+00 0.  1.
<mgrwt>
<rscale>  0 0.17351178E+04</rscale>
<asrwt>0</asrwt>
<pdfrwt beam="1">  1        1 0.58284002E-01 0.17351178E+04</pdfrwt>
<pdfrwt beam="2">  1       -1 0.30564823E+00 0.17351178E+04</pdfrwt>
<totfact> 0.18602215E+00</totfact>
</mgrwt>
</event>
<event>
 6    1  0.1568961E-005  0.1557674E+04  0.7818608E-02  0.8846981E-01
         -1   -1    0    0    0  501 -0.00000000000E+00  0.00000000000E+00  0.55431129769E+03  0.55431129769E+03  0.00000000000E+00 0.  1.
          1   -1    0    0  501    0  0.00000000000E+00 -0.00000000000E+00 -0.10943069778E+04  0.10943069778E+04  0.00000000000E+00 0. -1.
         23    2    1    2    0    0 -0.15389992406E+03 -0.65767004312E+03  0.13392948721E+03  0.69447457387E+03  0.90237209388E+02 0.  0.
         11    1    3    3    0    0 -0.15740357216E+03 -0.51791611909E+03  0.97625343445E+02  0.55003972459E+03  0.00000000000E+00 0. -1.
        -11    1    3    3    0    0  0.35036480945E+01 -0.13975392403E+03  0.36304143761E+02  0.14443484928E+03  0.00000000000E+00 0.  1.
         22    1    1    2    0    0  0.15389992406E+03  0.65767004312E+03 -0.67392516736E+03  0.95414370167E+03  0.00000000000E+00 0. -1.
<mgrwt>
<rscale>  0 0.15576735E+04</rscale>
<asrwt>0</asrwt>
<pdfrwt beam="1">  1        1 0.16835492E+00 0.15576735E+04</pdfrwt>
<pdfrwt beam="2">  1       -1 0.85278662E-01 0.15576735E+04</pdfrwt>
<totfact> 0.16762890E+01</totfact>
</mgrwt>
</event>
<event>
 6    1  0.1568961E-005  0.2560471E+04  0.7818608E-02  0.8381754E-01
          2   -1    0    0  501    0  0.00000000000E+00  0.00000000000E+00  0.75730421990E+03  0.75730421990E+03  0.00000000000E+00 0.  1.
         -2   -1    0    0    0  501 -0.00000000000E+00 -0.00000000000E+00 -0.21642591001E+04  0.21642591001E+04  0.00000000000E+00 0. -1.
         23    2    1    2    0    0 -0.76444901909E+03  0.58063832277E+03 -0.16679246548E+04  0.19267626425E+04  0.94437607982E+02 0.  0.
         13    1    3    3    0    0 -0.50118951816E+03  0.38955073479E+03 -0.10120641713E+04  0.11946608702E+04  0.00000000000E+00 0.  1.
        -13    1    3    3    0    0 -0.26325950094E+03  0.19108758798E+03 -0.65586048355E+03  0.73210177230E+03  0.00000000000E+00 0. -1.
         22    1    1    2    0    0  0.76444901909E+03 -0.58063832277E+03  0.26096977461E+03  0.99480067748E+03  0.00000000000E+00 0.  1.
<mgrwt>
<rscale>  0 0.25604707E+04</rscale>
<asrwt>0</asrwt>
<pdfrwt beam="1">  1        2 0.11650834E+00 0.25604707E+04</pdfrwt>
<pdfrwt beam="2">  1       -2 0.33296294E+00 0.25604707E+04</pdfrwt>
<totfact> 0.65401040E-01</totfact>
</mgrwt>
</event>
<event>
 6    1  0.1568961E-005  0.1573408E+04  0.7818608E-02  0.8837053E-01
         -1   -1    0    0    0  501 -0.00000000000E+00  0.00000000000E+00  0.67729543017E+03  0.67729543017E+03  0.00000000000E+00 0.  1.
          1   -1    0    0  501    0  0.00000000000E+00 -0.00000000000E+00 -0.91378565517E+03  0.91378565517E+03  0.00000000000E+00 0. -1.
         23    2    1    2    0    0  0.34206554038E+03  0.68147988987E+03  0.66212037278E+02  0.77068341726E+03  0.90250881110E+02 0.  0.
         13    1    3    3    0    0  0.10297332835E+03  0.14637595259E+03 -0.12142657374E+02  0.17937912358E+03  0.00000000000E+00 0.  1.
        -13    1    3    3    0    0  0.23909221203E+03  0.53510393729E+03  0.78354694652E+02  0.59130429368E+03  0.00000000000E+00 0. -1.
         22    1    1    2    0    0 -0.34206554038E+03 -0.68147988987E+03 -0.30270226228E+03  0.82039766809E+03  0.00000000000E+00 0. -1.
<mgrwt>
<rscale>  0 0.15734076E+04</rscale>
<asrwt>0</asrwt>
<pdfrwt beam="1">  1        1 0.14058241E+00 0.15734076E+04</pdfrwt>
<pdfrwt beam="2">  1       -1 0.10419930E+00 0.15734076E+04</pdfrwt>
<totfact> 0.14780663E+01</totfact>
</mgrwt>
</event>
<event>
 6    1  0.1568961E-005  0.1178516E+04  0.7818608E-02  0.9131872E-01
         -4   -1    0    0    0  501 -0.00000000000E+00  0.00000000000E+00  0.24118509670E+03  0.24118509670E+03  0.00000000000E+00 0.  1.
          4   -1    0    0  501    0  0.00000000000E+00 -0.00000000000E+00 -0.14396623676E+04  0.14396623676E+04  0.00000000000E+00 0. -1.
         23    2    1    2    0    0  0.92994137848E+01  0.18497345951E+03 -0.13953493410E+04  0.14105508277E+04  0.91390340109E+02 0.  0.
         13    1    3    3    0    0 -0.22419652541E+01  0.13023770894E+03 -0.12087204668E+04  0.12157187397E+04  0.00000000000E+00 0. -1.
        -13    1    3    3    0    0  0.11541379039E+02  0.54735750568E+02 -0.18662887415E+03  0.19483208793E+03  0.00000000000E+00 0.  1.
         22    1    1    2    0    0 -0.92994137848E+01 -0.18497345951E+03  0.19687207005E+03  0.27029663665E+03  0.00000000000E+00 0.  1.
<mgrwt>
<rscale>  0 0.11785162E+04</rscale>
<asrwt>0</asrwt>
<pdfrwt beam="1">  1        4 0.22148652E+00 0.11785162E+04</pdfrwt>
<pdfrwt beam="2">  1       -4 0.37105400E-01 0.11785162E+04</pdfrwt>
<totfact> 0.13382443E+00</totfact>
</mgrwt>
</event>
<event>
 6    1  0.1568961E-005  0.8546939E+03  0.7818608E-02  0.9484059E-01
          2   -1    0    0  501    0  0.00000000000E+00  0.00000000000E+00  0.35634586806E+04  0.35634586806E+04  0.00000000000E+00 0. -1.
         -2   -1    0    0    0  501 -0.00000000000E+00 -0.00000000000E+00 -0.51249482550E+02  0.51249482550E+02  0.00000000000E+00 0.  1.
         23    2    1    2    0    0  0.37326588921E+03  0.17600026734E+03  0.13959771696E+04  0.14586141215E+04  0.92192078196E+02 0.  0.
         13    1    3    3    0    0  0.14848012301E+03  0.88469896632E+02  0.44150169542E+03  0.47412763745E+03  0.00000000000E+00 0. -1.
        -13    1    3    3    0    0  0.22478576620E+03  0.87530370706E+02  0.95447547421E+03  0.98448648409E+03  0.00000000000E+00 0.  1.
         22    1    1    2    0    0 -0.37326588921E+03 -0.17600026734E+03  0.21162320285E+04  0.21560940416E+04  0.00000000000E+00 0.  1.
<mgrwt>
<rscale>  0 0.85469389E+03</rscale>
<asrwt>0</asrwt>
<pdfrwt beam="1">  1        2 0.54822422E+00 0.85469389E+03</pdfrwt>
<pdfrwt beam="2">  1       -2 0.78845386E-02 0.85469389E+03</pdfrwt>
<totfact> 0.78550053E+01</totfact>
</mgrwt>
</event>
<event>
 6    1  0.1568961E-005  0.1430578E+04  0.7818608E-02  0.8931978E-01
          1   -1    0    0  501    0  0.00000000000E+00  0.00000000000E+00  0.13097544466E+04  0.13097544466E+04  0.00000000000E+00 0. -1.
         -1   -1    0    0    0  501 -0.00000000000E+00 -0.00000000000E+00 -0.39063660233E+03  0.39063660233E+03  0.00000000000E+00 0.  1.
         23    2    1    2    0    0 -0.66538795301E+03 -0.23381784464E+03  0.58132375727E+03  0.91839567959E+03  0.90007783229E+02 0.  0.
         11    1    3    3    0    0 -0.14921847087E+03 -0.20382409620E+02  0.15131056292E+03  0.21348648932E+03  0.00000000000E+00 0. -1.
        -11    1    3    3    0    0 -0.51616948214E+03 -0.21343543502E+03  0.43001319436E+03  0.70490919027E+03  0.00000000000E+00 0.  1.
         22    1    1    2    0    0  0.66538795301E+03  0.23381784464E+03  0.33779408701E+03  0.78199536936E+03  0.00000000000E+00 0.  1.
<mgrwt>
<rscale>  0 0.14305775E+04</rscale>
<asrwt>0</asrwt>
<pdfrwt beam="1">  1        1 0.20150068E+00 0.14305775E+04</pdfrwt>
<pdfrwt beam="2">  1       -1 0.60097939E-01 0.14305775E+04</pdfrwt>
<totfact> 0.24307473E+01</totfact>
</mgrwt>
</event>
<event>
 6    1  0.1568961E-005  0.2189817E+04  0.7818608E-02  0.8522679E-01
         -1   -1    0    0    0  501 -0.00000000000E+00  0.00000000000E+00  0.40021115506E+03  0.40021115506E+03  0.00000000000E+00 0.  1.
          1   -1    0    0  501    0  0.00000000000E+00 -0.00000000000E+00 -0.29954797754E+04  0.29954797754E+04  0.00000000000E+00 0. -1.
         23    2    1    2    0    0 -0.49408770207E+03  0.80267280221E+03 -0.21580632233E+04  0.23566746438E+04  0.90951725352E+02 0.  0.
         13    1    3    3    0    0 -0.35076785327E+03  0.49218046693E+03 -0.13384668428E+04  0.14685956517E+04  0.00000000000E+00 0.  1.
        -13    1    3    3    0    0 -0.14331984881E+03  0.31049233528E+03 -0.81959638049E+03  0.88807899211E+03  0.00000000000E+00 0. -1.
         22    1    1    2    0    0  0.49408770207E+03 -0.80267280221E+03 -0.43720539710E+03  0.10390162867E+04  0.00000000000E+00 0.  1.
<mgrwt>
<rscale>  0 0.21898168E+04</rscale>
<asrwt>0</asrwt>
<pdfrwt beam="1">  1        1 0.46084306E+00 0.21898168E+04</pdfrwt>
<pdfrwt beam="2">  1       -1 0.61570945E-01 0.21898168E+04</pdfrwt>
<totfact> 0.14718705E+00</totfact>
</mgrwt>
</event>
<event>
 6    1  0.1568961E-005  0.4765171E+04  0.7818608E-02  0.7865789E-01
         -1   -1    0    0    0  501 -0.00000000000E+00  0.00000000000E+00  0.12744729442E+04  0.12744729442E+04  0.00000000000E+00 0.  1.
          1   -1    0    0  501    0  0.00000000000E+00 -0.00000000000E+00 -0.44541661092E+04  0.44541661092E+04  0.00000000000E+00 0. -1.
         23    2    1    2    0    0 -0.11867525225E+04  0.74943454648E+03  0.72282903236E+03  0.15813853609E+04  0.90907428023E+02 0.  0.
         11    1    3    3    0    0 -0.32307225591E+03  0.22087277963E+03  0.24503665097E+03  0.46173956690E+03  0.00000000000E+00 0. -1.
        -11    1    3    3    0    0 -0.86368026658E+03  0.52856176685E+03  0.47779238140E+03  0.11196457940E+04  0.00000000000E+00 0.  1.
         22    1    1    2    0    0  0.11867525225E+04 -0.74943454648E+03 -0.39025221973E+04  0.41472536925E+04  0.00000000000E+00 0. -1.
<mgrwt>
<rscale>  0 0.47651712E+04</rscale>
<asrwt>0</asrwt>
<pdfrwt beam="1">  1        1 0.68525632E+00 0.47651712E+04</pdfrwt>
<pdfrwt beam="2">  1       -1 0.19607276E+00 0.47651712E+04</pdfrwt>
<totfact> 0.41985306E-03</totfact>
</mgrwt>
</event>
<event>
 6    1  0.1568961E-005  0.1957346E+04  0.7818608E-02  0.8626827E-01
         -2   -1    0    0    0  501 -0.00000000000E+00  0.00000000000E+00  0.58802414559E+03  0.58802414559E+03  0.00000000000E+00 0.  1.
          2   -1    0    0  501    0  0.00000000000E+00 -0.00000000000E+00 -0.16288462876E+04  0.16288462876E+04  0.00000000000E+00 0. -1.
         23    2    1    2    0    0  0.69802333201E+02  0.47630347503E+03  0.43978012406E+03  0.65997594854E+03  0.10209960376E+03 0.  0.
         13    1    3    3    0    0 -0.24722821074E+02  0.11786055989E+03  0.12617145073E+03  0.17441778705E+03  0.00000000000E+00 0.  1.
        -13    1    3    3    0    0  0.94525154275E+02  0.35844291513E+03  0.31360867333E+03  0.48555816149E+03  0.00000000000E+00 0. -1.
         22    1    1    2    0    0 -0.69802333201E+02 -0.47630347503E+03 -0.14806022661E+04  0.15568944846E+04  0.00000000000E+00 0. -1.
<mgrwt>
<rscale>  0 0.19573461E+04</rscale>
<asrwt>0</asrwt>
<pdfrwt beam="1">  1        2 0.25059174E+00 0.19573461E+04</pdfrwt>
<pdfrwt beam="2">  1       -2 0.90465253E-01 0.19573461E+04</pdfrwt>
<totfact> 0.10461177E+01</totfact>
</mgrwt>
</event>
<event>
 6    1  0.1805423E-005  0.4439683E+04  0.7818608E-02  0.7921282E-01
          2   -1    0    0  501    0  0.00000000000E+00  0.00000000000E+00  0.25288946577E+04  0.25288946577E+04  0.00000000000E+00 0. -1.
         -2   -1    0    0    0  501 -0.00000000000E+00 -0.00000000000E+00 -0.19485576498E+04  0.19485576498E+04  0.00000000000E+00 0.  1.
         23    2    1    2    0    0 -0.19421875154E+04 -0.10475498466E+04  0.54552134209E+02  0.22089940734E+04  0.85005029584E+02 0.  0.
         13    1    3    3    0    0 -0.90239450443E+03 -0.43864732754E+03  0.25850150550E+02  0.10036909633E+04  0.00000000000E+00 0. -1.
        -13    1    3    3    0    0 -0.10397930110E+04 -0.60890251903E+03  0.28701983658E+02  0.12053031101E+04  0.00000000000E+00 0.  1.
         22    1    1    2    0    0  0.19421875154E+04  0.10475498466E+04  0.52578487377E+03  0.22684582340E+04  0.00000000000E+00 0.  1.
<mgrwt>
<rscale>  0 0.44396833E+04</rscale>
<asrwt>0</asrwt>
<pdfrwt beam="1">  1        2 0.38906072E+00 0.44396833E+04</pdfrwt>
<pdfrwt beam="2">  1       -2 0.29977810E+00 0.44396833E+04</pdfrwt>
<totfact> 0.81302268E-02</totfact>
</mgrwt>
</event>
<event>
 6    1  0.1568961E-005  0.9252031E+03  0.7818608E-02  0.9394613E-01
          2   -1    0    0  501    0  0.00000000000E+00  0.00000000000E+00  0.82177670958E+03  0.82177670958E+03  0.00000000000E+00 0. -1.
         -2   -1    0    0    0  501 -0.00000000000E+00 -0.00000000000E+00 -0.26041160343E+03  0.26041160343E+03  0.00000000000E+00 0.  1.
         23    2    1    2    0    0  0.38955620331E+03 -0.62907025473E+02  0.55576095676E+03  0.68754577111E+03  0.90208740772E+02 0.  0.
         13    1    3    3    0    0  0.27812992550E+03 -0.18597631049E+02  0.44004337948E+03  0.52090335300E+03  0.00000000000E+00 0. -1.
        -13    1    3    3    0    0  0.11142627781E+03 -0.44309394424E+02  0.11571757728E+03  0.16664241811E+03  0.00000000000E+00 0.  1.
         22    1    1    2    0    0 -0.38955620331E+03  0.62907025473E+02  0.56041493876E+01  0.39464254191E+03  0.00000000000E+00 0. -1.
<mgrwt>
<rscale>  0 0.92520309E+03</rscale>
<asrwt>0</asrwt>
<pdfrwt beam="1">  1        2 0.12642719E+00 0.92520309E+03</pdfrwt>
<pdfrwt beam="2">  1       -2 0.40063324E-01 0.92520309E+03</pdfrwt>
<totfact> 0.19613885E+02</totfact>
</mgrwt>
</event>
<event>
 6    1  0.1568961E-005  0.1954522E+04  0.7818608E-02  0.8628183E-01
          1   -1    0    0  501    0  0.00000000000E+00  0.00000000000E+00  0.22506382920E+04  0.22506382920E+04  0.00000000000E+00 0. -1.
         -1   -1    0    0    0  501 -0.00000000000E+00 -0.00000000000E+00 -0.42434151948E+03  0.42434151948E+03  0.00000000000E+00 0.  1.
         23    2    1    2    0    0 -0.24558437269E+02  0.66126419501E+03 -0.65004060452E+02  0.67126019705E+03  0.92148097242E+02 0.  0.
         11    1    3    3    0    0  0.33027287211E+01  0.42706594027E+03 -0.17764817872E+01  0.42708240568E+03  0.00000000000E+00 0. -1.
        -11    1    3    3    0    0 -0.27861165990E+02  0.23419825474E+03 -0.63227578664E+02  0.24417779137E+03  0.00000000000E+00 0.  1.
         22    1    1    2    0    0  0.24558437269E+02 -0.66126419501E+03  0.18913008329E+04  0.20037196144E+04  0.00000000000E+00 0. -1.
<mgrwt>
<rscale>  0 0.19545222E+04</rscale>
<asrwt>0</asrwt>
<pdfrwt beam="1">  1        1 0.34625204E+00 0.19545222E+04</pdfrwt>
<pdfrwt beam="2">  1       -1 0.65283312E-01 0.19545222E+04</pdfrwt>
<totfact> 0.44573094E+00</totfact>
</mgrwt>
</event>
<event>
 6    1  0.1568961E-005  0.3269196E+04  0.7818608E-02  0.8170778E-01
         -1   -1    0    0    0  501 -0.00000000000E+00  0.00000000000E+00  0.97648971341E+03  0.97648971341E+03  0.00000000000E+00 0.  1.
          1   -1    0    0  501    0  0.00000000000E+00 -0.00000000000E+00 -0.27362409313E+04  0.27362409313E+04  0.00000000000E+00 0. -1.
         23    2    1    2    0    0  0.42163726616E+03  0.95498800736E+03  0.54617959606E+03  0.11815062380E+04  0.88683486949E+02 0.  0.
         13    1    3    3    0    0  0.20329428596E+03  0.39685318283E+03  0.27328637036E+03  0.52297844664E+03  0.00000000000E+00 0.  1.
        -13    1    3    3    0    0  0.21834298020E+03  0.55813482453E+03  0.27289322570E+03  0.65852779136E+03  0.00000000000E+00 0. -1.
         22    1    1    2    0    0 -0.42163726616E+03 -0.95498800736E+03 -0.23059308139E+04  0.25312244067E+04  0.00000000000E+00 0. -1.
<mgrwt>
<rscale>  0 0.32691963E+04</rscale>
<asrwt>0</asrwt>
<pdfrwt beam="1">  1        1 0.42096014E+00 0.32691963E+04</pdfrwt>
<pdfrwt beam="2">  1       -1 0.15022919E+00 0.32691963E+04</pdfrwt>
<totfact> 0.26722146E-01</totfact>
</mgrwt>
</event>
<event>
 6    1  0.1568961E-005  0.2141579E+04  0.7818608E-02  0.8543145E-01
         -2   -1    0    0    0  501 -0.00000000000E+00  0.00000000000E+00  0.10823455356E+04  0.10823455356E+04  0.00000000000E+00 0.  1.
          2   -1    0    0  501    0  0.00000000000E+00 -0.00000000000E+00 -0.10593571554E+04  0.10593571554E+04  0.00000000000E+00 0. -1.
         23    2    1    2    0    0  0.67917245109E+03  0.52917703984E+03  0.64497755953E+03  0.10795472894E+04  0.90126244058E+02 0.  0.
         13    1    3    3    0    0  0.32861037884E+03  0.21233736665E+03  0.32808200081E+03  0.51059743205E+03  0.00000000000E+00 0. -1.
        -13    1    3    3    0    0  0.35056207226E+03  0.31683967319E+03  0.31689555872E+03  0.56894985733E+03  0.00000000000E+00 0.  1.
         22    1    1    2    0    0 -0.67917245109E+03 -0.52917703984E+03 -0.62198917934E+03  0.10621554015E+04  0.00000000000E+00 0. -1.
<mgrwt>
<rscale>  0 0.21415793E+04</rscale>
<asrwt>0</asrwt>
<pdfrwt beam="1">  1        2 0.16297802E+00 0.21415793E+04</pdfrwt>
<pdfrwt beam="2">  1       -2 0.16651470E+00 0.21415793E+04</pdfrwt>
<totfact> 0.47875944E+00</totfact>
</mgrwt>
</event>
<event>
 6    1  0.1568961E-005  0.3581964E+04  0.7818608E-02  0.8094636E-01
         -1   -1    0    0    0  501 -0.00000000000E+00  0.00000000000E+00  0.28520077043E+04  0.28520077043E+04  0.00000000000E+00 0.  1.
          1   -1    0    0  501    0  0.00000000000E+00 -0.00000000000E+00 -0.11246873556E+04  0.11246873556E+04  0.00000000000E+00 0. -1.
         23    2    1    2    0    0  0.12553866913E+04 -0.90501212175E+03 -0.13404289850E+03  0.15560100695E+04  0.90316955937E+02 0.  0.
         13    1    3    3    0    0  0.78314763131E+03 -0.60405065608E+03 -0.56167486395E+02  0.99063221938E+03  0.00000000000E+00 0. -1.
        -13    1    3    3    0    0  0.47223905995E+03 -0.30096146567E+03 -0.77875412105E+02  0.56537785009E+03  0.00000000000E+00 0.  1.
         22    1    1    2    0    0 -0.12553866913E+04  0.90501212175E+03  0.18613632472E+04  0.24206849905E+04  0.00000000000E+00 0.  1.
<mgrwt>
<rscale>  0 0.35819643E+04</rscale>
<asrwt>0</asrwt>
<pdfrwt beam="1">  1        1 0.17302882E+00 0.35819643E+04</pdfrwt>
<pdfrwt beam="2">  1       -1 0.43877041E+00 0.35819643E+04</pdfrwt>
<totfact> 0.38046940E-02</totfact>
</mgrwt>
</event>
<event>
 6    1  0.1568961E-005  0.7943919E+03  0.7818608E-02  0.9568170E-01
          1   -1    0    0  501    0  0.00000000000E+00  0.00000000000E+00  0.16104808847E+04  0.16104808847E+04  0.00000000000E+00 0. -1.
         -1   -1    0    0    0  501 -0.00000000000E+00 -0.00000000000E+00 -0.97961196006E+02  0.97961196006E+02  0.00000000000E+00 0.  1.
         23    2    1    2    0    0 -0.28655517822E+03  0.25699209593E+03  0.94311860722E+03  0.10211456387E+04  0.71462582593E+02 0.  0.
         13    1    3    3    0    0 -0.87202409184E+02  0.54859533523E+02  0.32520619187E+03  0.34113471799E+03  0.00000000000E+00 0. -1.
        -13    1    3    3    0    0 -0.19935276904E+03  0.20213256241E+03  0.61791241535E+03  0.68001092076E+03  0.00000000000E+00 0.  1.
         22    1    1    2    0    0  0.28655517822E+03 -0.25699209593E+03  0.56940108143E+03  0.68729644192E+03  0.00000000000E+00 0.  1.
<mgrwt>
<rscale>  0 0.79439193E+03</rscale>
<asrwt>0</asrwt>
<pdfrwt beam="1">  1        1 0.24776627E+00 0.79439193E+03</pdfrwt>
<pdfrwt beam="2">  1       -1 0.15070954E-01 0.79439193E+03</pdfrwt>
<totfact> 0.18229937E+02</totfact>
</mgrwt>
</event>
<event>
 6    1  0.1568961E-005  0.2898766E+04  0.7818608E-02  0.8273245E-01
         -1   -1    0    0    0  501 -0.00000000000E+00  0.00000000000E+00  0.95523404893E+03  0.95523404893E+03  0.00000000000E+00 0.  1.
          1   -1    0    0  501    0  0.00000000000E+00 -0.00000000000E+00 -0.21991591537E+04  0.21991591537E+04  0.00000000000E+00 0. -1.
         23    2    1    2    0    0  0.78238029534E+03 -0.12173540780E+04 -0.57100097475E+03  0.15584932175E+04  0.93750296857E+02 0.  0.
         11    1    3    3    0    0  0.46133410046E+03 -0.63569037974E+03 -0.29374725680E+03  0.83858145819E+03  0.00000000000E+00 0.  1.
        -11    1    3    3    0    0  0.32104619488E+03 -0.58166369823E+03 -0.27725371795E+03  0.71991175932E+03  0.00000000000E+00 0. -1.
         22    1    1    2    0    0 -0.78238029534E+03  0.12173540780E+04 -0.67292413000E+03  0.15958999851E+04  0.00000000000E+00 0. -1.
<mgrwt>
<rscale>  0 0.28987664E+04</rscale>
<asrwt>0</asrwt>
<pdfrwt beam="1">  1        1 0.33833217E+00 0.28987664E+04</pdfrwt>
<pdfrwt beam="2">  1       -1 0.14695909E+00 0.28987664E+04</pdfrwt>
<totfact> 0.69020419E-01</totfact>
</mgrwt>
</event>
<event>
 6    1  0.1568961E-005  0.2615427E+04  0.7818608E-02  0.8362980E-01
         -1   -1    0    0    0  501 -0.00000000000E+00  0.00000000000E+00  0.10767245344E+04  0.10767245344E+04  0.00000000000E+00 0.  1.
          1   -1    0    0  501    0  0.00000000000E+00 -0.00000000000E+00 -0.15882565598E+04  0.15882565598E+04  0.00000000000E+00 0. -1.
         23    2    1    2    0    0  0.11479488254E+04  0.13341296168E+03 -0.87622482343E+03  0.14531286441E+04  0.90704966519E+02 0.  0.
         11    1    3    3    0    0  0.77320421451E+03  0.59572095594E+02 -0.62451285094E+03  0.99569568287E+03  0.00000000000E+00 0. -1.
        -11    1    3    3    0    0  0.37474461087E+03  0.73840866089E+02 -0.25171197250E+03  0.45743296119E+03  0.00000000000E+00 0.  1.
         22    1    1    2    0    0 -0.11479488254E+04 -0.13341296168E+03  0.36469279807E+03  0.12118524502E+04  0.00000000000E+00 0.  1.
<mgrwt>
<rscale>  0 0.26154272E+04</rscale>
<asrwt>0</asrwt>
<pdfrwt beam="1">  1        1 0.24434716E+00 0.26154272E+04</pdfrwt>
<pdfrwt beam="2">  1       -1 0.16564993E+00 0.26154272E+04</pdfrwt>
<totfact> 0.13251555E+00</totfact>
</mgrwt>
</event>
<event>
 6    1  0.1568961E-005  0.1172393E+04  0.7818608E-02  0.9137370E-01
         -2   -1    0    0    0  501 -0.00000000000E+00  0.00000000000E+00  0.46910000683E+03  0.46910000683E+03  0.00000000000E+00 0.  1.
          2   -1    0    0  501    0  0.00000000000E+00 -0.00000000000E+00 -0.73252209378E+03  0.73252209378E+03  0.00000000000E+00 0. -1.
         23    2    1    2    0    0  0.65666907473E+02  0.44474715314E+03  0.24735242426E+03  0.52117902859E+03  0.91280803477E+02 0.  0.
         13    1    3    3    0    0  0.71039859709E+02  0.29486041249E+03  0.12673090877E+03  0.32870967093E+03  0.00000000000E+00 0. -1.
        -13    1    3    3    0    0 -0.53729522366E+01  0.14988674065E+03  0.12062151549E+03  0.19246935766E+03  0.00000000000E+00 0.  1.
         22    1    1    2    0    0 -0.65666907473E+02 -0.44474715314E+03 -0.51077451121E+03  0.68044307203E+03  0.00000000000E+00 0. -1.
<mgrwt>
<rscale>  0 0.11723926E+04</rscale>
<asrwt>0</asrwt>
<pdfrwt beam="1">  1        2 0.11269571E+00 0.11723926E+04</pdfrwt>
<pdfrwt beam="2">  1       -2 0.72169231E-01 0.11723926E+04</pdfrwt>
<totfact> 0.66475764E+01</totfact>
</mgrwt>
</event>
<event>
 6    1  0.2048131E-005  0.3660055E+04  0.7818608E-02  0.8076872E-01
         -1   -1    0    0    0  501 -0.00000000000E+00  0.00000000000E+00  0.19139304540E+04  0.19139304540E+04  0.00000000000E+00 0. -1.
          1   -1    0    0  501    0  0.00000000000E+00 -0.00000000000E+00 -0.17498031315E+04  0.17498031315E+04  0.00000000000E+00 0.  1.
         23    2    1    2    0    0 -0.29096373181E+03  0.10858014278E+04 -0.13623719425E+04  0.17679950383E+04  0.78259261073E+02 0.  0.
         11    1    3    3    0    0 -0.11287297066E+03  0.40200283459E+03 -0.44803436685E+03  0.61243887891E+03  0.00000000000E+00 0.  1.
        -11    1    3    3    0    0 -0.17809076115E+03  0.68379859317E+03 -0.91433757560E+03  0.11555561593E+04  0.00000000000E+00 0. -1.
         22    1    1    2    0    0  0.29096373181E+03 -0.10858014278E+04  0.15264992649E+04  0.18957385472E+04  0.00000000000E+00 0. -1.
<mgrwt>
<rscale>  0 0.36600555E+04</rscale>
<asrwt>0</asrwt>
<pdfrwt beam="1">  1        1 0.26920048E+00 0.36600555E+04</pdfrwt>
<pdfrwt beam="2">  1       -1 0.29445084E+00 0.36600555E+04</pdfrwt>
<totfact> 0.12728389E-01</totfact>
</mgrwt>
</event>
<event>
 6    1  0.1568961E-005  0.1653944E+04  0.7818608E-02  0.8788077E-01
          1   -1    0    0  501    0  0.00000000000E+00  0.00000000000E+00  0.26248180687E+04  0.26248180687E+04  0.00000000000E+00 0. -1.
         -1   -1    0    0    0  501 -0.00000000000E+00 -0.00000000000E+00 -0.26054482951E+03  0.26054482951E+03  0.00000000000E+00 0.  1.
         23    2    1    2    0    0  0.66168396864E+03 -0.41205201274E+03  0.16521067127E+04  0.18295249859E+04  0.10046167627E+03 0.  0.
         11    1    3    3    0    0  0.40882347281E+03 -0.22096752889E+03  0.10741892463E+04  0.11704041258E+04  0.00000000000E+00 0. -1.
        -11    1    3    3    0    0  0.25286049584E+03 -0.19108448385E+03  0.57791746641E+03  0.65912086016E+03  0.00000000000E+00 0.  1.
         22    1    1    2    0    0 -0.66168396864E+03  0.41205201274E+03  0.71216652646E+03  0.10558379123E+04  0.00000000000E+00 0.  1.
<mgrwt>
<rscale>  0 0.16539441E+04</rscale>
<asrwt>0</asrwt>
<pdfrwt beam="1">  1        1 0.40381815E+00 0.16539441E+04</pdfrwt>
<pdfrwt beam="2">  1       -1 0.40083822E-01 0.16539441E+04</pdfrwt>
<totfact> 0.64401604E+00</totfact>
</mgrwt>
</event>
<event>
 6    1  0.1568961E-005  0.5768271E+03  0.7818608E-02  0.9954684E-01
          1   -1    0    0  501    0  0.00000000000E+00  0.00000000000E+00  0.20737069591E+03  0.20737069591E+03  0.00000000000E+00 0. -1.
         -1   -1    0    0    0  501 -0.00000000000E+00 -0.00000000000E+00 -0.40112884254E+03  0.40112884254E+03  0.00000000000E+00 0.  1.
         23    2    1    2    0    0  0.11873797062E+03  0.20022407267E+03 -0.26598839521E+03  0.36476691085E+03  0.90092662964E+02 0.  0.
         13    1    3    3    0    0  0.72586663303E+02  0.18662738387E+03 -0.22810423796E+03  0.30352948370E+03  0.00000000000E+00 0. -1.
        -13    1    3    3    0    0  0.46151307321E+02  0.13596688808E+02 -0.37884157252E+02  0.61237427156E+02  0.00000000000E+00 0.  1.
         22    1    1    2    0    0 -0.11873797062E+03 -0.20022407267E+03  0.72230248583E+02  0.24373262760E+03  0.00000000000E+00 0. -1.
<mgrwt>
<rscale>  0 0.57682707E+03</rscale>
<asrwt>0</asrwt>
<pdfrwt beam="1">  1        1 0.31903184E-01 0.57682707E+03</pdfrwt>
<pdfrwt beam="2">  1       -1 0.61712129E-01 0.57682707E+03</pdfrwt>
<totfact> 0.38303441E+02</totfact>
</mgrwt>
</event>
<event>
 6    1  0.1568961E-005  0.5025789E+04  0.7818608E-02  0.7824541E-01
         -2   -1    0    0    0  501 -0.00000000000E+00  0.00000000000E+00  0.19885374153E+04  0.19885374153E+04  0.00000000000E+00 0.  1.
          2   -1    0    0  501    0  0.00000000000E+00 -0.00000000000E+00 -0.31755186908E+04  0.31755186908E+04  0.00000000000E+00 0. -1.
         23    2    1    2    0    0  0.10187459263E+04  0.22630519746E+04 -0.19419325636E+03  0.24910661036E+04  0.91933722397E+02 0.  0.
         13    1    3    3    0    0  0.69482826388E+03  0.15587346078E+04 -0.17576443430E+03  0.17156144760E+04  0.00000000000E+00 0.  1.
        -13    1    3    3    0    0  0.32391766239E+03  0.70431736680E+03 -0.18428822067E+02  0.77545162755E+03  0.00000000000E+00 0. -1.
         22    1    1    2    0    0 -0.10187459263E+04 -0.22630519746E+04 -0.99278801914E+03  0.26729900024E+04  0.00000000000E+00 0.  1.
<mgrwt>
<rscale>  0 0.50257886E+04</rscale>
<asrwt>0</asrwt>
<pdfrwt beam="1">  1        2 0.48854133E+00 0.50257886E+04</pdfrwt>
<pdfrwt beam="2">  1       -2 0.30592884E+00 0.50257886E+04</pdfrwt>
<totfact> 0.28544948E-02</totfact>
</mgrwt>
</event>
<event>
 6    1  0.1568961E-005  0.3658117E+04  0.7818608E-02  0.8077308E-01
          2   -1    0    0  501    0  0.00000000000E+00  0.00000000000E+00  0.17021922747E+04  0.17021922747E+04  0.00000000000E+00 0. -1.
         -2   -1    0    0    0  501 -0.00000000000E+00 -0.00000000000E+00 -0.19653799194E+04  0.19653799194E+04  0.00000000000E+00 0.  1.
         23    2    1    2    0    0  0.83586214320E+03  0.69704605577E+03  0.13407116888E+04  0.17292657689E+04  0.91178619226E+02 0.  0.
         13    1    3    3    0    0  0.66488476248E+03  0.57523493399E+03  0.11310987405E+04  0.14326029936E+04  0.00000000000E+00 0.  1.
        -13    1    3    3    0    0  0.17097738072E+03  0.12181112178E+03  0.20961294833E+03  0.29666277524E+03  0.00000000000E+00 0. -1.
         22    1    1    2    0    0 -0.83586214320E+03 -0.69704605577E+03 -0.16038993335E+04  0.19383064253E+04  0.00000000000E+00 0.  1.
<mgrwt>
<rscale>  0 0.36581167E+04</rscale>
<asrwt>0</asrwt>
<pdfrwt beam="1">  1        2 0.26187573E+00 0.36581167E+04</pdfrwt>
<pdfrwt beam="2">  1       -2 0.30236614E+00 0.36581167E+04</pdfrwt>
<totfact> 0.24383939E-01</totfact>
</mgrwt>
</event>
<event>
 6    1  0.1568961E-005  0.5903844E+04  0.7818608E-02  0.7702440E-01
          2   -1    0    0  501    0  0.00000000000E+00  0.00000000000E+00  0.26259358218E+04  0.26259358218E+04  0.00000000000E+00 0.  1.
         -2   -1    0    0    0  501 -0.00000000000E+00 -0.00000000000E+00 -0.33183758964E+04  0.33183758964E+04  0.00000000000E+00 0. -1.
         23    2    1    2    0    0  0.75140392402E+03 -0.10103898436E+04 -0.30337057158E+04  0.32859249338E+04  0.91852095753E+02 0.  0.
         13    1    3    3    0    0  0.55740554229E+03 -0.80283522975E+03 -0.24048468492E+04  0.25958685855E+04  0.00000000000E+00 0.  1.
        -13    1    3    3    0    0  0.19399838173E+03 -0.20755461387E+03 -0.62885886651E+03  0.69005634831E+03  0.00000000000E+00 0. -1.
         22    1    1    2    0    0 -0.75140392402E+03  0.10103898436E+04  0.23412656412E+04  0.26583867844E+04  0.00000000000E+00 0.  1.
<mgrwt>
<rscale>  0 0.59038435E+04</rscale>
<asrwt>0</asrwt>
<pdfrwt beam="1">  1        2 0.40399013E+00 0.59038435E+04</pdfrwt>
<pdfrwt beam="2">  1       -2 0.51051937E+00 0.59038435E+04</pdfrwt>
<totfact> 0.28696049E-03</totfact>
</mgrwt>
</event>
<event>
 6    1  0.1568961E-005  0.1095573E+04  0.7818608E-02  0.9209518E-01
          2   -1    0    0  501    0  0.00000000000E+00  0.00000000000E+00  0.12001132247E+04  0.12001132247E+04  0.00000000000E+00 0. -1.
         -2   -1    0    0    0  501 -0.00000000000E+00 -0.00000000000E+00 -0.25003471728E+03  0.25003471728E+03  0.00000000000E+00 0.  1.
         23    2    1    2    0    0 -0.21557147380E+03  0.34862161041E+03  0.47229689497E+01  0.41975715123E+03  0.90364107980E+02 0.  0.
         11    1    3    3    0    0 -0.14737197349E+03  0.17601335054E+03  0.33337768183E+02  0.23197112951E+03  0.00000000000E+00 0.  1.
        -11    1    3    3    0    0 -0.68199500313E+02  0.17260825987E+03 -0.28614799233E+02  0.18778602172E+03  0.00000000000E+00 0. -1.
         22    1    1    2    0    0  0.21557147380E+03 -0.34862161041E+03  0.94535553846E+03  0.10303907907E+04  0.00000000000E+00 0. -1.
<mgrwt>
<rscale>  0 0.10955729E+04</rscale>
<asrwt>0</asrwt>
<pdfrwt beam="1">  1        2 0.18463280E+00 0.10955729E+04</pdfrwt>
<pdfrwt beam="2">  1       -2 0.38466880E-01 0.10955729E+04</pdfrwt>
<totfact> 0.11995399E+02</totfact>
</mgrwt>
</event>
<event>
 6    1  0.1568961E-005  0.2500457E+04  0.7818608E-02  0.8402823E-01
         -1   -1    0    0    0  501 -0.00000000000E+00  0.00000000000E+00  0.59225359973E+03  0.59225359973E+03  0.00000000000E+00 0.  1.
          1   -1    0    0  501    0  0.00000000000E+00 -0.00000000000E+00 -0.26391920495E+04  0.26391920495E+04  0.00000000000E+00 0. -1.
         23    2    1    2    0    0 -0.76801341923E+03  0.42117833135E+01  0.24652110614E+03  0.81280572444E+03  0.10009065224E+03 0.  0.
         11    1    3    3    0    0 -0.16660732206E+03  0.40985267630E+02  0.65776042558E+02  0.18375059102E+03  0.00000000000E+00 0. -1.
        -11    1    3    3    0    0 -0.60140609718E+03 -0.36773484317E+02  0.18074506358E+03  0.62905513342E+03  0.00000000000E+00 0.  1.
         22    1    1    2    0    0  0.76801341923E+03 -0.42117833135E+01 -0.22934595559E+04  0.24186399248E+04  0.00000000000E+00 0. -1.
<mgrwt>
<rscale>  0 0.25004568E+04</rscale>
<asrwt>0</asrwt>
<pdfrwt beam="1">  1        1 0.40602955E+00 0.25004568E+04</pdfrwt>
<pdfrwt beam="2">  1       -1 0.91115938E-01 0.25004568E+04</pdfrwt>
<totfact> 0.11306539E+00</totfact>
</mgrwt>
</event>
<event>
 6    1  0.1568961E-005  0.1686969E+04  0.7818608E-02  0.8768831E-01
         -2   -1    0    0    0  501 -0.00000000000E+00  0.00000000000E+00  0.31905798721E+03  0.31905798721E+03  0.00000000000E+00 0.  1.
          2   -1    0    0  501    0  0.00000000000E+00 -0.00000000000E+00 -0.22298969081E+04  0.22298969081E+04  0.00000000000E+00 0. -1.
         23    2    1    2    0    0 -0.16502129886E+03 -0.44667976356E+03 -0.20052082491E+04  0.20635062262E+04  0.10219091625E+03 0.  0.
         11    1    3    3    0    0 -0.42526676943E+02 -0.10031088709E+03 -0.66443194304E+03  0.67330572496E+03  0.00000000000E+00 0.  1.
        -11    1    3    3    0    0 -0.12249462192E+03 -0.34636887647E+03 -0.13407763060E+04  0.13902005013E+04  0.00000000000E+00 0. -1.
         22    1    1    2    0    0  0.16502129886E+03  0.44667976356E+03  0.94369328124E+02  0.48544866911E+03  0.00000000000E+00 0.  1.
<mgrwt>
<rscale>  0 0.16869694E+04</rscale>
<asrwt>0</asrwt>
<pdfrwt beam="1">  1        2 0.34306106E+00 0.16869694E+04</pdfrwt>
<pdfrwt beam="2">  1       -2 0.49085844E-01 0.16869694E+04</pdfrwt>
<totfact> 0.18603474E+01</totfact>
</mgrwt>
</event>
<event>
 6    1  0.1568961E-005  0.1832369E+04  0.7818608E-02  0.8689273E-01
          1   -1    0    0  501    0  0.00000000000E+00  0.00000000000E+00  0.51448711174E+03  0.51448711174E+03  0.00000000000E+00 0. -1.
         -1   -1    0    0    0  501 -0.00000000000E+00 -0.00000000000E+00 -0.16315159330E+04  0.16315159330E+04  0.00000000000E+00 0.  1.
         23    2    1    2    0    0 -0.59940681383E+03 -0.30771866676E+03 -0.12830028156E+04  0.14520818150E+04  0.92011229354E+02 0.  0.
         13    1    3    3    0    0 -0.51957536174E+03 -0.26747474211E+03 -0.11714891421E+04  0.13091554928E+04  0.00000000000E+00 0. -1.
        -13    1    3    3    0    0 -0.79831452091E+02 -0.40243924650E+02 -0.11151367352E+03  0.14292632227E+03  0.00000000000E+00 0.  1.
         22    1    1    2    0    0  0.59940681383E+03  0.30771866676E+03  0.16597399430E+03  0.69392122977E+03  0.00000000000E+00 0. -1.
<mgrwt>
<rscale>  0 0.18323689E+04</rscale>
<asrwt>0</asrwt>
<pdfrwt beam="1">  1        1 0.79151864E-01 0.18323689E+04</pdfrwt>
<pdfrwt beam="2">  1       -1 0.25100245E+00 0.18323689E+04</pdfrwt>
<totfact> 0.27532155E+00</totfact>
</mgrwt>
</event>
<event>
 6    1  0.1568961E-005  0.1037187E+04  0.7818608E-02  0.9268673E-01
          2   -1    0    0  501    0  0.00000000000E+00  0.00000000000E+00  0.16272297691E+04  0.16272297691E+04  0.00000000000E+00 0. -1.
         -2   -1    0    0    0  501 -0.00000000000E+00 -0.00000000000E+00 -0.16527436326E+03  0.16527436326E+03  0.00000000000E+00 0.  1.
         23    2    1    2    0    0 -0.32909172570E+03  0.21607287171E+03  0.16791790541E+03  0.43990592804E+03  0.10164621370E+03 0.  0.
         13    1    3    3    0    0 -0.10873126860E+03  0.44821994524E+02  0.95723507095E+02  0.15163934112E+03  0.00000000000E+00 0. -1.
        -13    1    3    3    0    0 -0.22036045710E+03  0.17125087718E+03  0.72194398318E+02  0.28826658693E+03  0.00000000000E+00 0.  1.
         22    1    1    2    0    0  0.32909172570E+03 -0.21607287171E+03  0.12940375005E+04  0.13525982043E+04  0.00000000000E+00 0. -1.
<mgrwt>
<rscale>  0 0.10371873E+04</rscale>
<asrwt>0</asrwt>
<pdfrwt beam="1">  1        2 0.25034303E+00 0.10371873E+04</pdfrwt>
<pdfrwt beam="2">  1       -2 0.25426826E-01 0.10371873E+04</pdfrwt>
<totfact> 0.14921377E+02</totfact>
</mgrwt>
</event>
<event>
 6    1  0.1568961E-005  0.1976436E+04  0.7818608E-02  0.8617718E-01
         -2   -1    0    0    0  501 -0.00000000000E+00  0.00000000000E+00  0.11140103365E+04  0.11140103365E+04  0.00000000000E+00 0.  1.
          2   -1    0    0  501    0  0.00000000000E+00 -0.00000000000E+00 -0.87662973301E+03  0.87662973301E+03  0.00000000000E+00 0. -1.
         23    2    1    2    0    0  0.40696571983E+03 -0.48404344457E+03  0.88105777317E+03  0.10882878921E+04  0.90490789504E+02 0.  0.
         11    1    3    3    0    0  0.62536966168E+02 -0.12886734646E+03  0.22173526049E+03  0.26397763327E+03  0.00000000000E+00 0.  1.
        -11    1    3    3    0    0  0.34442875366E+03 -0.35517609811E+03  0.65932251269E+03  0.82431025879E+03  0.00000000000E+00 0. -1.
         22    1    1    2    0    0 -0.40696571983E+03  0.48404344457E+03 -0.64367716969E+03  0.90235217744E+03  0.00000000000E+00 0. -1.
<mgrwt>
<rscale>  0 0.19764358E+04</rscale>
<asrwt>0</asrwt>
<pdfrwt beam="1">  1        2 0.13486611E+00 0.19764358E+04</pdfrwt>
<pdfrwt beam="2">  1       -2 0.17138621E+00 0.19764358E+04</pdfrwt>
<totfact> 0.58972469E+00</totfact>
</mgrwt>
</event>
<event>
 6    1  0.1568961E-005  0.1933405E+04  0.7818608E-02  0.8638405E-01
          2   -1    0    0  501    0  0.00000000000E+00  0.00000000000E+00  0.24618094135E+04  0.24618094135E+04  0.00000000000E+00 0.  1.
         -2   -1    0    0    0  501 -0.00000000000E+00 -0.00000000000E+00 -0.37960423121E+03  0.37960423121E+03  0.00000000000E+00 0. -1.
         23    2    1    2    0    0  0.21075094436E+03  0.58011828144E+02  0.24240763833E+04  0.24356338388E+04  0.91567198770E+02 0.  0.
         11    1    3    3    0    0  0.91614745872E+02  0.38218610194E+02  0.65943259116E+03  0.66686225422E+03  0.00000000000E+00 0.  1.
        -11    1    3    3    0    0  0.11913619849E+03  0.19793217950E+02  0.17646437922E+04  0.17687715846E+04  0.00000000000E+00 0. -1.
         22    1    1    2    0    0 -0.21075094436E+03 -0.58011828144E+02 -0.34187120104E+03  0.40577980587E+03  0.00000000000E+00 0. -1.
<mgrwt>
<rscale>  0 0.19334045E+04</rscale>
<asrwt>0</asrwt>
<pdfrwt beam="1">  1        2 0.37873990E+00 0.19334045E+04</pdfrwt>
<pdfrwt beam="2">  1       -2 0.58400652E-01 0.19334045E+04</pdfrwt>
<totfact> 0.93871539E+00</totfact>
</mgrwt>
</event>
<event>
 6    1  0.1568961E-005  0.2071013E+04  0.7818608E-02  0.8574121E-01
         -2   -1    0    0    0  501 -0.00000000000E+00  0.00000000000E+00  0.12316947052E+04  0.12316947052E+04  0.00000000000E+00 0.  1.
          2   -1    0    0  501    0  0.00000000000E+00 -0.00000000000E+00 -0.87056789585E+03  0.87056789585E+03  0.00000000000E+00 0. -1.
         23    2    1    2    0    0  0.29101962185E+03  0.87976406022E+03  0.64530922974E+03  0.11330170852E+04  0.92878907064E+02 0.  0.
         13    1    3    3    0    0  0.14772214512E+03  0.50017135562E+03  0.31041312107E+03  0.60691805285E+03  0.00000000000E+00 0. -1.
        -13    1    3    3    0    0  0.14329747673E+03  0.37959270460E+03  0.33489610867E+03  0.52609903234E+03  0.00000000000E+00 0.  1.
         22    1    1    2    0    0 -0.29101962185E+03 -0.87976406022E+03 -0.28418242039E+03  0.96924551586E+03  0.00000000000E+00 0.  1.
<mgrwt>
<rscale>  0 0.20710132E+04</rscale>
<asrwt>0</asrwt>
<pdfrwt beam="1">  1        2 0.13393352E+00 0.20710132E+04</pdfrwt>
<pdfrwt beam="2">  1       -2 0.18949149E+00 0.20710132E+04</pdfrwt>
<totfact> 0.44302335E+00</totfact>
</mgrwt>
</event>
<event>
 6    1  0.1568961E-005  0.5287193E+04  0.7818608E-02  0.7785670E-01
          2   -1    0    0  501    0  0.00000000000E+00  0.00000000000E+00  0.29842449121E+04  0.29842449121E+04  0.00000000000E+00 0. -1.
         -2   -1    0    0    0  501 -0.00000000000E+00 -0.00000000000E+00 -0.23418328795E+04  0.23418328795E+04  0.00000000000E+00 0.  1.
         23    2    1    2    0    0 -0.22878250410E+04 -0.13915546827E+03  0.16455793268E+04  0.28241081110E+04  0.11894384903E+03 0.  0.
         13    1    3    3    0    0 -0.33953693558E+03  0.12302824855E+02  0.21173947816E+03  0.40033772834E+03  0.00000000000E+00 0.  1.
        -13    1    3    3    0    0 -0.19482881054E+04 -0.15145829313E+03  0.14338398487E+04  0.24237703827E+04  0.00000000000E+00 0. -1.
         22    1    1    2    0    0  0.22878250410E+04  0.13915546827E+03 -0.10031672942E+04  0.25019696806E+04  0.00000000000E+00 0.  1.
<mgrwt>
<rscale>  0 0.52871932E+04</rscale>
<asrwt>0</asrwt>
<pdfrwt beam="1">  1        2 0.45911460E+00 0.52871932E+04</pdfrwt>
<pdfrwt beam="2">  1       -2 0.36028198E+00 0.52871932E+04</pdfrwt>
<totfact> 0.16971606E-02</totfact>
</mgrwt>
</event>
<event>
 6    1  0.1568961E-005  0.2641640E+04  0.7818608E-02  0.8354193E-01
         -1   -1    0    0    0  501 -0.00000000000E+00  0.00000000000E+00  0.40616710602E+03  0.40616710602E+03  0.00000000000E+00 0.  1.
          1   -1    0    0  501    0  0.00000000000E+00 -0.00000000000E+00 -0.42951911918E+04  0.42951911918E+04  0.00000000000E+00 0. -1.
         23    2    1    2    0    0 -0.82088179842E+02  0.77726302364E+03 -0.55239026599E+02  0.78871415897E+03  0.90235233220E+02 0.  0.
         11    1    3    3    0    0 -0.58168456756E+02  0.39521687276E+03  0.13946427879E+02  0.39971796148E+03  0.00000000000E+00 0. -1.
        -11    1    3    3    0    0 -0.23919723087E+02  0.38204615088E+03 -0.69185454478E+02  0.38899619749E+03  0.00000000000E+00 0.  1.
         22    1    1    2    0    0  0.82088179842E+02 -0.77726302364E+03 -0.38337850592E+04  0.39126441389E+04  0.00000000000E+00 0. -1.
<mgrwt>
<rscale>  0 0.26416399E+04</rscale>
<asrwt>0</asrwt>
<pdfrwt beam="1">  1        1 0.66079869E+00 0.26416399E+04</pdfrwt>
<pdfrwt beam="2">  1       -1 0.62487242E-01 0.26416399E+04</pdfrwt>
<totfact> 0.11750020E-01</totfact>
</mgrwt>
</event>
<event>
 6    1  0.1568961E-005  0.1079430E+04  0.7818608E-02  0.9225476E-01
         -2   -1    0    0    0  501 -0.00000000000E+00  0.00000000000E+00  0.38605105279E+03  0.38605105279E+03  0.00000000000E+00 0.  1.
          2   -1    0    0  501    0  0.00000000000E+00 -0.00000000000E+00 -0.75454382925E+03  0.75454382925E+03  0.00000000000E+00 0. -1.
         23    2    1    2    0    0  0.50755238473E+03  0.77887518270E+01 -0.36734031193E+03  0.63298143060E+03  0.89758001354E+02 0.  0.
         13    1    3    3    0    0  0.38974503811E+03 -0.24454935506E+02 -0.30706704107E+03  0.49677903168E+03  0.00000000000E+00 0. -1.
        -13    1    3    3    0    0  0.11780734662E+03  0.32243687333E+02 -0.60273270860E+02  0.13620239892E+03  0.00000000000E+00 0.  1.
         22    1    1    2    0    0 -0.50755238473E+03 -0.77887518270E+01 -0.11524645262E+01  0.50761345143E+03  0.00000000000E+00 0.  1.
<mgrwt>
<rscale>  0 0.10794303E+04</rscale>
<asrwt>0</asrwt>
<pdfrwt beam="1">  1        2 0.11608366E+00 0.10794303E+04</pdfrwt>
<pdfrwt beam="2">  1       -2 0.59392470E-01 0.10794303E+04</pdfrwt>
<totfact> 0.97912059E+01</totfact>
</mgrwt>
</event>
<event>
 6    1  0.1568961E-005  0.6432878E+03  0.7818608E-02  0.9819456E-01
          2   -1    0    0  501    0  0.00000000000E+00  0.00000000000E+00  0.89244380997E+03  0.89244380997E+03  0.00000000000E+00 0. -1.
         -2   -1    0    0    0  501 -0.00000000000E+00 -0.00000000000E+00 -0.11592304053E+03  0.11592304053E+03  0.00000000000E+00 0.  1.
         23    2    1    2    0    0 -0.24334860817E+03 -0.19977004029E+03  0.41437791401E+03  0.52849805401E+03  0.92057174543E+02 0.  0.
         11    1    3    3    0    0 -0.16332538853E+03 -0.76457039921E+02  0.21118197829E+03  0.27770251970E+03  0.00000000000E+00 0. -1.
        -11    1    3    3    0    0 -0.80023219638E+02 -0.12331300036E+03  0.20319593571E+03  0.25079553431E+03  0.00000000000E+00 0.  1.
         22    1    1    2    0    0  0.24334860817E+03  0.19977004029E+03  0.36214285544E+03  0.47986879648E+03  0.00000000000E+00 0.  1.
<mgrwt>
<rscale>  0 0.64328780E+03</rscale>
<asrwt>0</asrwt>
<pdfrwt beam="1">  1        2 0.13729904E+00 0.64328780E+03</pdfrwt>
<pdfrwt beam="2">  1       -2 0.17834314E-01 0.64328780E+03</pdfrwt>
<totfact> 0.77815514E+02</totfact>
</mgrwt>
</event>
<event>
 6    1  0.1568961E-005  0.1485813E+04  0.7818608E-02  0.8893942E-01
         -2   -1    0    0    0  501 -0.00000000000E+00  0.00000000000E+00  0.16014630466E+04  0.16014630466E+04  0.00000000000E+00 0.  1.
          2   -1    0    0  501    0  0.00000000000E+00 -0.00000000000E+00 -0.34462861080E+03  0.34462861080E+03  0.00000000000E+00 0. -1.
         23    2    1    2    0    0 -0.43867908602E+03  0.52234362682E+03  0.10077396870E+04  0.12199164727E+04  0.85876181677E+02 0.  0.
         13    1    3    3    0    0 -0.29378255281E+03  0.28543829987E+03  0.61435753791E+03  0.73838905447E+03  0.00000000000E+00 0.  1.
        -13    1    3    3    0    0 -0.14489653321E+03  0.23690532695E+03  0.39338214910E+03  0.48152741822E+03  0.00000000000E+00 0. -1.
         22    1    1    2    0    0  0.43867908602E+03 -0.52234362682E+03  0.24909474876E+03  0.72617518468E+03  0.00000000000E+00 0. -1.
<mgrwt>
<rscale>  0 0.14858129E+04</rscale>
<asrwt>0</asrwt>
<pdfrwt beam="1">  1        2 0.53019787E-01 0.14858129E+04</pdfrwt>
<pdfrwt beam="2">  1       -2 0.24637893E+00 0.14858129E+04</pdfrwt>
<totfact> 0.61552890E+00</totfact>
</mgrwt>
</event>
<event>
 6    1  0.1568961E-005  0.1630998E+04  0.7818608E-02  0.8801728E-01
          1   -1    0    0  501    0  0.00000000000E+00  0.00000000000E+00  0.18316043648E+04  0.18316043648E+04  0.00000000000E+00 0. -1.
         -1   -1    0    0    0  501 -0.00000000000E+00 -0.00000000000E+00 -0.36309079395E+03  0.36309079395E+03  0.00000000000E+00 0.  1.
         23    2    1    2    0    0 -0.12228591066E+03 -0.52221021167E+03  0.15589100396E+04  0.16507936321E+04  0.85215932249E+02 0.  0.
         11    1    3    3    0    0 -0.75039213933E+02 -0.27188376386E+03  0.69329148106E+03  0.74846826411E+03  0.00000000000E+00 0.  1.
        -11    1    3    3    0    0 -0.47246696730E+02 -0.25032644781E+03  0.86561855856E+03  0.90232536800E+03  0.00000000000E+00 0. -1.
         22    1    1    2    0    0  0.12228591066E+03  0.52221021167E+03 -0.90396468751E+02  0.54390152664E+03  0.00000000000E+00 0.  1.
<mgrwt>
<rscale>  0 0.16309981E+04</rscale>
<asrwt>0</asrwt>
<pdfrwt beam="1">  1        1 0.28178528E+00 0.16309981E+04</pdfrwt>
<pdfrwt beam="2">  1       -1 0.55860123E-01 0.16309981E+04</pdfrwt>
<totfact> 0.12031306E+01</totfact>
</mgrwt>
</event>
<event>
 6    1  0.1568961E-005  0.3128289E+04  0.7818608E-02  0.8208017E-01
          2   -1    0    0  501    0  0.00000000000E+00  0.00000000000E+00  0.21713525894E+04  0.21713525894E+04  0.00000000000E+00 0. -1.
         -2   -1    0    0    0  501 -0.00000000000E+00 -0.00000000000E+00 -0.11267392056E+04  0.11267392056E+04  0.00000000000E+00 0.  1.
         23    2    1    2    0    0  0.64762723047E+03  0.75334450893E+03  0.17947169085E+04  0.20532607717E+04  0.89005820663E+02 0.  0.
         11    1    3    3    0    0  0.10975600528E+03  0.11343139468E+03  0.35391642225E+03  0.38751760725E+03  0.00000000000E+00 0.  1.
        -11    1    3    3    0    0  0.53787122519E+03  0.63991311425E+03  0.14408004863E+04  0.16657431645E+04  0.00000000000E+00 0. -1.
         22    1    1    2    0    0 -0.64762723047E+03 -0.75334450893E+03 -0.75010352471E+03  0.12448310233E+04  0.00000000000E+00 0.  1.
<mgrwt>
<rscale>  0 0.31282890E+04</rscale>
<asrwt>0</asrwt>
<pdfrwt beam="1">  1        2 0.33405424E+00 0.31282890E+04</pdfrwt>
<pdfrwt beam="2">  1       -2 0.17334449E+00 0.31282890E+04</pdfrwt>
<totfact> 0.91615465E-01</totfact>
</mgrwt>
</event>
<event>
 6    1  0.1568961E-005  0.1591028E+04  0.7818608E-02  0.8826079E-01
         -2   -1    0    0    0  501 -0.00000000000E+00  0.00000000000E+00  0.33911729986E+03  0.33911729986E+03  0.00000000000E+00 0.  1.
          2   -1    0    0  501    0  0.00000000000E+00 -0.00000000000E+00 -0.18661471452E+04  0.18661471452E+04  0.00000000000E+00 0. -1.
         23    2    1    2    0    0  0.71765571536E+03  0.29758314629E+03 -0.54578975689E+03  0.95369839967E+03  0.89826076766E+02 0.  0.
         11    1    3    3    0    0  0.26462633579E+03  0.15656897845E+03 -0.22342930943E+03  0.38008104257E+03  0.00000000000E+00 0.  1.
        -11    1    3    3    0    0  0.45302937958E+03  0.14101416784E+03 -0.32236044746E+03  0.57361735711E+03  0.00000000000E+00 0. -1.
         22    1    1    2    0    0 -0.71765571536E+03 -0.29758314629E+03 -0.98124008842E+03  0.12515660453E+04  0.00000000000E+00 0. -1.
<mgrwt>
<rscale>  0 0.15910283E+04</rscale>
<asrwt>0</asrwt>
<pdfrwt beam="1">  1        2 0.28709956E+00 0.15910283E+04</pdfrwt>
<pdfrwt beam="2">  1       -2 0.52171892E-01 0.15910283E+04</pdfrwt>
<totfact> 0.26388607E+01</totfact>
</mgrwt>
</event>
<event>
 6    1  0.1568961E-005  0.1661628E+04  0.7818608E-02  0.8783557E-01
         -1   -1    0    0    0  501 -0.00000000000E+00  0.00000000000E+00  0.35916777536E+03  0.35916777536E+03  0.00000000000E+00 0.  1.
          1   -1    0    0  501    0  0.00000000000E+00 -0.00000000000E+00 -0.19218094780E+04  0.19218094780E+04  0.00000000000E+00 0. -1.
         23    2    1    2    0    0 -0.14323791755E+03 -0.72994688275E+03 -0.28402630204E+03  0.80172173273E+03  0.93526701133E+02 0.  0.
         13    1    3    3    0    0 -0.13883356241E+02 -0.23776270638E+03 -0.59463130619E+02  0.24547854495E+03  0.00000000000E+00 0.  1.
        -13    1    3    3    0    0 -0.12935456131E+03 -0.49218417636E+03 -0.22456317142E+03  0.55624318778E+03  0.00000000000E+00 0. -1.
         22    1    1    2    0    0  0.14323791755E+03  0.72994688275E+03 -0.12786154006E+04  0.14792555206E+04  0.00000000000E+00 0. -1.
<mgrwt>
<rscale>  0 0.16616282E+04</rscale>
<asrwt>0</asrwt>
<pdfrwt beam="1">  1        1 0.29566300E+00 0.16616282E+04</pdfrwt>
<pdfrwt beam="2">  1       -1 0.55256580E-01 0.16616282E+04</pdfrwt>
<totfact> 0.10645932E+01</totfact>
</mgrwt>
</event>
<event>
 6    1  0.1568961E-005  0.1534124E+04  0.7818608E-02  0.8862073E-01
          1   -1    0    0  501    0  0.00000000000E+00  0.00000000000E+00  0.85617565508E+03  0.85617565508E+03  0.00000000000E+00 0. -1.
         -1   -1    0    0    0  501 -0.00000000000E+00 -0.00000000000E+00 -0.68722362402E+03  0.68722362402E+03  0.00000000000E+00 0.  1.
         23    2    1    2    0    0  0.64662421358E+03 -0.29379223682E+03  0.36908691091E+03  0.80550313320E+03  0.90406845918E+02 0.  0.
         11    1    3    3    0    0  0.42881028025E+03 -0.20737466938E+03  0.29255683827E+03  0.55899196198E+03  0.00000000000E+00 0. -1.
        -11    1    3    3    0    0  0.21781393333E+03 -0.86417567444E+02  0.76530072642E+02  0.24651117122E+03  0.00000000000E+00 0.  1.
         22    1    1    2    0    0 -0.64662421358E+03  0.29379223682E+03 -0.20013487985E+03  0.73789614590E+03  0.00000000000E+00 0.  1.
<mgrwt>
<rscale>  0 0.15341240E+04</rscale>
<asrwt>0</asrwt>
<pdfrwt beam="1">  1        1 0.13171933E+00 0.15341240E+04</pdfrwt>
<pdfrwt beam="2">  1       -1 0.10572671E+00 0.15341240E+04</pdfrwt>
<totfact> 0.15998057E+01</totfact>
</mgrwt>
</event>
<event>
 6    1  0.1568961E-005  0.2881855E+04  0.7818608E-02  0.8278297E-01
         -1   -1    0    0    0  501 -0.00000000000E+00  0.00000000000E+00  0.92155779092E+03  0.92155779092E+03  0.00000000000E+00 0.  1.
          1   -1    0    0  501    0  0.00000000000E+00 -0.00000000000E+00 -0.22530020792E+04  0.22530020792E+04  0.00000000000E+00 0. -1.
         23    2    1    2    0    0 -0.17671011043E+03 -0.10196530877E+04 -0.17686772916E+04  0.20511313760E+04  0.89452094950E+02 0.  0.
         13    1    3    3    0    0 -0.15195191761E+03 -0.77561298835E+03 -0.12800575356E+04  0.15043976161E+04  0.00000000000E+00 0. -1.
        -13    1    3    3    0    0 -0.24758192825E+02 -0.24404009937E+03 -0.48861975598E+03  0.54673375984E+03  0.00000000000E+00 0.  1.
         22    1    1    2    0    0  0.17671011043E+03  0.10196530877E+04  0.43723300326E+03  0.11234284942E+04  0.00000000000E+00 0.  1.
<mgrwt>
<rscale>  0 0.28818547E+04</rscale>
<asrwt>0</asrwt>
<pdfrwt beam="1">  1        1 0.34661570E+00 0.28818547E+04</pdfrwt>
<pdfrwt beam="2">  1       -1 0.14177812E+00 0.28818547E+04</pdfrwt>
<totfact> 0.69852696E-01</totfact>
</mgrwt>
</event>
<event>
 6    1  0.1568961E-005  0.2245678E+04  0.7818608E-02  0.8499653E-01
          1   -1    0    0  501    0  0.00000000000E+00  0.00000000000E+00  0.20756491427E+04  0.20756491427E+04  0.00000000000E+00 0. -1.
         -1   -1    0    0    0  501 -0.00000000000E+00 -0.00000000000E+00 -0.60740876342E+03  0.60740876342E+03  0.00000000000E+00 0.  1.
         23    2    1    2    0    0  0.18386115341E+03  0.24978774879E+03  0.20228143299E+04  0.20476437815E+04  0.69773916667E+02 0.  0.
         11    1    3    3    0    0  0.53581135925E+02  0.12261194425E+03  0.74440350394E+03  0.75633405561E+03  0.00000000000E+00 0.  1.
        -11    1    3    3    0    0  0.13028001748E+03  0.12717580454E+03  0.12784108259E+04  0.12913097258E+04  0.00000000000E+00 0. -1.
         22    1    1    2    0    0 -0.18386115341E+03 -0.24978774879E+03 -0.55457395057E+03  0.63541412467E+03  0.00000000000E+00 0.  1.
<mgrwt>
<rscale>  0 0.22456781E+04</rscale>
<asrwt>0</asrwt>
<pdfrwt beam="1">  1        1 0.31933063E+00 0.22456781E+04</pdfrwt>
<pdfrwt beam="2">  1       -1 0.93447503E-01 0.22456781E+04</pdfrwt>
<totfact> 0.26707827E+00</totfact>
</mgrwt>
</event>
<event>
 6    1  0.1568961E-005  0.8203366E+03  0.7818608E-02  0.9531038E-01
         -2   -1    0    0    0  501 -0.00000000000E+00  0.00000000000E+00  0.12984356191E+03  0.12984356191E+03  0.00000000000E+00 0.  1.
          2   -1    0    0  501    0  0.00000000000E+00 -0.00000000000E+00 -0.12956979375E+04  0.12956979375E+04  0.00000000000E+00 0. -1.
         23    2    1    2    0    0  0.10184210272E+03 -0.28647089669E+03 -0.12495542722E+03  0.34114857742E+03  0.91274884540E+02 0.  0.
         11    1    3    3    0    0  0.87211942553E+02 -0.26629704210E+03 -0.13872893601E+03  0.31267515929E+03  0.00000000000E+00 0. -1.
        -11    1    3    3    0    0  0.14630160165E+02 -0.20173854592E+02  0.13773508785E+02  0.28473418127E+02  0.00000000000E+00 0.  1.
         22    1    1    2    0    0 -0.10184210272E+03  0.28647089669E+03 -0.10408989484E+04  0.10843929220E+04  0.00000000000E+00 0. -1.
<mgrwt>
<rscale>  0 0.82033660E+03</rscale>
<asrwt>0</asrwt>
<pdfrwt beam="1">  1        2 0.19933816E+00 0.82033660E+03</pdfrwt>
<pdfrwt beam="2">  1       -2 0.19975931E-01 0.82033660E+03</pdfrwt>
<totfact> 0.35773246E+02</totfact>
</mgrwt>
</event>
<event>
 6    1  0.1568961E-005  0.2578838E+04  0.7818608E-02  0.8375425E-01
         -1   -1    0    0    0  501 -0.00000000000E+00  0.00000000000E+00  0.54170161151E+03  0.54170161151E+03  0.00000000000E+00 0.  1.
          1   -1    0    0  501    0  0.00000000000E+00 -0.00000000000E+00 -0.30692201662E+04  0.30692201662E+04  0.00000000000E+00 0. -1.
         23    2    1    2    0    0 -0.80474057541E+03  0.37393681933E+03 -0.25723064363E+04  0.27224162387E+04  0.85753343998E+02 0.  0.
         13    1    3    3    0    0 -0.64704390123E+03  0.27051846891E+03 -0.19576445761E+04  0.20794754960E+04  0.00000000000E+00 0.  1.
        -13    1    3    3    0    0 -0.15769667418E+03  0.10341835042E+03 -0.61466186017E+03  0.64294074268E+03  0.00000000000E+00 0. -1.
         22    1    1    2    0    0  0.80474057541E+03 -0.37393681933E+03  0.44787881581E+02  0.88850553904E+03  0.00000000000E+00 0.  1.
<mgrwt>
<rscale>  0 0.25788381E+04</rscale>
<asrwt>0</asrwt>
<pdfrwt beam="1">  1        1 0.47218772E+00 0.25788381E+04</pdfrwt>
<pdfrwt beam="2">  1       -1 0.83338710E-01 0.25788381E+04</pdfrwt>
<totfact> 0.67035702E-01</totfact>
</mgrwt>
</event>
<event>
 6    1  0.1568961E-005  0.1510528E+04  0.7818608E-02  0.8877482E-01
         -1   -1    0    0    0  501 -0.00000000000E+00  0.00000000000E+00  0.27630025355E+03  0.27630025355E+03  0.00000000000E+00 0.  1.
          1   -1    0    0  501    0  0.00000000000E+00 -0.00000000000E+00 -0.20645071147E+04  0.20645071147E+04  0.00000000000E+00 0. -1.
         23    2    1    2    0    0  0.18398924479E+03  0.36903071323E+03 -0.18728448800E+04  0.19198568917E+04  0.90922111163E+02 0.  0.
         13    1    3    3    0    0  0.62834939679E+02  0.20011374433E+03 -0.10824252384E+04  0.11025598111E+04  0.00000000000E+00 0.  1.
        -13    1    3    3    0    0  0.12115430511E+03  0.16891696890E+03 -0.79041964164E+03  0.81729708057E+03  0.00000000000E+00 0. -1.
         22    1    1    2    0    0 -0.18398924479E+03 -0.36903071323E+03  0.84638018872E+02  0.42095047659E+03  0.00000000000E+00 0.  1.
<mgrwt>
<rscale>  0 0.15105282E+04</rscale>
<asrwt>0</asrwt>
<pdfrwt beam="1">  1        1 0.31761649E+00 0.15105282E+04</pdfrwt>
<pdfrwt beam="2">  1       -1 0.42507731E-01 0.15105282E+04</pdfrwt>
<totfact> 0.14189820E+01</totfact>
</mgrwt>
</event>
<event>
 6    1  0.1568961E-005  0.1716752E+04  0.7818608E-02  0.8751867E-01
         -2   -1    0    0    0  501 -0.00000000000E+00  0.00000000000E+00  0.44133257092E+03  0.44133257092E+03  0.00000000000E+00 0.  1.
          2   -1    0    0  501    0  0.00000000000E+00 -0.00000000000E+00 -0.16695113224E+04  0.16695113224E+04  0.00000000000E+00 0. -1.
         23    2    1    2    0    0  0.65340438895E+03 -0.31615450598E+03 -0.58199702548E+02  0.73398444439E+03  0.91951030926E+02 0.  0.
         11    1    3    3    0    0  0.49958536481E+03 -0.20302730783E+03 -0.63369741566E+02  0.54297453771E+03  0.00000000000E+00 0.  1.
        -11    1    3    3    0    0  0.15381902414E+03 -0.11312719815E+03  0.51700390181E+01  0.19100990668E+03  0.00000000000E+00 0. -1.
         22    1    1    2    0    0 -0.65340438895E+03  0.31615450598E+03 -0.11699790489E+04  0.13768594489E+04  0.00000000000E+00 0. -1.
<mgrwt>
<rscale>  0 0.17167524E+04</rscale>
<asrwt>0</asrwt>
<pdfrwt beam="1">  1        2 0.25684790E+00 0.17167524E+04</pdfrwt>
<pdfrwt beam="2">  1       -2 0.67897318E-01 0.17167524E+04</pdfrwt>
<totfact> 0.19251399E+01</totfact>
</mgrwt>
</event>
<event>
 6    1  0.1568961E-005  0.1545187E+04  0.7818608E-02  0.8854948E-01
         -1   -1    0    0    0  501 -0.00000000000E+00  0.00000000000E+00  0.48130147266E+03  0.48130147266E+03  0.00000000000E+00 0.  1.
          1   -1    0    0  501    0  0.00000000000E+00 -0.00000000000E+00 -0.12401809505E+04  0.12401809505E+04  0.00000000000E+00 0. -1.
         23    2    1    2    0    0 -0.10581762686E+03 -0.26311042146E+03 -0.11782444739E+04  0.12152300514E+04  0.89997631431E+02 0.  0.
         11    1    3    3    0    0 -0.85680066308E+02 -0.17980256489E+03 -0.96627729625E+03  0.98659102436E+03  0.00000000000E+00 0. -1.
        -11    1    3    3    0    0 -0.20137560551E+02 -0.83307856574E+02 -0.21196717763E+03  0.22863902708E+03  0.00000000000E+00 0.  1.
         22    1    1    2    0    0  0.10581762686E+03  0.26311042146E+03  0.41936499600E+03  0.50625237176E+03  0.00000000000E+00 0.  1.
<mgrwt>
<rscale>  0 0.15451873E+04</rscale>
<asrwt>0</asrwt>
<pdfrwt beam="1">  1        1 0.19079707E+00 0.15451873E+04</pdfrwt>
<pdfrwt beam="2">  1       -1 0.74046380E-01 0.15451873E+04</pdfrwt>
<totfact> 0.17681126E+01</totfact>
</mgrwt>
</event>
<event>
 6    1  0.1568961E-005  0.7448190E+03  0.7818608E-02  0.9643514E-01
         -2   -1    0    0    0  501 -0.00000000000E+00  0.00000000000E+00  0.66205876050E+02  0.66205876050E+02  0.00000000000E+00 0.  1.
          2   -1    0    0  501    0  0.00000000000E+00 -0.00000000000E+00 -0.20948114326E+04  0.20948114326E+04  0.00000000000E+00 0. -1.
         23    2    1    2    0    0 -0.25107030829E+03 -0.16157236252E+03 -0.41166994116E+03  0.51674764939E+03  0.91728210859E+02 0.  0.
         13    1    3    3    0    0 -0.66616073834E+02 -0.47078407664E+02 -0.52322176997E+02  0.96910721631E+02  0.00000000000E+00 0.  1.
        -13    1    3    3    0    0 -0.18445423445E+03 -0.11449395486E+03 -0.35934776416E+03  0.41983692776E+03  0.00000000000E+00 0. -1.
         22    1    1    2    0    0  0.25107030829E+03  0.16157236252E+03 -0.16169356154E+04  0.16442696593E+04  0.00000000000E+00 0. -1.
<mgrwt>
<rscale>  0 0.74481897E+03</rscale>
<asrwt>0</asrwt>
<pdfrwt beam="1">  1        2 0.32227870E+00 0.74481897E+03</pdfrwt>
<pdfrwt beam="2">  1       -2 0.10185519E-01 0.74481897E+03</pdfrwt>
<totfact> 0.40446942E+02</totfact>
</mgrwt>
</event>
<event>
 6    1  0.1568961E-005  0.3868954E+04  0.7818608E-02  0.8031517E-01
         -2   -1    0    0    0  501 -0.00000000000E+00  0.00000000000E+00  0.89246778728E+03  0.89246778728E+03  0.00000000000E+00 0.  1.
          2   -1    0    0  501    0  0.00000000000E+00 -0.00000000000E+00 -0.41930940151E+04  0.41930940151E+04  0.00000000000E+00 0. -1.
         23    2    1    2    0    0  0.19063556674E+03 -0.95045527591E+03  0.54764867797E+03  0.11170700358E+04  0.90660022149E+02 0.  0.
         13    1    3    3    0    0  0.15904998516E+03 -0.86958651376E+03  0.47315608885E+03  0.10026735696E+04  0.00000000000E+00 0. -1.
        -13    1    3    3    0    0  0.31585581577E+02 -0.80868762151E+02  0.74492589127E+02  0.11439646625E+03  0.00000000000E+00 0.  1.
         22    1    1    2    0    0 -0.19063556674E+03  0.95045527591E+03 -0.38482749058E+04  0.39684917666E+04  0.00000000000E+00 0. -1.
<mgrwt>
<rscale>  0 0.38689540E+04</rscale>
<asrwt>0</asrwt>
<pdfrwt beam="1">  1        2 0.64509140E+00 0.38689540E+04</pdfrwt>
<pdfrwt beam="2">  1       -2 0.13730273E+00 0.38689540E+04</pdfrwt>
<totfact> 0.70687647E-02</totfact>
</mgrwt>
</event>
<event>
 6    1  0.1568961E-005  0.1654879E+04  0.7818608E-02  0.8787525E-01
         -1   -1    0    0    0  501 -0.00000000000E+00  0.00000000000E+00  0.53362656703E+03  0.53362656703E+03  0.00000000000E+00 0.  1.
          1   -1    0    0  501    0  0.00000000000E+00 -0.00000000000E+00 -0.12830251682E+04  0.12830251682E+04  0.00000000000E+00 0. -1.
         23    2    1    2    0    0  0.17617468138E+03  0.94464784676E+02 -0.12543949809E+04  0.12735288602E+04  0.91694470495E+02 0.  0.
         13    1    3    3    0    0  0.13252458700E+03  0.23563357594E+02 -0.85690440706E+03  0.86741175968E+03  0.00000000000E+00 0. -1.
        -13    1    3    3    0    0  0.43650094378E+02  0.70901427082E+02 -0.39749057379E+03  0.40611710054E+03  0.00000000000E+00 0.  1.
         22    1    1    2    0    0 -0.17617468138E+03 -0.94464784676E+02  0.50499637966E+03  0.54312287503E+03  0.00000000000E+00 0.  1.
<mgrwt>
<rscale>  0 0.16548792E+04</rscale>
<asrwt>0</asrwt>
<pdfrwt beam="1">  1        1 0.19738849E+00 0.16548792E+04</pdfrwt>
<pdfrwt beam="2">  1       -1 0.82096394E-01 0.16548792E+04</pdfrwt>
<totfact> 0.13114995E+01</totfact>
</mgrwt>
</event>
<event>
 6    1  0.1588514E-005  0.3639625E+04  0.7818608E-02  0.8081475E-01
         -1   -1    0    0    0  501 -0.00000000000E+00  0.00000000000E+00  0.16477530356E+04  0.16477530356E+04  0.00000000000E+00 0.  1.
          1   -1    0    0  501    0  0.00000000000E+00 -0.00000000000E+00 -0.20098380828E+04  0.20098380828E+04  0.00000000000E+00 0. -1.
         23    2    1    2    0    0 -0.10317904880E+04  0.53410529775E+03 -0.15871860986E+04  0.19691798337E+04  0.93002290042E+02 0.  0.
         13    1    3    3    0    0 -0.69078937493E+03  0.30766301862E+03 -0.10331382480E+04  0.12803207149E+04  0.00000000000E+00 0. -1.
        -13    1    3    3    0    0 -0.34100111303E+03  0.22644227913E+03 -0.55404785053E+03  0.68885911880E+03  0.00000000000E+00 0.  1.
         22    1    1    2    0    0  0.10317904880E+04 -0.53410529775E+03  0.12251010514E+04  0.16884112847E+04  0.00000000000E+00 0.  1.
<mgrwt>
<rscale>  0 0.36396246E+04</rscale>
<asrwt>0</asrwt>
<pdfrwt beam="1">  1        1 0.30920586E+00 0.36396246E+04</pdfrwt>
<pdfrwt beam="2">  1       -1 0.25350047E+00 0.36396246E+04</pdfrwt>
<totfact> 0.15653045E-01</totfact>
</mgrwt>
</event>
<event>
 6    1  0.1568961E-005  0.4494793E+04  0.7818608E-02  0.7911549E-01
          2   -1    0    0  501    0  0.00000000000E+00  0.00000000000E+00  0.30143635750E+04  0.30143635750E+04  0.00000000000E+00 0. -1.
         -2   -1    0    0    0  501 -0.00000000000E+00 -0.00000000000E+00 -0.16755745799E+04  0.16755745799E+04  0.00000000000E+00 0.  1.
         23    2    1    2    0    0  0.98824038802E+03 -0.15794396960E+04  0.19792988465E+04  0.27197854483E+04  0.91433817490E+02 0.  0.
         13    1    3    3    0    0  0.69906860123E+03 -0.11700343369E+04  0.14037774808E+04  0.19565961449E+04  0.00000000000E+00 0.  1.
        -13    1    3    3    0    0  0.28917178679E+03 -0.40940535910E+03  0.57552136575E+03  0.76318930337E+03  0.00000000000E+00 0. -1.
         22    1    1    2    0    0 -0.98824038802E+03  0.15794396960E+04 -0.64050985147E+03  0.19701527067E+04  0.00000000000E+00 0.  1.
<mgrwt>
<rscale>  0 0.44947930E+04</rscale>
<asrwt>0</asrwt>
<pdfrwt beam="1">  1        2 0.46374824E+00 0.44947930E+04</pdfrwt>
<pdfrwt beam="2">  1       -2 0.25778070E+00 0.44947930E+04</pdfrwt>
<totfact> 0.74374387E-02</totfact>
</mgrwt>
</event>
<event>
 6    1  0.1568961E-005  0.3242216E+04  0.7818608E-02  0.8177756E-01
          2   -1    0    0  501    0  0.00000000000E+00  0.00000000000E+00  0.20266626858E+04  0.20266626858E+04  0.00000000000E+00 0. -1.
         -2   -1    0    0    0  501 -0.00000000000E+00 -0.00000000000E+00 -0.12967085819E+04  0.12967085819E+04  0.00000000000E+00 0.  1.
         23    2    1    2    0    0 -0.20222246290E+03  0.10733068955E+04  0.15913068169E+04  0.19323967486E+04  0.94964160894E+02 0.  0.
         13    1    3    3    0    0 -0.20303541597E+03  0.94065733174E+03  0.14282692033E+04  0.17222115181E+04  0.00000000000E+00 0. -1.
        -13    1    3    3    0    0  0.81295307656E+00  0.13264956380E+03  0.16303761358E+03  0.21018523047E+03  0.00000000000E+00 0.  1.
         22    1    1    2    0    0  0.20222246290E+03 -0.10733068955E+04 -0.86135271310E+03  0.13909745191E+04  0.00000000000E+00 0.  1.
<mgrwt>
<rscale>  0 0.32422158E+04</rscale>
<asrwt>0</asrwt>
<pdfrwt beam="1">  1        2 0.31179426E+00 0.32422158E+04</pdfrwt>
<pdfrwt beam="2">  1       -2 0.19949363E+00 0.32422158E+04</pdfrwt>
<totfact> 0.72619646E-01</totfact>
</mgrwt>
</event>
<event>
 6    1  0.1568961E-005  0.4719190E+04  0.7818608E-02  0.7873348E-01
         -1   -1    0    0    0  501 -0.00000000000E+00  0.00000000000E+00  0.19810059262E+04  0.19810059262E+04  0.00000000000E+00 0.  1.
          1   -1    0    0  501    0  0.00000000000E+00 -0.00000000000E+00 -0.28105364589E+04  0.28105364589E+04  0.00000000000E+00 0. -1.
         23    2    1    2    0    0 -0.26509558930E+03 -0.82879821389E+03  0.18110549143E+04  0.20112773521E+04  0.90191648942E+02 0.  0.
         13    1    3    3    0    0 -0.10058528250E+03 -0.44825609221E+03  0.90783233705E+03  0.10174529353E+04  0.00000000000E+00 0.  1.
        -13    1    3    3    0    0 -0.16451030680E+03 -0.38054212168E+03  0.90322257726E+03  0.99382441683E+03  0.00000000000E+00 0. -1.
         22    1    1    2    0    0  0.26509558930E+03  0.82879821389E+03 -0.26405854470E+04  0.27802650330E+04  0.00000000000E+00 0. -1.
<mgrwt>
<rscale>  0 0.47191903E+04</rscale>
<asrwt>0</asrwt>
<pdfrwt beam="1">  1        1 0.43239023E+00 0.47191903E+04</pdfrwt>
<pdfrwt beam="2">  1       -1 0.30477014E+00 0.47191903E+04</pdfrwt>
<totfact> 0.18594596E-02</totfact>
</mgrwt>
</event>
<event>
 6    1  0.1568961E-005  0.1426389E+04  0.7818608E-02  0.8934936E-01
          1   -1    0    0  501    0  0.00000000000E+00  0.00000000000E+00  0.25085060245E+03  0.25085060245E+03  0.00000000000E+00 0. -1.
         -1   -1    0    0    0  501 -0.00000000000E+00 -0.00000000000E+00 -0.20276854054E+04  0.20276854054E+04  0.00000000000E+00 0.  1.
         23    2    1    2    0    0 -0.29252681059E+03  0.32400822283E+03 -0.17871224645E+04  0.18418907292E+04  0.90562087695E+02 0.  0.
         13    1    3    3    0    0 -0.18062021172E+03  0.22798147156E+03 -0.13354260770E+04  0.13667340705E+04  0.00000000000E+00 0.  1.
        -13    1    3    3    0    0 -0.11190659888E+03  0.96026751277E+02 -0.45169638753E+03  0.47515665874E+03  0.00000000000E+00 0. -1.
         22    1    1    2    0    0  0.29252681059E+03 -0.32400822283E+03  0.10287661586E+02  0.43664527864E+03  0.00000000000E+00 0. -1.
<mgrwt>
<rscale>  0 0.14263886E+04</rscale>
<asrwt>0</asrwt>
<pdfrwt beam="1">  1        1 0.38592400E-01 0.14263886E+04</pdfrwt>
<pdfrwt beam="2">  1       -1 0.31195160E+00 0.14263886E+04</pdfrwt>
<totfact> 0.29870068E+00</totfact>
</mgrwt>
</event>
<event>
 6    1  0.1568961E-005  0.1826259E+04  0.7818608E-02  0.8692459E-01
         -2   -1    0    0    0  501 -0.00000000000E+00  0.00000000000E+00  0.19978971366E+03  0.19978971366E+03  0.00000000000E+00 0.  1.
          2   -1    0    0  501    0  0.00000000000E+00 -0.00000000000E+00 -0.41734139597E+04  0.41734139597E+04  0.00000000000E+00 0. -1.
         23    2    1    2    0    0  0.47317925165E+03 -0.75673150607E+03 -0.15514112954E+04  0.17917977086E+04  0.84385097551E+02 0.  0.
         11    1    3    3    0    0  0.44504858122E+03 -0.67658645080E+03 -0.14341675294E+04  0.16470197228E+04  0.00000000000E+00 0. -1.
        -11    1    3    3    0    0  0.28130670438E+02 -0.80145055274E+02 -0.11724376603E+03  0.14477798582E+03  0.00000000000E+00 0.  1.
         22    1    1    2    0    0 -0.47317925165E+03  0.75673150607E+03 -0.24222129507E+04  0.25814059648E+04  0.00000000000E+00 0. -1.
<mgrwt>
<rscale>  0 0.18262587E+04</rscale>
<asrwt>0</asrwt>
<pdfrwt beam="1">  1        2 0.64206370E+00 0.18262587E+04</pdfrwt>
<pdfrwt beam="2">  1       -2 0.30736878E-01 0.18262587E+04</pdfrwt>
<totfact> 0.23009464E+00</totfact>
</mgrwt>
</event>
<event>
 6    1  0.1568961E-005  0.2787521E+04  0.7818608E-02  0.8307153E-01
          2   -1    0    0  501    0  0.00000000000E+00  0.00000000000E+00  0.26375983137E+04  0.26375983137E+04  0.00000000000E+00 0. -1.
         -2   -1    0    0    0  501 -0.00000000000E+00 -0.00000000000E+00 -0.73649146614E+03  0.73649146614E+03  0.00000000000E+00 0.  1.
         23    2    1    2    0    0  0.10185067460E+04 -0.24437948994E+02  0.21003891505E+04  0.23359825400E+04  0.85009639472E+02 0.  0.
         11    1    3    3    0    0  0.98689757986E+02  0.60584112286E+01  0.26343589413E+03  0.28138024627E+03  0.00000000000E+00 0.  1.
        -11    1    3    3    0    0  0.91981698802E+03 -0.30496360223E+02  0.18369532564E+04  0.20546022937E+04  0.00000000000E+00 0. -1.
         22    1    1    2    0    0 -0.10185067460E+04  0.24437948994E+02 -0.19928230297E+03  0.10381072398E+04  0.00000000000E+00 0.  1.
<mgrwt>
<rscale>  0 0.27875212E+04</rscale>
<asrwt>0</asrwt>
<pdfrwt beam="1">  1        2 0.40578435E+00 0.27875212E+04</pdfrwt>
<pdfrwt beam="2">  1       -2 0.11330638E+00 0.27875212E+04</pdfrwt>
<totfact> 0.15395961E+00</totfact>
</mgrwt>
</event>
<event>
 6    1  0.1568961E-005  0.3735121E+04  0.7818608E-02  0.8060223E-01
         -1   -1    0    0    0  501 -0.00000000000E+00  0.00000000000E+00  0.15940055162E+04  0.15940055162E+04  0.00000000000E+00 0.  1.
          1   -1    0    0  501    0  0.00000000000E+00 -0.00000000000E+00 -0.21880614739E+04  0.21880614739E+04  0.00000000000E+00 0. -1.
         23    2    1    2    0    0  0.12906838024E+04  0.13236855854E+04 -0.38310959191E+02  0.18515591010E+04  0.93782557752E+02 0.  0.
         11    1    3    3    0    0  0.82323384705E+03  0.80631114945E+03  0.13067293633E+02  0.11523985382E+04  0.00000000000E+00 0. -1.
        -11    1    3    3    0    0  0.46744995533E+03  0.51737443593E+03 -0.51378252824E+02  0.69916056279E+03  0.00000000000E+00 0.  1.
         22    1    1    2    0    0 -0.12906838024E+04 -0.13236855854E+04 -0.55574499846E+03  0.19305078891E+04  0.00000000000E+00 0.  1.
<mgrwt>
<rscale>  0 0.37351209E+04</rscale>
<asrwt>0</asrwt>
<pdfrwt beam="1">  1        1 0.33662484E+00 0.37351209E+04</pdfrwt>
<pdfrwt beam="2">  1       -1 0.24523162E+00 0.37351209E+04</pdfrwt>
<totfact> 0.13303852E-01</totfact>
</mgrwt>
</event>
<event>
 6    1  0.1568961E-005  0.3830106E+04  0.7818608E-02  0.8039725E-01
          1   -1    0    0  501    0  0.00000000000E+00  0.00000000000E+00  0.19434097524E+04  0.19434097524E+04  0.00000000000E+00 0. -1.
         -1   -1    0    0    0  501 -0.00000000000E+00 -0.00000000000E+00 -0.18871099757E+04  0.18871099757E+04  0.00000000000E+00 0.  1.
         23    2    1    2    0    0  0.41386130536E+03 -0.62447172520E+03 -0.17334114525E+04  0.18903361286E+04  0.86077288760E+02 0.  0.
         13    1    3    3    0    0  0.13251189295E+03 -0.21932157106E+03 -0.69479287228E+03  0.74053932284E+03  0.00000000000E+00 0. -1.
        -13    1    3    3    0    0  0.28134941241E+03 -0.40515015414E+03 -0.10386185802E+04  0.11497968057E+04  0.00000000000E+00 0.  1.
         22    1    1    2    0    0 -0.41386130536E+03  0.62447172520E+03  0.17897112292E+04  0.19401835995E+04  0.00000000000E+00 0. -1.
<mgrwt>
<rscale>  0 0.38301060E+04</rscale>
<asrwt>0</asrwt>
<pdfrwt beam="1">  1        1 0.29898612E+00 0.38301060E+04</pdfrwt>
<pdfrwt beam="2">  1       -1 0.29032461E+00 0.38301060E+04</pdfrwt>
<totfact> 0.98587438E-02</totfact>
</mgrwt>
</event>
<event>
 6    1  0.1568961E-005  0.2674066E+04  0.7818608E-02  0.8343469E-01
          2   -1    0    0  501    0  0.00000000000E+00  0.00000000000E+00  0.27152486502E+04  0.27152486502E+04  0.00000000000E+00 0. -1.
         -2   -1    0    0    0  501 -0.00000000000E+00 -0.00000000000E+00 -0.65837675231E+03  0.65837675231E+03  0.00000000000E+00 0.  1.
         23    2    1    2    0    0  0.17212457379E+03 -0.10603034084E+04  0.20310053014E+04  0.22991305130E+04  0.84548180640E+02 0.  0.
         13    1    3    3    0    0  0.86240401742E+02 -0.71248961521E+03  0.12955526142E+04  0.14810588897E+04  0.00000000000E+00 0. -1.
        -13    1    3    3    0    0  0.85884172048E+02 -0.34781379317E+03  0.73545268714E+03  0.81807162324E+03  0.00000000000E+00 0.  1.
         22    1    1    2    0    0 -0.17212457379E+03  0.10603034084E+04  0.25866596503E+02  0.10744948895E+04  0.00000000000E+00 0.  1.
<mgrwt>
<rscale>  0 0.26740655E+04</rscale>
<asrwt>0</asrwt>
<pdfrwt beam="1">  1        2 0.41773056E+00 0.26740655E+04</pdfrwt>
<pdfrwt beam="2">  1       -2 0.10128873E+00 0.26740655E+04</pdfrwt>
<totfact> 0.18312117E+00</totfact>
</mgrwt>
</event>
<event>
 6    1  0.1568961E-005  0.1359959E+04  0.7818608E-02  0.8983323E-01
         -2   -1    0    0    0  501 -0.00000000000E+00  0.00000000000E+00  0.16474937222E+03  0.16474937222E+03  0.00000000000E+00 0.  1.
          2   -1    0    0  501    0  0.00000000000E+00 -0.00000000000E+00 -0.28065174796E+04  0.28065174796E+04  0.00000000000E+00 0. -1.
         23    2    1    2    0    0 -0.37458651232E+03  0.45127516281E+03 -0.20659332853E+04  0.21493483218E+04  0.87484519089E+02 0.  0.
         11    1    3    3    0    0 -0.29508838137E+03  0.29296939238E+03 -0.14529813791E+04  0.15113117169E+04  0.00000000000E+00 0.  1.
        -11    1    3    3    0    0 -0.79498130948E+02  0.15830577044E+03 -0.61295190623E+03  0.63803660485E+03  0.00000000000E+00 0. -1.
         22    1    1    2    0    0  0.37458651232E+03 -0.45127516281E+03 -0.57583482208E+03  0.82191853009E+03  0.00000000000E+00 0.  1.
<mgrwt>
<rscale>  0 0.13599588E+04</rscale>
<asrwt>0</asrwt>
<pdfrwt beam="1">  1        2 0.43177189E+00 0.13599588E+04</pdfrwt>
<pdfrwt beam="2">  1       -2 0.25346059E-01 0.13599588E+04</pdfrwt>
<totfact> 0.31528509E+01</totfact>
</mgrwt>
</event>
<event>
 6    1  0.1568961E-005  0.1147085E+04  0.7818608E-02  0.9160477E-01
         -1   -1    0    0    0  501 -0.00000000000E+00  0.00000000000E+00  0.65290911154E+03  0.65290911154E+03  0.00000000000E+00 0.  1.
          1   -1    0    0  501    0  0.00000000000E+00 -0.00000000000E+00 -0.50382365168E+03  0.50382365168E+03  0.00000000000E+00 0. -1.
         23    2    1    2    0    0  0.99537678111E+02  0.65472511027E+02  0.63699851154E+03  0.65448427385E+03  0.91586909298E+02 0.  0.
         11    1    3    3    0    0  0.49736157493E+02  0.33313606041E+02  0.12004541845E+03  0.13414314817E+03  0.00000000000E+00 0.  1.
        -11    1    3    3    0    0  0.49801520618E+02  0.32158904986E+02  0.51695309308E+03  0.52034112568E+03  0.00000000000E+00 0. -1.
         22    1    1    2    0    0 -0.99537678111E+02 -0.65472511027E+02 -0.48791305169E+03  0.50224848936E+03  0.00000000000E+00 0. -1.
<mgrwt>
<rscale>  0 0.11470851E+04</rscale>
<asrwt>0</asrwt>
<pdfrwt beam="1">  1        1 0.77511331E-01 0.11470851E+04</pdfrwt>
<pdfrwt beam="2">  1       -1 0.10044756E+00 0.11470851E+04</pdfrwt>
<totfact> 0.41123632E+01</totfact>
</mgrwt>
</event>
<event>
 6    1  0.1568961E-005  0.5707277E+04  0.7818608E-02  0.7727794E-01
         -2   -1    0    0    0  501 -0.00000000000E+00  0.00000000000E+00  0.32678720895E+04  0.32678720895E+04  0.00000000000E+00 0.  1.
          2   -1    0    0  501    0  0.00000000000E+00 -0.00000000000E+00 -0.24919129957E+04  0.24919129957E+04  0.00000000000E+00 0. -1.
         23    2    1    2    0    0  0.22728622197E+04 -0.52522156030E+03 -0.12694161651E+04  0.26573150520E+04  0.90252578995E+02 0.  0.
         11    1    3    3    0    0  0.16764054438E+04 -0.42539468965E+03 -0.95625627499E+03  0.19762899376E+04  0.00000000000E+00 0. -1.
        -11    1    3    3    0    0  0.59645677595E+03 -0.99826870653E+02 -0.31315989012E+03  0.68102511441E+03  0.00000000000E+00 0.  1.
         22    1    1    2    0    0 -0.22728622197E+04  0.52522156030E+03  0.20453752589E+04  0.31024700333E+04  0.00000000000E+00 0.  1.
<mgrwt>
<rscale>  0 0.57072771E+04</rscale>
<asrwt>0</asrwt>
<pdfrwt beam="1">  1        2 0.38337123E+00 0.57072771E+04</pdfrwt>
<pdfrwt beam="2">  1       -2 0.50274956E+00 0.57072771E+04</pdfrwt>
<totfact> 0.38842996E-03</totfact>
</mgrwt>
</event>
<event>
 6    1  0.1568961E-005  0.4042198E+04  0.7818608E-02  0.7996088E-01
          2   -1    0    0  501    0  0.00000000000E+00  0.00000000000E+00  0.26916285523E+04  0.26916285523E+04  0.00000000000E+00 0. -1.
         -2   -1    0    0    0  501 -0.00000000000E+00 -0.00000000000E+00 -0.15176096646E+04  0.15176096646E+04  0.00000000000E+00 0.  1.
         23    2    1    2    0    0  0.34650681646E+02  0.14034394462E+04  0.20999043500E+04  0.25275406109E+04  0.89556192775E+02 0.  0.
         13    1    3    3    0    0  0.42801436779E+02  0.75969529078E+03  0.10696820748E+04  0.13127027992E+04  0.00000000000E+00 0.  1.
        -13    1    3    3    0    0 -0.81507551326E+01  0.64374415545E+03  0.10302222752E+04  0.12148378117E+04  0.00000000000E+00 0. -1.
         22    1    1    2    0    0 -0.34650681646E+02 -0.14034394462E+04 -0.92588546224E+03  0.16816976060E+04  0.00000000000E+00 0.  1.
<mgrwt>
<rscale>  0 0.40421982E+04</rscale>
<asrwt>0</asrwt>
<pdfrwt beam="1">  1        2 0.41409670E+00 0.40421982E+04</pdfrwt>
<pdfrwt beam="2">  1       -2 0.23347841E+00 0.40421982E+04</pdfrwt>
<totfact> 0.17172114E-01</totfact>
</mgrwt>
</event>
<event>
 6    1  0.1568961E-005  0.1977221E+04  0.7818608E-02  0.8617345E-01
          1   -1    0    0  501    0  0.00000000000E+00  0.00000000000E+00  0.24945464674E+04  0.24945464674E+04  0.00000000000E+00 0. -1.
         -1   -1    0    0    0  501 -0.00000000000E+00 -0.00000000000E+00 -0.39179498730E+03  0.39179498730E+03  0.00000000000E+00 0.  1.
         23    2    1    2    0    0  0.18138981118E+03  0.93106959797E+03  0.14494196678E+04  0.17345448942E+04  0.89642382158E+02 0.  0.
         13    1    3    3    0    0  0.17467736158E+03  0.72270824140E+03  0.11609597439E+04  0.13786395140E+04  0.00000000000E+00 0. -1.
        -13    1    3    3    0    0  0.67124496053E+01  0.20836135657E+03  0.28845992395E+03  0.35590538015E+03  0.00000000000E+00 0.  1.
         22    1    1    2    0    0 -0.18138981118E+03 -0.93106959797E+03  0.65333181231E+03  0.11517965605E+04  0.00000000000E+00 0.  1.
<mgrwt>
<rscale>  0 0.19772211E+04</rscale>
<asrwt>0</asrwt>
<pdfrwt beam="1">  1        1 0.38377637E+00 0.19772211E+04</pdfrwt>
<pdfrwt beam="2">  1       -1 0.60276154E-01 0.19772211E+04</pdfrwt>
<totfact> 0.35470218E+00</totfact>
</mgrwt>
</event>
<event>
 6    1  0.1568961E-005  0.2106498E+04  0.7818608E-02  0.8558386E-01
          1   -1    0    0  501    0  0.00000000000E+00  0.00000000000E+00  0.17116007934E+04  0.17116007934E+04  0.00000000000E+00 0. -1.
         -1   -1    0    0    0  501 -0.00000000000E+00 -0.00000000000E+00 -0.64812653360E+03  0.64812653360E+03  0.00000000000E+00 0.  1.
         23    2    1    2    0    0  0.11984827106E+03 -0.96547426402E+03  0.87380506957E+02  0.98158975153E+03  0.96844848880E+02 0.  0.
         11    1    3    3    0    0  0.58075366747E+02 -0.31567789975E+03  0.70599462058E+02  0.32864809243E+03  0.00000000000E+00 0.  1.
        -11    1    3    3    0    0  0.61772904310E+02 -0.64979636426E+03  0.16781044899E+02  0.65294165910E+03  0.00000000000E+00 0. -1.
         22    1    1    2    0    0 -0.11984827106E+03  0.96547426402E+03  0.97609375281E+03  0.13781375754E+04  0.00000000000E+00 0. -1.
<mgrwt>
<rscale>  0 0.21064984E+04</rscale>
<asrwt>0</asrwt>
<pdfrwt beam="1">  1        1 0.26332320E+00 0.21064984E+04</pdfrwt>
<pdfrwt beam="2">  1       -1 0.99711775E-01 0.21064984E+04</pdfrwt>
<totfact> 0.41266809E+00</totfact>
</mgrwt>
</event>
<event>
 6    1  0.1568961E-005  0.3219529E+04  0.7818608E-02  0.8183679E-01
         -1   -1    0    0    0  501 -0.00000000000E+00  0.00000000000E+00  0.88174676791E+03  0.88174676791E+03  0.00000000000E+00 0.  1.
          1   -1    0    0  501    0  0.00000000000E+00 -0.00000000000E+00 -0.29388724285E+04  0.29388724285E+04  0.00000000000E+00 0. -1.
         23    2    1    2    0    0 -0.86112059831E+01  0.63128645319E+03 -0.27849700332E+04  0.28571078215E+04  0.91707573501E+02 0.  0.
         11    1    3    3    0    0 -0.42243603860E+01  0.14921598258E+03 -0.84849735418E+03  0.86152830175E+03  0.00000000000E+00 0. -1.
        -11    1    3    3    0    0 -0.43868455970E+01  0.48207047061E+03 -0.19364726790E+04  0.19955795198E+04  0.00000000000E+00 0.  1.
         22    1    1    2    0    0  0.86112059831E+01 -0.63128645319E+03  0.72784437260E+03  0.96351137491E+03  0.00000000000E+00 0.  1.
<mgrwt>
<rscale>  0 0.32195287E+04</rscale>
<asrwt>0</asrwt>
<pdfrwt beam="1">  1        1 0.45213422E+00 0.32195287E+04</pdfrwt>
<pdfrwt beam="2">  1       -1 0.13565335E+00 0.32195287E+04</pdfrwt>
<totfact> 0.25145026E-01</totfact>
</mgrwt>
</event>
<event>
 6    1  0.1568961E-005  0.3758277E+04  0.7818608E-02  0.8055168E-01
          2   -1    0    0  501    0  0.00000000000E+00  0.00000000000E+00  0.25579105301E+04  0.25579105301E+04  0.00000000000E+00 0. -1.
         -2   -1    0    0    0  501 -0.00000000000E+00 -0.00000000000E+00 -0.13804867294E+04  0.13804867294E+04  0.00000000000E+00 0.  1.
         23    2    1    2    0    0 -0.13054152284E+04  0.27947145372E+02 -0.82508525290E+03  0.15478047657E+04  0.10021954236E+03 0.  0.
         13    1    3    3    0    0 -0.10607061904E+04  0.61786717600E+02 -0.67212276071E+03  0.12572446963E+04  0.00000000000E+00 0. -1.
        -13    1    3    3    0    0 -0.24470903797E+03 -0.33839572228E+02 -0.15296249220E+03  0.29056006940E+03  0.00000000000E+00 0.  1.
         22    1    1    2    0    0  0.13054152284E+04 -0.27947145372E+02  0.20025090536E+04  0.23905924938E+04  0.00000000000E+00 0. -1.
<mgrwt>
<rscale>  0 0.37582770E+04</rscale>
<asrwt>0</asrwt>
<pdfrwt beam="1">  1        2 0.39352470E+00 0.37582770E+04</pdfrwt>
<pdfrwt beam="2">  1       -2 0.21238257E+00 0.37582770E+04</pdfrwt>
<totfact> 0.28643731E-01</totfact>
</mgrwt>
</event>
<event>
 6    1  0.1568961E-005  0.1664332E+04  0.7818608E-02  0.8781973E-01
         -1   -1    0    0    0  501 -0.00000000000E+00  0.00000000000E+00  0.39104299145E+03  0.39104299145E+03  0.00000000000E+00 0.  1.
          1   -1    0    0  501    0  0.00000000000E+00 -0.00000000000E+00 -0.17709047693E+04  0.17709047693E+04  0.00000000000E+00 0. -1.
         23    2    1    2    0    0  0.52875376237E+03  0.63739624595E+03 -0.75588925633E+03  0.11250310702E+04  0.92042519895E+02 0.  0.
         13    1    3    3    0    0  0.30969214834E+03  0.35286529782E+03 -0.36873052966E+03  0.59698019118E+03  0.00000000000E+00 0.  1.
        -13    1    3    3    0    0  0.21906161403E+03  0.28453094812E+03 -0.38715872667E+03  0.52805087901E+03  0.00000000000E+00 0. -1.
         22    1    1    2    0    0 -0.52875376237E+03 -0.63739624595E+03 -0.62397252152E+03  0.10369166906E+04  0.00000000000E+00 0.  1.
<mgrwt>
<rscale>  0 0.16643316E+04</rscale>
<asrwt>0</asrwt>
<pdfrwt beam="1">  1        1 0.27244689E+00 0.16643316E+04</pdfrwt>
<pdfrwt beam="2">  1       -1 0.60160459E-01 0.16643316E+04</pdfrwt>
<totfact> 0.11402559E+01</totfact>
</mgrwt>
</event>
<event>
 6    1  0.1568961E-005  0.1532744E+04  0.7818608E-02  0.8862966E-01
         -2   -1    0    0    0  501 -0.00000000000E+00  0.00000000000E+00  0.27188817143E+03  0.27188817143E+03  0.00000000000E+00 0.  1.
          2   -1    0    0  501    0  0.00000000000E+00 -0.00000000000E+00 -0.21601741516E+04  0.21601741516E+04  0.00000000000E+00 0. -1.
         23    2    1    2    0    0  0.75852196197E+03  0.86017139787E+02 -0.96306728354E+03  0.12325690335E+04  0.94727580502E+02 0.  0.
         13    1    3    3    0    0  0.14073297389E+03  0.90404290395E+01 -0.24044521734E+03  0.27874971182E+03  0.00000000000E+00 0.  1.
        -13    1    3    3    0    0  0.61778898808E+03  0.76976710748E+02 -0.72262206620E+03  0.95381932165E+03  0.00000000000E+00 0. -1.
         22    1    1    2    0    0 -0.75852196197E+03 -0.86017139787E+02 -0.92521869661E+03  0.11994932896E+04  0.00000000000E+00 0. -1.
<mgrwt>
<rscale>  0 0.15327437E+04</rscale>
<asrwt>0</asrwt>
<pdfrwt beam="1">  1        2 0.33233449E+00 0.15327437E+04</pdfrwt>
<pdfrwt beam="2">  1       -2 0.41828949E-01 0.15327437E+04</pdfrwt>
<totfact> 0.28404483E+01</totfact>
</mgrwt>
</event>
<event>
 6    1  0.1568961E-005  0.1537844E+04  0.7818608E-02  0.8859670E-01
         -2   -1    0    0    0  501 -0.00000000000E+00  0.00000000000E+00  0.60936253317E+03  0.60936253317E+03  0.00000000000E+00 0.  1.
          2   -1    0    0  501    0  0.00000000000E+00 -0.00000000000E+00 -0.97026119786E+03  0.97026119786E+03  0.00000000000E+00 0. -1.
         23    2    1    2    0    0  0.33675192433E+03  0.33965701897E+03 -0.79594349988E+03  0.93306920301E+03  0.91232305212E+02 0.  0.
         13    1    3    3    0    0  0.20226795176E+03  0.21393091900E+03 -0.57065509944E+03  0.64212615967E+03  0.00000000000E+00 0. -1.
        -13    1    3    3    0    0  0.13448397257E+03  0.12572609997E+03 -0.22528840044E+03  0.29094304334E+03  0.00000000000E+00 0.  1.
         22    1    1    2    0    0 -0.33675192433E+03 -0.33965701897E+03  0.43504483519E+03  0.64655452802E+03  0.00000000000E+00 0.  1.
<mgrwt>
<rscale>  0 0.15378437E+04</rscale>
<asrwt>0</asrwt>
<pdfrwt beam="1">  1        2 0.14927095E+00 0.15378437E+04</pdfrwt>
<pdfrwt beam="2">  1       -2 0.93748082E-01 0.15378437E+04</pdfrwt>
<totfact> 0.24394003E+01</totfact>
</mgrwt>
</event>
<event>
 6    1  0.1568961E-005  0.2660540E+04  0.7818608E-02  0.8347923E-01
          2   -1    0    0  501    0  0.00000000000E+00  0.00000000000E+00  0.28441715416E+04  0.28441715416E+04  0.00000000000E+00 0.  1.
         -2   -1    0    0    0  501 -0.00000000000E+00 -0.00000000000E+00 -0.62219106767E+03  0.62219106767E+03  0.00000000000E+00 0. -1.
         23    2    1    2    0    0  0.10036072444E+04 -0.46300149846E+02  0.22452692017E+04  0.24614180487E+04  0.89296236094E+02 0.  0.
         11    1    3    3    0    0  0.22013357778E+03  0.11720181021E+02  0.56791898487E+03  0.60920286284E+03  0.00000000000E+00 0.  1.
        -11    1    3    3    0    0  0.78347366664E+03 -0.58020330868E+02  0.16773502168E+04  0.18522151859E+04  0.00000000000E+00 0. -1.
         22    1    1    2    0    0 -0.10036072444E+04  0.46300149846E+02 -0.23288727719E+02  0.10049445605E+04  0.00000000000E+00 0. -1.
<mgrwt>
<rscale>  0 0.26605399E+04</rscale>
<asrwt>0</asrwt>
<pdfrwt beam="1">  1        2 0.43756485E+00 0.26605399E+04</pdfrwt>
<pdfrwt beam="2">  1       -2 0.95721704E-01 0.26605399E+04</pdfrwt>
<totfact> 0.17513789E+00</totfact>
</mgrwt>
</event>
<event>
 6    1  0.1568961E-005  0.2626466E+04  0.7818608E-02  0.8359266E-01
         -1   -1    0    0    0  501 -0.00000000000E+00  0.00000000000E+00  0.20348182289E+04  0.20348182289E+04  0.00000000000E+00 0.  1.
          1   -1    0    0  501    0  0.00000000000E+00 -0.00000000000E+00 -0.84753566223E+03  0.84753566223E+03  0.00000000000E+00 0. -1.
         23    2    1    2    0    0  0.54766854120E+01  0.10879435808E+04  0.13984523267E+04  0.17740922359E+04  0.89906185457E+02 0.  0.
         11    1    3    3    0    0 -0.29524987294E+01  0.11179340416E+03  0.19169661081E+03  0.22193258674E+03  0.00000000000E+00 0.  1.
        -11    1    3    3    0    0  0.84291841414E+01  0.97615017665E+03  0.12067557159E+04  0.15521596491E+04  0.00000000000E+00 0. -1.
         22    1    1    2    0    0 -0.54766854120E+01 -0.10879435808E+04 -0.21116975999E+03  0.11082616553E+04  0.00000000000E+00 0. -1.
<mgrwt>
<rscale>  0 0.26264661E+04</rscale>
<asrwt>0</asrwt>
<pdfrwt beam="1">  1        1 0.13039010E+00 0.26264661E+04</pdfrwt>
<pdfrwt beam="2">  1       -1 0.31304896E+00 0.26264661E+04</pdfrwt>
<totfact> 0.48042075E-01</totfact>
</mgrwt>
</event>
<event>
 6    1  0.1568961E-005  0.1476510E+04  0.7818608E-02  0.8900225E-01
         -1   -1    0    0    0  501 -0.00000000000E+00  0.00000000000E+00  0.79031604281E+03  0.79031604281E+03  0.00000000000E+00 0. -1.
          1   -1    0    0  501    0  0.00000000000E+00 -0.00000000000E+00 -0.68962358920E+03  0.68962358920E+03  0.00000000000E+00 0.  1.
         23    2    1    2    0    0 -0.28460069341E+03 -0.49933362246E+03  0.51029844347E+03  0.77417147735E+03  0.92765045850E+02 0.  0.
         13    1    3    3    0    0 -0.20260057899E+03 -0.36014229828E+03  0.41957325485E+03  0.58888979088E+03  0.00000000000E+00 0. -1.
        -13    1    3    3    0    0 -0.82000114422E+02 -0.13919132418E+03  0.90725188612E+02  0.18528168647E+03  0.00000000000E+00 0.  1.
         22    1    1    2    0    0  0.28460069341E+03  0.49933362246E+03 -0.40960598985E+03  0.70576815466E+03  0.00000000000E+00 0. -1.
<mgrwt>
<rscale>  0 0.14765102E+04</rscale>
<asrwt>0</asrwt>
<pdfrwt beam="1">  1        1 0.10609594E+00 0.14765102E+04</pdfrwt>
<pdfrwt beam="2">  1       -1 0.12158708E+00 0.14765102E+04</pdfrwt>
<totfact> 0.16194903E+01</totfact>
</mgrwt>
</event>
<event>
 6    1  0.1568961E-005  0.2005423E+04  0.7818608E-02  0.8604089E-01
          2   -1    0    0  501    0  0.00000000000E+00  0.00000000000E+00  0.18977779311E+04  0.18977779311E+04  0.00000000000E+00 0. -1.
         -2   -1    0    0    0  501 -0.00000000000E+00 -0.00000000000E+00 -0.52979353648E+03  0.52979353648E+03  0.00000000000E+00 0.  1.
         23    2    1    2    0    0 -0.69039612949E+03 -0.13373192660E+03 -0.17642056505E+03  0.73059836135E+03  0.90103862405E+02 0.  0.
         11    1    3    3    0    0 -0.42739946183E+03 -0.11751036193E+03 -0.13846046280E+03  0.46438161558E+03  0.00000000000E+00 0. -1.
        -11    1    3    3    0    0 -0.26299666766E+03 -0.16221564668E+02 -0.37960102253E+02  0.26621674576E+03  0.00000000000E+00 0.  1.
         22    1    1    2    0    0  0.69039612949E+03  0.13373192660E+03  0.15444049596E+04  0.16969731062E+04  0.00000000000E+00 0. -1.
<mgrwt>
<rscale>  0 0.20054231E+04</rscale>
<asrwt>0</asrwt>
<pdfrwt beam="1">  1        2 0.29196583E+00 0.20054231E+04</pdfrwt>
<pdfrwt beam="2">  1       -2 0.81506699E-01 0.20054231E+04</pdfrwt>
<totfact> 0.93715943E+00</totfact>
</mgrwt>
</event>
<event>
 6    1  0.1568961E-005  0.1420370E+04  0.7818608E-02  0.8939205E-01
         -1   -1    0    0    0  501 -0.00000000000E+00  0.00000000000E+00  0.68884419799E+03  0.68884419799E+03  0.00000000000E+00 0.  1.
          1   -1    0    0  501    0  0.00000000000E+00 -0.00000000000E+00 -0.73218657788E+03  0.73218657788E+03  0.00000000000E+00 0. -1.
         23    2    1    2    0    0 -0.25036540388E+03 -0.47720322288E+03  0.43633594921E+03  0.69957596038E+03  0.92799312449E+02 0.  0.
         13    1    3    3    0    0 -0.17129170262E+03 -0.23686245665E+03  0.20796842452E+03  0.35874160109E+03  0.00000000000E+00 0. -1.
        -13    1    3    3    0    0 -0.79073701261E+02 -0.24034076622E+03  0.22836752469E+03  0.34083435929E+03  0.00000000000E+00 0.  1.
         22    1    1    2    0    0  0.25036540388E+03  0.47720322288E+03 -0.47967832910E+03  0.72145481549E+03  0.00000000000E+00 0. -1.
<mgrwt>
<rscale>  0 0.14203696E+04</rscale>
<asrwt>0</asrwt>
<pdfrwt beam="1">  1        1 0.11264409E+00 0.14203696E+04</pdfrwt>
<pdfrwt beam="2">  1       -1 0.10597603E+00 0.14203696E+04</pdfrwt>
<totfact> 0.20631362E+01</totfact>
</mgrwt>
</event>
<event>
 6    1  0.1568961E-005  0.3442403E+04  0.7818608E-02  0.8127577E-01
          2   -1    0    0  501    0  0.00000000000E+00  0.00000000000E+00  0.33919661918E+04  0.33919661918E+04  0.00000000000E+00 0. -1.
         -2   -1    0    0    0  501 -0.00000000000E+00 -0.00000000000E+00 -0.87339740438E+03  0.87339740438E+03  0.00000000000E+00 0.  1.
         23    2    1    2    0    0  0.13263750142E+04 -0.74565969655E+03  0.22537879849E+04  0.27208934817E+04  0.91771437771E+02 0.  0.
         11    1    3    3    0    0  0.61393735967E+03 -0.31840698337E+03  0.10943302932E+04  0.12945504545E+04  0.00000000000E+00 0.  1.
        -11    1    3    3    0    0  0.71243765450E+03 -0.42725271318E+03  0.11594576917E+04  0.14263430272E+04  0.00000000000E+00 0. -1.
         22    1    1    2    0    0 -0.13263750142E+04  0.74565969655E+03  0.26478080261E+03  0.15444701145E+04  0.00000000000E+00 0.  1.
<mgrwt>
<rscale>  0 0.34424029E+04</rscale>
<asrwt>0</asrwt>
<pdfrwt beam="1">  1        2 0.52184095E+00 0.34424029E+04</pdfrwt>
<pdfrwt beam="2">  1       -2 0.13436883E+00 0.34424029E+04</pdfrwt>
<totfact> 0.31782875E-01</totfact>
</mgrwt>
</event>
<event>
 6    1  0.1568961E-005  0.3294634E+04  0.7818608E-02  0.8164262E-01
          2   -1    0    0  501    0  0.00000000000E+00  0.00000000000E+00  0.30193485191E+04  0.30193485191E+04  0.00000000000E+00 0. -1.
         -2   -1    0    0    0  501 -0.00000000000E+00 -0.00000000000E+00 -0.89875439312E+03  0.89875439312E+03  0.00000000000E+00 0.  1.
         23    2    1    2    0    0  0.27120161727E+03  0.15969656336E+04  0.71372812021E+03  0.17726142709E+04  0.94360858958E+02 0.  0.
         11    1    3    3    0    0  0.70263816114E+01  0.20114777489E+03  0.10608702296E+03  0.22751759014E+03  0.00000000000E+00 0. -1.
        -11    1    3    3    0    0  0.26417523566E+03  0.13958178587E+04  0.60764109726E+03  0.15450966807E+04  0.00000000000E+00 0.  1.
         22    1    1    2    0    0 -0.27120161727E+03 -0.15969656336E+04  0.14068660058E+04  0.21454886414E+04  0.00000000000E+00 0.  1.
<mgrwt>
<rscale>  0 0.32946337E+04</rscale>
<asrwt>0</asrwt>
<pdfrwt beam="1">  1        2 0.46451515E+00 0.32946337E+04</pdfrwt>
<pdfrwt beam="2">  1       -2 0.13826991E+00 0.32946337E+04</pdfrwt>
<totfact> 0.52437838E-01</totfact>
</mgrwt>
</event>
<event>
 6    1  0.1568961E-005  0.1318938E+04  0.7818608E-02  0.9014681E-01
          1   -1    0    0  501    0  0.00000000000E+00  0.00000000000E+00  0.21222161408E+04  0.21222161408E+04  0.00000000000E+00 0. -1.
         -1   -1    0    0    0  501 -0.00000000000E+00 -0.00000000000E+00 -0.20492686348E+03  0.20492686348E+03  0.00000000000E+00 0.  1.
         23    2    1    2    0    0 -0.26469548270E+03  0.26385688043E+03  0.19151083529E+04  0.19533932105E+04  0.91765352140E+02 0.  0.
         13    1    3    3    0    0 -0.23440959357E+03  0.19337084107E+03  0.13996446939E+04  0.14322518665E+04  0.00000000000E+00 0. -1.
        -13    1    3    3    0    0 -0.30285889130E+02  0.70486039351E+02  0.51546365890E+03  0.52114134404E+03  0.00000000000E+00 0.  1.
         22    1    1    2    0    0  0.26469548270E+03 -0.26385688043E+03  0.21809244815E+01  0.37374979377E+03  0.00000000000E+00 0.  1.
<mgrwt>
<rscale>  0 0.13189376E+04</rscale>
<asrwt>0</asrwt>
<pdfrwt beam="1">  1        1 0.32649478E+00 0.13189376E+04</pdfrwt>
<pdfrwt beam="2">  1       -1 0.31527211E-01 0.13189376E+04</pdfrwt>
<totfact> 0.22615890E+01</totfact>
</mgrwt>
</event>
<event>
 6    1  0.1568961E-005  0.3401891E+04  0.7818608E-02  0.8137442E-01
          2   -1    0    0  501    0  0.00000000000E+00  0.00000000000E+00  0.21818875603E+04  0.21818875603E+04  0.00000000000E+00 0.  1.
         -2   -1    0    0    0  501 -0.00000000000E+00 -0.00000000000E+00 -0.13260152483E+04  0.13260152483E+04  0.00000000000E+00 0. -1.
         23    2    1    2    0    0  0.27157515672E+03 -0.16591147658E+04  0.68863552804E+03  0.18184108690E+04  0.77358427166E+02 0.  0.
         13    1    3    3    0    0  0.50973177266E+02 -0.25637134514E+03  0.78760635848E+02  0.27299774573E+03  0.00000000000E+00 0.  1.
        -13    1    3    3    0    0  0.22060197945E+03 -0.14027434207E+04  0.60987489219E+03  0.15454131233E+04  0.00000000000E+00 0. -1.
         22    1    1    2    0    0 -0.27157515672E+03  0.16591147658E+04  0.16723678392E+03  0.16894919396E+04  0.00000000000E+00 0. -1.
<mgrwt>
<rscale>  0 0.34018913E+04</rscale>
<asrwt>0</asrwt>
<pdfrwt beam="1">  1        2 0.33567501E+00 0.34018913E+04</pdfrwt>
<pdfrwt beam="2">  1       -2 0.20400235E+00 0.34018913E+04</pdfrwt>
<totfact> 0.54831597E-01</totfact>
</mgrwt>
</event>
<event>
 6    1  0.1568961E-005  0.3176663E+03  0.7818608E-02  0.1076728E+00
          1   -1    0    0  501    0  0.00000000000E+00  0.00000000000E+00  0.11222591589E+04  0.11222591589E+04  0.00000000000E+00 0. -1.
         -1   -1    0    0    0  501 -0.00000000000E+00 -0.00000000000E+00 -0.22479624489E+02  0.22479624489E+02  0.00000000000E+00 0.  1.
         23    2    1    2    0    0 -0.12438347014E+03 -0.66521605112E+02  0.47581268721E+03  0.50502713116E+03  0.93585887343E+02 0.  0.
         11    1    3    3    0    0 -0.53911869425E+02  0.31447748604E+01  0.76751492201E+02  0.93846528060E+02  0.00000000000E+00 0. -1.
        -11    1    3    3    0    0 -0.70471600711E+02 -0.69666379972E+02  0.39906119501E+03  0.41118060310E+03  0.00000000000E+00 0.  1.
         22    1    1    2    0    0  0.12438347014E+03  0.66521605112E+02  0.62396684723E+03  0.63971165226E+03  0.00000000000E+00 0. -1.
<mgrwt>
<rscale>  0 0.31766627E+03</rscale>
<asrwt>0</asrwt>
<pdfrwt beam="1">  1        1 0.17265521E+00 0.31766627E+03</pdfrwt>
<pdfrwt beam="2">  1       -1 0.34584046E-02 0.31766627E+03</pdfrwt>
<totfact> 0.39805674E+03</totfact>
</mgrwt>
</event>
<event>
 6    1  0.1568961E-005  0.2994173E+04  0.7818608E-02  0.8245397E-01
          2   -1    0    0  501    0  0.00000000000E+00  0.00000000000E+00  0.22408073634E+04  0.22408073634E+04  0.00000000000E+00 0. -1.
         -2   -1    0    0    0  501 -0.00000000000E+00 -0.00000000000E+00 -0.10002056747E+04  0.10002056747E+04  0.00000000000E+00 0.  1.
         23    2    1    2    0    0  0.31145698290E+03  0.22382027109E+03 -0.94420774355E+03  0.10227945590E+04  0.86483993318E+02 0.  0.
         13    1    3    3    0    0  0.22991415943E+03  0.18148321805E+03 -0.61810914224E+03  0.68399970093E+03  0.00000000000E+00 0.  1.
        -13    1    3    3    0    0  0.81542823463E+02  0.42337053038E+02 -0.32609860130E+03  0.33879485812E+03  0.00000000000E+00 0. -1.
         22    1    1    2    0    0 -0.31145698290E+03 -0.22382027109E+03  0.21848094322E+04  0.22182184791E+04  0.00000000000E+00 0. -1.
<mgrwt>
<rscale>  0 0.29941732E+04</rscale>
<asrwt>0</asrwt>
<pdfrwt beam="1">  1        2 0.34473959E+00 0.29941732E+04</pdfrwt>
<pdfrwt beam="2">  1       -2 0.15387780E+00 0.29941732E+04</pdfrwt>
<totfact> 0.11739962E+00</totfact>
</mgrwt>
</event>
<event>
 6    1  0.1568961E-005  0.1194274E+04  0.7818608E-02  0.9117883E-01
          1   -1    0    0  501    0  0.00000000000E+00  0.00000000000E+00  0.22228900452E+04  0.22228900452E+04  0.00000000000E+00 0. -1.
         -1   -1    0    0    0  501 -0.00000000000E+00 -0.00000000000E+00 -0.16040950945E+03  0.16040950945E+03  0.00000000000E+00 0.  1.
         23    2    1    2    0    0 -0.23420682550E+02  0.55880475491E+03  0.14323729096E+04  0.15407754286E+04  0.97393463167E+02 0.  0.
         11    1    3    3    0    0  0.11534471364E+02  0.40381361730E+03  0.93210515569E+03  0.10158831147E+04  0.00000000000E+00 0. -1.
        -11    1    3    3    0    0 -0.34955153914E+02  0.15499113761E+03  0.50026775395E+03  0.52489231388E+03  0.00000000000E+00 0.  1.
         22    1    1    2    0    0  0.23420682550E+02 -0.55880475491E+03  0.63010762614E+03  0.84252412606E+03  0.00000000000E+00 0.  1.
<mgrwt>
<rscale>  0 0.11942742E+04</rscale>
<asrwt>0</asrwt>
<pdfrwt beam="1">  1        1 0.34198306E+00 0.11942742E+04</pdfrwt>
<pdfrwt beam="2">  1       -1 0.24678388E-01 0.11942742E+04</pdfrwt>
<totfact> 0.29910995E+01</totfact>
</mgrwt>
</event>
<event>
 6    1  0.1568961E-005  0.1891823E+04  0.7818608E-02  0.8658937E-01
          1   -1    0    0  501    0  0.00000000000E+00  0.00000000000E+00  0.19919835648E+04  0.19919835648E+04  0.00000000000E+00 0. -1.
         -1   -1    0    0    0  501 -0.00000000000E+00 -0.00000000000E+00 -0.44917460130E+03  0.44917460130E+03  0.00000000000E+00 0.  1.
         23    2    1    2    0    0  0.79601332753E+03 -0.49521654854E+03  0.63266723299E+03  0.11345462814E+04  0.89726191563E+02 0.  0.
         13    1    3    3    0    0  0.45180280184E+03 -0.23209987514E+03  0.36121872989E+03  0.62327770265E+03  0.00000000000E+00 0. -1.
        -13    1    3    3    0    0  0.34421052569E+03 -0.26311667340E+03  0.27144850309E+03  0.51126857878E+03  0.00000000000E+00 0.  1.
         22    1    1    2    0    0 -0.79601332753E+03  0.49521654854E+03  0.91014173049E+03  0.13066118847E+04  0.00000000000E+00 0. -1.
<mgrwt>
<rscale>  0 0.18918228E+04</rscale>
<asrwt>0</asrwt>
<pdfrwt beam="1">  1        1 0.30645901E+00 0.18918228E+04</pdfrwt>
<pdfrwt beam="2">  1       -1 0.69103786E-01 0.18918228E+04</pdfrwt>
<totfact> 0.59855376E+00</totfact>
</mgrwt>
</event>
<event>
 6    1  0.1568961E-005  0.1904092E+04  0.7818608E-02  0.8652822E-01
          2   -1    0    0  501    0  0.00000000000E+00  0.00000000000E+00  0.88277398832E+03  0.88277398832E+03  0.00000000000E+00 0. -1.
         -2   -1    0    0    0  501 -0.00000000000E+00 -0.00000000000E+00 -0.10267533978E+04  0.10267533978E+04  0.00000000000E+00 0.  1.
         23    2    1    2    0    0 -0.89322594306E+02  0.79563444181E+03 -0.58477406770E+03  0.99557299913E+03  0.90510747997E+02 0.  0.
         13    1    3    3    0    0 -0.65586805280E+02  0.22272197311E+03 -0.15987262510E+03  0.28189707801E+03  0.00000000000E+00 0. -1.
        -13    1    3    3    0    0 -0.23735789026E+02  0.57291246870E+03 -0.42490144260E+03  0.71367592113E+03  0.00000000000E+00 0.  1.
         22    1    1    2    0    0  0.89322594306E+02 -0.79563444181E+03  0.44079465820E+03  0.91395438701E+03  0.00000000000E+00 0. -1.
<mgrwt>
<rscale>  0 0.19040916E+04</rscale>
<asrwt>0</asrwt>
<pdfrwt beam="1">  1        2 0.13581138E+00 0.19040916E+04</pdfrwt>
<pdfrwt beam="2">  1       -2 0.15796206E+00 0.19040916E+04</pdfrwt>
<totfact> 0.73542271E+00</totfact>
</mgrwt>
</event>
<event>
 6    1  0.1568961E-005  0.3122735E+04  0.7818608E-02  0.8209526E-01
         -1   -1    0    0    0  501 -0.00000000000E+00  0.00000000000E+00  0.16760451510E+04  0.16760451510E+04  0.00000000000E+00 0.  1.
          1   -1    0    0  501    0  0.00000000000E+00 -0.00000000000E+00 -0.14545359055E+04  0.14545359055E+04  0.00000000000E+00 0. -1.
         23    2    1    2    0    0 -0.14846786414E+04  0.37301707243E+03  0.41203185848E+03  0.15879497750E+04  0.91661501957E+02 0.  0.
         11    1    3    3    0    0 -0.49981151066E+03  0.10465860049E+03  0.98066969178E+02  0.51998278749E+03  0.00000000000E+00 0.  1.
        -11    1    3    3    0    0 -0.98486713072E+03  0.26835847194E+03  0.31396488930E+03  0.10679669875E+04  0.00000000000E+00 0. -1.
         22    1    1    2    0    0  0.14846786414E+04 -0.37301707243E+03 -0.19052261300E+03  0.15426312815E+04  0.00000000000E+00 0. -1.
<mgrwt>
<rscale>  0 0.31227346E+04</rscale>
<asrwt>0</asrwt>
<pdfrwt beam="1">  1        1 0.22377476E+00 0.31227346E+04</pdfrwt>
<pdfrwt beam="2">  1       -1 0.25785310E+00 0.31227346E+04</pdfrwt>
<totfact> 0.36715702E-01</totfact>
</mgrwt>
</event>
<event>
 6    1  0.1568961E-005  0.2620445E+04  0.7818608E-02  0.8361289E-01
          1   -1    0    0  501    0  0.00000000000E+00  0.00000000000E+00  0.17950847607E+04  0.17950847607E+04  0.00000000000E+00 0. -1.
         -1   -1    0    0    0  501 -0.00000000000E+00 -0.00000000000E+00 -0.95632452333E+03  0.95632452333E+03  0.00000000000E+00 0.  1.
         23    2    1    2    0    0 -0.11263864421E+04 -0.72914503012E+02 -0.27535879223E+03  0.11654319343E+04  0.91357470813E+02 0.  0.
         13    1    3    3    0    0 -0.87323107275E+03 -0.88610137635E+02 -0.19226745025E+03  0.89852714780E+03  0.00000000000E+00 0. -1.
        -13    1    3    3    0    0 -0.25315536931E+03  0.15695634623E+02 -0.83091341974E+02  0.26690478652E+03  0.00000000000E+00 0.  1.
         22    1    1    2    0    0  0.11263864421E+04  0.72914503012E+02  0.11141190296E+04  0.15859773497E+04  0.00000000000E+00 0. -1.
<mgrwt>
<rscale>  0 0.26204454E+04</rscale>
<asrwt>0</asrwt>
<pdfrwt beam="1">  1        1 0.27616689E+00 0.26204454E+04</pdfrwt>
<pdfrwt beam="2">  1       -1 0.14712685E+00 0.26204454E+04</pdfrwt>
<totfact> 0.13265055E+00</totfact>
</mgrwt>
</event>
<event>
 6    1  0.1568961E-005  0.3152502E+04  0.7818608E-02  0.8201475E-01
          2   -1    0    0  501    0  0.00000000000E+00  0.00000000000E+00  0.15687453604E+04  0.15687453604E+04  0.00000000000E+00 0.  1.
         -2   -1    0    0    0  501 -0.00000000000E+00 -0.00000000000E+00 -0.15837920704E+04  0.15837920704E+04  0.00000000000E+00 0. -1.
         23    2    1    2    0    0  0.12036242091E+04  0.24687341261E+02  0.10079562807E+04  0.15727096489E+04  0.90105905992E+02 0.  0.
         11    1    3    3    0    0  0.13030105423E+03  0.16965019082E+02  0.14315410639E+03  0.19431745877E+03  0.00000000000E+00 0. -1.
        -11    1    3    3    0    0  0.10733231549E+04  0.77223221788E+01  0.86480217432E+03  0.13783921901E+04  0.00000000000E+00 0.  1.
         22    1    1    2    0    0 -0.12036242091E+04 -0.24687341261E+02 -0.10230029907E+04  0.15798277819E+04  0.00000000000E+00 0. -1.
<mgrwt>
<rscale>  0 0.31525015E+04</rscale>
<asrwt>0</asrwt>
<pdfrwt beam="1">  1        2 0.24134544E+00 0.31525015E+04</pdfrwt>
<pdfrwt beam="2">  1       -2 0.24366032E+00 0.31525015E+04</pdfrwt>
<totfact> 0.69018623E-01</totfact>
</mgrwt>
</event>
<event>
 6    1  0.1568961E-005  0.2650517E+04  0.7818608E-02  0.8351241E-01
         -2   -1    0    0    0  501 -0.00000000000E+00  0.00000000000E+00  0.67609063425E+03  0.67609063425E+03  0.00000000000E+00 0.  1.
          2   -1    0    0  501    0  0.00000000000E+00 -0.00000000000E+00 -0.25977438438E+04  0.25977438438E+04  0.00000000000E+00 0. -1.
         23    2    1    2    0    0  0.10320844483E+04  0.79925084701E+03 -0.69208403503E+03  0.14805579852E+04  0.95243955482E+02 0.  0.
         11    1    3    3    0    0  0.68005426892E+03  0.49271027678E+03 -0.48626088453E+03  0.97040552005E+03  0.00000000000E+00 0. -1.
        -11    1    3    3    0    0  0.35203017940E+03  0.30654057023E+03 -0.20582315050E+03  0.51015246514E+03  0.00000000000E+00 0.  1.
         22    1    1    2    0    0 -0.10320844483E+04 -0.79925084701E+03 -0.12295691745E+04  0.17932764928E+04  0.00000000000E+00 0. -1.
<mgrwt>
<rscale>  0 0.26505171E+04</rscale>
<asrwt>0</asrwt>
<pdfrwt beam="1">  1        2 0.39965289E+00 0.26505171E+04</pdfrwt>
<pdfrwt beam="2">  1       -2 0.10401395E+00 0.26505171E+04</pdfrwt>
<totfact> 0.20213288E+00</totfact>
</mgrwt>
</event>
<event>
 6    1  0.1568961E-005  0.3634882E+04  0.7818608E-02  0.8082548E-01
         -2   -1    0    0    0  501 -0.00000000000E+00  0.00000000000E+00  0.20270799937E+04  0.20270799937E+04  0.00000000000E+00 0.  1.
          2   -1    0    0  501    0  0.00000000000E+00 -0.00000000000E+00 -0.16294824867E+04  0.16294824867E+04  0.00000000000E+00 0. -1.
         23    2    1    2    0    0  0.97098256218E+02  0.84165625081E+03 -0.14172666079E+04  0.16536782922E+04  0.90520386980E+02 0.  0.
         11    1    3    3    0    0 -0.17753477420E+02  0.10926766476E+03 -0.18804364582E+03  0.21820866448E+03  0.00000000000E+00 0. -1.
        -11    1    3    3    0    0  0.11485173364E+03  0.73238858605E+03 -0.12292229620E+04  0.14354696277E+04  0.00000000000E+00 0.  1.
         22    1    1    2    0    0 -0.97098256218E+02 -0.84165625081E+03  0.18148641149E+04  0.20028841882E+04  0.00000000000E+00 0.  1.
<mgrwt>
<rscale>  0 0.36348818E+04</rscale>
<asrwt>0</asrwt>
<pdfrwt beam="1">  1        2 0.25068961E+00 0.36348818E+04</pdfrwt>
<pdfrwt beam="2">  1       -2 0.31185846E+00 0.36348818E+04</pdfrwt>
<totfact> 0.23449781E-01</totfact>
</mgrwt>
</event>
<event>
 6    1  0.1568961E-005  0.2434785E+04  0.7818608E-02  0.8426594E-01
          2   -1    0    0  501    0  0.00000000000E+00  0.00000000000E+00  0.36948381294E+04  0.36948381294E+04  0.00000000000E+00 0. -1.
         -2   -1    0    0    0  501 -0.00000000000E+00 -0.00000000000E+00 -0.40111224550E+03  0.40111224550E+03  0.00000000000E+00 0.  1.
         23    2    1    2    0    0  0.97433954808E+03 -0.72680644137E+03  0.16229748198E+04  0.20297959091E+04  0.91864078037E+02 0.  0.
         13    1    3    3    0    0  0.75248203609E+03 -0.51530692396E+03  0.12394739745E+04  0.15388522262E+04  0.00000000000E+00 0. -1.
        -13    1    3    3    0    0  0.22185751200E+03 -0.21149951741E+03  0.38350084529E+03  0.49094368296E+03  0.00000000000E+00 0.  1.
         22    1    1    2    0    0 -0.97433954808E+03  0.72680644137E+03  0.16707510640E+04  0.20661544657E+04  0.00000000000E+00 0. -1.
<mgrwt>
<rscale>  0 0.24347853E+04</rscale>
<asrwt>0</asrwt>
<pdfrwt beam="1">  1        2 0.56843661E+00 0.24347853E+04</pdfrwt>
<pdfrwt beam="2">  1       -2 0.61709579E-01 0.24347853E+04</pdfrwt>
<totfact> 0.12915969E+00</totfact>
</mgrwt>
</event>
<event>
 6    1  0.1568961E-005  0.1866342E+04  0.7818608E-02  0.8671794E-01
         -1   -1    0    0    0  501 -0.00000000000E+00  0.00000000000E+00  0.48742761003E+03  0.48742761003E+03  0.00000000000E+00 0.  1.
          1   -1    0    0  501    0  0.00000000000E+00 -0.00000000000E+00 -0.17865385902E+04  0.17865385902E+04  0.00000000000E+00 0. -1.
         23    2    1    2    0    0  0.51097337403E+03 -0.66083731184E+03 -0.15065205614E+03  0.85384027556E+03  0.92452325255E+02 0.  0.
         11    1    3    3    0    0  0.37254710646E+03 -0.42186372689E+03 -0.77332431105E+02  0.56810268042E+03  0.00000000000E+00 0. -1.
        -11    1    3    3    0    0  0.13842626758E+03 -0.23897358496E+03 -0.73319625031E+02  0.28573759514E+03  0.00000000000E+00 0.  1.
         22    1    1    2    0    0 -0.51097337403E+03  0.66083731184E+03 -0.11484589240E+04  0.14201259246E+04  0.00000000000E+00 0. -1.
<mgrwt>
<rscale>  0 0.18663421E+04</rscale>
<asrwt>0</asrwt>
<pdfrwt beam="1">  1        1 0.27485209E+00 0.18663421E+04</pdfrwt>
<pdfrwt beam="2">  1       -1 0.74988864E-01 0.18663421E+04</pdfrwt>
<totfact> 0.69817592E+00</totfact>
</mgrwt>
</event>
<event>
 6    1  0.1568961E-005  0.3056424E+04  0.7818608E-02  0.8227800E-01
          2   -1    0    0  501    0  0.00000000000E+00  0.00000000000E+00  0.20724989774E+04  0.20724989774E+04  0.00000000000E+00 0. -1.
         -2   -1    0    0    0  501 -0.00000000000E+00 -0.00000000000E+00 -0.11268677763E+04  0.11268677763E+04  0.00000000000E+00 0.  1.
         23    2    1    2    0    0 -0.72705263563E+03  0.80902705277E+03  0.15947821155E+04  0.19326674141E+04  0.93504174086E+02 0.  0.
         11    1    3    3    0    0 -0.40289685165E+03  0.48194194318E+03  0.84805619790E+03  0.10553640246E+04  0.00000000000E+00 0. -1.
        -11    1    3    3    0    0 -0.32415578398E+03  0.32708510959E+03  0.74672591760E+03  0.87730338950E+03  0.00000000000E+00 0.  1.
         22    1    1    2    0    0  0.72705263563E+03 -0.80902705277E+03 -0.64915091443E+03  0.12666993395E+04  0.00000000000E+00 0.  1.
<mgrwt>
<rscale>  0 0.30564243E+04</rscale>
<asrwt>0</asrwt>
<pdfrwt beam="1">  1        2 0.31884600E+00 0.30564243E+04</pdfrwt>
<pdfrwt beam="2">  1       -2 0.17336427E+00 0.30564243E+04</pdfrwt>
<totfact> 0.10465769E+00</totfact>
</mgrwt>
</event>
<event>
 6    1  0.1568961E-005  0.1425192E+04  0.7818608E-02  0.8935783E-01
          1   -1    0    0  501    0  0.00000000000E+00  0.00000000000E+00  0.81530773964E+03  0.81530773964E+03  0.00000000000E+00 0. -1.
         -1   -1    0    0    0  501 -0.00000000000E+00 -0.00000000000E+00 -0.62282375251E+03  0.62282375251E+03  0.00000000000E+00 0.  1.
         23    2    1    2    0    0 -0.28961561003E+03 -0.58578979802E+03  0.37476459870E+03  0.75971192405E+03  0.98421613830E+02 0.  0.
         11    1    3    3    0    0 -0.19059674383E+03 -0.33948098664E+03  0.27255615120E+03  0.47524868712E+03  0.00000000000E+00 0. -1.
        -11    1    3    3    0    0 -0.99018866201E+02 -0.24630881138E+03  0.10220844750E+03  0.28446323693E+03  0.00000000000E+00 0.  1.
         22    1    1    2    0    0  0.28961561003E+03  0.58578979802E+03 -0.18228061157E+03  0.67841956811E+03  0.00000000000E+00 0. -1.
<mgrwt>
<rscale>  0 0.14251920E+04</rscale>
<asrwt>0</asrwt>
<pdfrwt beam="1">  1        1 0.12543196E+00 0.14251920E+04</pdfrwt>
<pdfrwt beam="2">  1       -1 0.95819039E-01 0.14251920E+04</pdfrwt>
<totfact> 0.21923952E+01</totfact>
</mgrwt>
</event>
<event>
 6    1  0.1568961E-005  0.3964985E+04  0.7818608E-02  0.8011648E-01
          1   -1    0    0  501    0  0.00000000000E+00  0.00000000000E+00  0.31837896368E+04  0.31837896368E+04  0.00000000000E+00 0. -1.
         -1   -1    0    0    0  501 -0.00000000000E+00 -0.00000000000E+00 -0.12344651229E+04  0.12344651229E+04  0.00000000000E+00 0.  1.
         23    2    1    2    0    0 -0.17119917680E+04 -0.98521844206E+03  0.79958752293E+03  0.21327643658E+04  0.88161447233E+02 0.  0.
         13    1    3    3    0    0 -0.14166519625E+04 -0.79526545468E+03  0.62590329606E+03  0.17410068530E+04  0.00000000000E+00 0. -1.
        -13    1    3    3    0    0 -0.29533980556E+03 -0.18995298738E+03  0.17368422687E+03  0.39175751279E+03  0.00000000000E+00 0.  1.
         22    1    1    2    0    0  0.17119917680E+04  0.98521844206E+03  0.11497369910E+04  0.22854903939E+04  0.00000000000E+00 0.  1.
<mgrwt>
<rscale>  0 0.39649854E+04</rscale>
<asrwt>0</asrwt>
<pdfrwt beam="1">  1        1 0.48981379E+00 0.39649854E+04</pdfrwt>
<pdfrwt beam="2">  1       -1 0.18991771E+00 0.39649854E+04</pdfrwt>
<totfact> 0.60655032E-02</totfact>
</mgrwt>
</event>
<event>
 6    1  0.1568961E-005  0.3437301E+04  0.7818608E-02  0.8128812E-01
         -2   -1    0    0    0  501 -0.00000000000E+00  0.00000000000E+00  0.85657675210E+03  0.85657675210E+03  0.00000000000E+00 0.  1.
          2   -1    0    0  501    0  0.00000000000E+00 -0.00000000000E+00 -0.34483300609E+04  0.34483300609E+04  0.00000000000E+00 0. -1.
         23    2    1    2    0    0  0.13317674826E+04 -0.51030404635E+03 -0.98215747073E+02  0.14323218414E+04  0.88795703377E+02 0.  0.
         13    1    3    3    0    0  0.88826179269E+03 -0.36840323489E+03 -0.33688093803E+02  0.96221870877E+03  0.00000000000E+00 0.  1.
        -13    1    3    3    0    0  0.44350568990E+03 -0.14190081146E+03 -0.64527653270E+02  0.47010313262E+03  0.00000000000E+00 0. -1.
         22    1    1    2    0    0 -0.13317674826E+04  0.51030404635E+03 -0.24935375618E+04  0.28725849717E+04  0.00000000000E+00 0. -1.
<mgrwt>
<rscale>  0 0.34373009E+04</rscale>
<asrwt>0</asrwt>
<pdfrwt beam="1">  1        2 0.53051232E+00 0.34373009E+04</pdfrwt>
<pdfrwt beam="2">  1       -2 0.13178104E+00 0.34373009E+04</pdfrwt>
<totfact> 0.30558983E-01</totfact>
</mgrwt>
</event>
<event>
 6    1  0.1568961E-005  0.1601883E+04  0.7818608E-02  0.8819392E-01
         -2   -1    0    0    0  501 -0.00000000000E+00  0.00000000000E+00  0.55306799078E+03  0.55306799078E+03  0.00000000000E+00 0.  1.
          2   -1    0    0  501    0  0.00000000000E+00 -0.00000000000E+00 -0.11599061268E+04  0.11599061268E+04  0.00000000000E+00 0. -1.
         23    2    1    2    0    0  0.57102925626E+03  0.18154344074E+03  0.25979482744E+03  0.65936834418E+03  0.90779009450E+02 0.  0.
         11    1    3    3    0    0  0.21335960705E+03  0.68442003411E+02  0.14570617145E+03  0.26727685674E+03  0.00000000000E+00 0. -1.
        -11    1    3    3    0    0  0.35766964921E+03  0.11310143733E+03  0.11408865599E+03  0.39209148744E+03  0.00000000000E+00 0.  1.
         22    1    1    2    0    0 -0.57102925626E+03 -0.18154344074E+03 -0.86663296351E+03  0.10536057734E+04  0.00000000000E+00 0. -1.
<mgrwt>
<rscale>  0 0.16018826E+04</rscale>
<asrwt>0</asrwt>
<pdfrwt beam="1">  1        2 0.17844709E+00 0.16018826E+04</pdfrwt>
<pdfrwt beam="2">  1       -2 0.85087385E-01 0.16018826E+04</pdfrwt>
<totfact> 0.23081946E+01</totfact>
</mgrwt>
</event>
<event>
 6    1  0.1568961E-005  0.1374442E+04  0.7818608E-02  0.8972530E-01
         -3   -1    0    0    0  501 -0.00000000000E+00  0.00000000000E+00  0.11645733185E+04  0.11645733185E+04  0.00000000000E+00 0. -1.
          3   -1    0    0  501    0  0.00000000000E+00 -0.00000000000E+00 -0.40553259643E+03  0.40553259643E+03  0.00000000000E+00 0.  1.
         23    2    1    2    0    0 -0.19282276528E+03 -0.22737011612E+03  0.10846740914E+04  0.11286142618E+04  0.91512178925E+02 0.  0.
         11    1    3    3    0    0 -0.16306216250E+03 -0.20754539499E+03  0.81735835279E+03  0.85891736314E+03  0.00000000000E+00 0. -1.
        -11    1    3    3    0    0 -0.29760602783E+02 -0.19824721133E+02  0.26731573863E+03  0.26969689869E+03  0.00000000000E+00 0.  1.
         22    1    1    2    0    0  0.19282276528E+03  0.22737011612E+03 -0.32563336936E+03  0.44149165310E+03  0.00000000000E+00 0.  1.
<mgrwt>
<rscale>  0 0.13744416E+04</rscale>
<asrwt>0</asrwt>
<pdfrwt beam="1">  1        3 0.62389631E-01 0.13744416E+04</pdfrwt>
<pdfrwt beam="2">  1       -3 0.17916512E+00 0.13744416E+04</pdfrwt>
<totfact> 0.12789832E+00</totfact>
</mgrwt>
</event>
<event>
 6    1  0.1568961E-005  0.3427037E+04  0.7818608E-02  0.8131302E-01
          1   -1    0    0  501    0  0.00000000000E+00  0.00000000000E+00  0.18983149931E+04  0.18983149931E+04  0.00000000000E+00 0. -1.
         -1   -1    0    0    0  501 -0.00000000000E+00 -0.00000000000E+00 -0.15467118936E+04  0.15467118936E+04  0.00000000000E+00 0.  1.
         23    2    1    2    0    0 -0.16348777563E+04 -0.20098242268E+03 -0.29430794546E+03  0.16757275083E+04  0.90698969960E+02 0.  0.
         11    1    3    3    0    0 -0.48844607267E+03 -0.92952280640E+02 -0.62612950873E+02  0.50113877719E+03  0.00000000000E+00 0.  1.
        -11    1    3    3    0    0 -0.11464316836E+04 -0.10803014204E+03 -0.23169499458E+03  0.11745887311E+04  0.00000000000E+00 0. -1.
         22    1    1    2    0    0  0.16348777563E+04  0.20098242268E+03  0.64591104494E+03  0.17692993783E+04  0.00000000000E+00 0.  1.
<mgrwt>
<rscale>  0 0.34270374E+04</rscale>
<asrwt>0</asrwt>
<pdfrwt beam="1">  1        1 0.29204846E+00 0.34270374E+04</pdfrwt>
<pdfrwt beam="2">  1       -1 0.23795568E+00 0.34270374E+04</pdfrwt>
<totfact> 0.23980447E-01</totfact>
</mgrwt>
</event>
<event>
 6    1  0.1568961E-005  0.1294397E+04  0.7818608E-02  0.9034020E-01
         -1   -1    0    0    0  501 -0.00000000000E+00  0.00000000000E+00  0.22905175734E+03  0.22905175734E+03  0.00000000000E+00 0.  1.
          1   -1    0    0  501    0  0.00000000000E+00 -0.00000000000E+00 -0.18286946156E+04  0.18286946156E+04  0.00000000000E+00 0. -1.
         23    2    1    2    0    0  0.13923637556E+03  0.54552280047E+03 -0.30693165145E+03  0.64775199056E+03  0.91617184521E+02 0.  0.
         13    1    3    3    0    0  0.34590407832E+02  0.24141862434E+03 -0.17481827361E+03  0.30006812107E+03  0.00000000000E+00 0.  1.
        -13    1    3    3    0    0  0.10464596772E+03  0.30410417613E+03 -0.13211337784E+03  0.34768386949E+03  0.00000000000E+00 0. -1.
         22    1    1    2    0    0 -0.13923637556E+03 -0.54552280047E+03 -0.12927112068E+04  0.14099943823E+04  0.00000000000E+00 0. -1.
<mgrwt>
<rscale>  0 0.12943967E+04</rscale>
<asrwt>0</asrwt>
<pdfrwt beam="1">  1        1 0.28133764E+00 0.12943967E+04</pdfrwt>
<pdfrwt beam="2">  1       -1 0.35238731E-01 0.12943967E+04</pdfrwt>
<totfact> 0.29366157E+01</totfact>
</mgrwt>
</event>
<event>
 6    1  0.1568961E-005  0.1065297E+04  0.7818608E-02  0.9239692E-01
         -2   -1    0    0    0  501 -0.00000000000E+00  0.00000000000E+00  0.16257155232E+03  0.16257155232E+03  0.00000000000E+00 0.  1.
          2   -1    0    0  501    0  0.00000000000E+00 -0.00000000000E+00 -0.17451654719E+04  0.17451654719E+04  0.00000000000E+00 0. -1.
         23    2    1    2    0    0  0.26526386226E+03 -0.18666480403E+03 -0.15449332761E+04  0.15811991401E+04  0.90350580514E+02 0.  0.
         11    1    3    3    0    0  0.53126598208E+02 -0.87761719767E+02 -0.45736127976E+03  0.46872582084E+03  0.00000000000E+00 0. -1.
        -11    1    3    3    0    0  0.21213726406E+03 -0.98903084265E+02 -0.10875719963E+04  0.11124733193E+04  0.00000000000E+00 0.  1.
         22    1    1    2    0    0 -0.26526386226E+03  0.18666480403E+03 -0.37660643467E+02  0.32653788410E+03  0.00000000000E+00 0.  1.
<mgrwt>
<rscale>  0 0.10652967E+04</rscale>
<asrwt>0</asrwt>
<pdfrwt beam="1">  1        2 0.26848700E+00 0.10652967E+04</pdfrwt>
<pdfrwt beam="2">  1       -2 0.25011008E-01 0.10652967E+04</pdfrwt>
<totfact> 0.13204205E+02</totfact>
</mgrwt>
</event>
<event>
 6    1  0.1568961E-005  0.2363554E+04  0.7818608E-02  0.8453276E-01
         -2   -1    0    0    0  501 -0.00000000000E+00  0.00000000000E+00  0.27075579677E+04  0.27075579677E+04  0.00000000000E+00 0. -1.
          2   -1    0    0  501    0  0.00000000000E+00 -0.00000000000E+00 -0.51581440875E+03  0.51581440875E+03  0.00000000000E+00 0.  1.
         23    2    1    2    0    0 -0.27339086889E+03 -0.58463843270E+03  0.24448187305E+04  0.25301251574E+04  0.88600353677E+02 0.  0.
         11    1    3    3    0    0 -0.26078741061E+02 -0.71339855315E+02  0.41312900288E+03  0.42005362600E+03  0.00000000000E+00 0.  1.
        -11    1    3    3    0    0 -0.24731212783E+03 -0.51329857739E+03  0.20316897277E+04  0.21100715314E+04  0.00000000000E+00 0. -1.
         22    1    1    2    0    0  0.27339086889E+03  0.58463843270E+03 -0.25307517163E+03  0.69324721902E+03  0.00000000000E+00 0.  1.
<mgrwt>
<rscale>  0 0.23635545E+04</rscale>
<asrwt>0</asrwt>
<pdfrwt beam="1">  1        2 0.79356065E-01 0.23635545E+04</pdfrwt>
<pdfrwt beam="2">  1       -2 0.41654737E+00 0.23635545E+04</pdfrwt>
<totfact> 0.30965285E-01</totfact>
</mgrwt>
</event>
<event>
 6    1  0.1568961E-005  0.1485963E+04  0.7818608E-02  0.8893842E-01
         -2   -1    0    0    0  501 -0.00000000000E+00  0.00000000000E+00  0.19995530578E+03  0.19995530578E+03  0.00000000000E+00 0.  1.
          2   -1    0    0  501    0  0.00000000000E+00 -0.00000000000E+00 -0.27607228612E+04  0.27607228612E+04  0.00000000000E+00 0. -1.
         23    2    1    2    0    0 -0.21086101080E+02 -0.79294822770E+02 -0.27510832683E+04  0.27534286480E+04  0.78599477326E+02 0.  0.
         11    1    3    3    0    0  0.17382629857E+02  0.61585062026E+01 -0.31079073765E+03  0.31133738232E+03  0.00000000000E+00 0. -1.
        -11    1    3    3    0    0 -0.38468730936E+02 -0.85453328973E+02 -0.24402925306E+04  0.24420912656E+04  0.00000000000E+00 0.  1.
         22    1    1    2    0    0  0.21086101080E+02  0.79294822770E+02  0.19031571286E+03  0.20724951903E+03  0.00000000000E+00 0.  1.
<mgrwt>
<rscale>  0 0.14859626E+04</rscale>
<asrwt>0</asrwt>
<pdfrwt beam="1">  1        2 0.42472659E+00 0.14859626E+04</pdfrwt>
<pdfrwt beam="2">  1       -2 0.30762355E-01 0.14859626E+04</pdfrwt>
<totfact> 0.23227818E+01</totfact>
</mgrwt>
</event>
<event>
 6    1  0.1568961E-005  0.2184828E+04  0.7818608E-02  0.8524770E-01
         -1   -1    0    0    0  501 -0.00000000000E+00  0.00000000000E+00  0.61279344728E+03  0.61279344728E+03  0.00000000000E+00 0.  1.
          1   -1    0    0  501    0  0.00000000000E+00 -0.00000000000E+00 -0.19474226603E+04  0.19474226603E+04  0.00000000000E+00 0. -1.
         23    2    1    2    0    0 -0.75407647453E+03  0.30081641702E+03 -0.15216422227E+04  0.17270920400E+04  0.91268913111E+02 0.  0.
         13    1    3    3    0    0 -0.22617931465E+03  0.68825935761E+02 -0.36857030819E+03  0.43787916585E+03  0.00000000000E+00 0. -1.
        -13    1    3    3    0    0 -0.52789715988E+03  0.23199048126E+03 -0.11530719145E+04  0.12892128741E+04  0.00000000000E+00 0.  1.
         22    1    1    2    0    0  0.75407647453E+03 -0.30081641702E+03  0.18701300969E+03  0.83312406758E+03  0.00000000000E+00 0.  1.
<mgrwt>
<rscale>  0 0.21848275E+04</rscale>
<asrwt>0</asrwt>
<pdfrwt beam="1">  1        1 0.29960349E+00 0.21848275E+04</pdfrwt>
<pdfrwt beam="2">  1       -1 0.94275914E-01 0.21848275E+04</pdfrwt>
<totfact> 0.32168134E+00</totfact>
</mgrwt>
</event>
<event>
 6    1  0.1568961E-005  0.2560227E+04  0.7818608E-02  0.8381838E-01
          1   -1    0    0  501    0  0.00000000000E+00  0.00000000000E+00  0.18939721820E+04  0.18939721820E+04  0.00000000000E+00 0. -1.
         -1   -1    0    0    0  501 -0.00000000000E+00 -0.00000000000E+00 -0.86521386683E+03  0.86521386683E+03  0.00000000000E+00 0.  1.
         23    2    1    2    0    0 -0.11919048904E+04 -0.11271254929E+03  0.99895576178E+03  0.15615928045E+04  0.85545814625E+02 0.  0.
         11    1    3    3    0    0 -0.83547819476E+03 -0.77773128684E+02  0.64815152328E+03  0.10602701875E+04  0.00000000000E+00 0. -1.
        -11    1    3    3    0    0 -0.35642669568E+03 -0.34939420603E+02  0.35080423850E+03  0.50132261694E+03  0.00000000000E+00 0.  1.
         22    1    1    2    0    0  0.11919048904E+04  0.11271254929E+03  0.29802553373E+02  0.11975932443E+04  0.00000000000E+00 0.  1.
<mgrwt>
<rscale>  0 0.25602273E+04</rscale>
<asrwt>0</asrwt>
<pdfrwt beam="1">  1        1 0.29138034E+00 0.25602273E+04</pdfrwt>
<pdfrwt beam="2">  1       -1 0.13310983E+00 0.25602273E+04</pdfrwt>
<totfact> 0.14843039E+00</totfact>
</mgrwt>
</event>
<event>
 6    1  0.1568961E-005  0.2107464E+04  0.7818608E-02  0.8557963E-01
         -1   -1    0    0    0  501 -0.00000000000E+00  0.00000000000E+00  0.99640181857E+03  0.99640181857E+03  0.00000000000E+00 0.  1.
          1   -1    0    0  501    0  0.00000000000E+00 -0.00000000000E+00 -0.11143604244E+04  0.11143604244E+04  0.00000000000E+00 0. -1.
         23    2    1    2    0    0  0.75548437268E+03  0.34678261015E+03  0.58602973894E+03  0.10214439214E+04  0.94350482925E+02 0.  0.
         11    1    3    3    0    0  0.11839412508E+03  0.23491882354E+02  0.64012273977E+02  0.13662579774E+03  0.00000000000E+00 0. -1.
        -11    1    3    3    0    0  0.63709024760E+03  0.32329072780E+03  0.52201746496E+03  0.88481812368E+03  0.00000000000E+00 0.  1.
         22    1    1    2    0    0 -0.75548437268E+03 -0.34678261015E+03 -0.70398834475E+03  0.10893183215E+04  0.00000000000E+00 0. -1.
<mgrwt>
<rscale>  0 0.21074636E+04</rscale>
<asrwt>0</asrwt>
<pdfrwt beam="1">  1        1 0.17144007E+00 0.21074636E+04</pdfrwt>
<pdfrwt beam="2">  1       -1 0.15329259E+00 0.21074636E+04</pdfrwt>
<totfact> 0.37391789E+00</totfact>
</mgrwt>
</event>
<event>
 6    1  0.1568961E-005  0.2017726E+04  0.7818608E-02  0.8598378E-01
          1   -1    0    0  501    0  0.00000000000E+00  0.00000000000E+00  0.31518321563E+04  0.31518321563E+04  0.00000000000E+00 0. -1.
         -1   -1    0    0    0  501 -0.00000000000E+00 -0.00000000000E+00 -0.32292480812E+03  0.32292480812E+03  0.00000000000E+00 0.  1.
         23    2    1    2    0    0  0.51455451754E+03 -0.30722438638E+03  0.28105079359E+04  0.28751806861E+04  0.92498350989E+02 0.  0.
         13    1    3    3    0    0  0.32476814846E+03 -0.22089843212E+03  0.16510812124E+04  0.16971563386E+04  0.00000000000E+00 0.  1.
        -13    1    3    3    0    0  0.18978636907E+03 -0.86325954256E+02  0.11594267235E+04  0.11780243475E+04  0.00000000000E+00 0. -1.
         22    1    1    2    0    0 -0.51455451754E+03  0.30722438638E+03  0.18399412252E+02  0.59957627828E+03  0.00000000000E+00 0.  1.
<mgrwt>
<rscale>  0 0.20177262E+04</rscale>
<asrwt>0</asrwt>
<pdfrwt beam="1">  1        1 0.48489723E+00 0.20177262E+04</pdfrwt>
<pdfrwt beam="2">  1       -1 0.49680742E-01 0.20177262E+04</pdfrwt>
<totfact> 0.17423791E+00</totfact>
</mgrwt>
</event>
<event>
 6    1  0.1568961E-005  0.3646872E+04  0.7818608E-02  0.8079839E-01
         -1   -1    0    0    0  501 -0.00000000000E+00  0.00000000000E+00  0.99093845922E+03  0.99093845922E+03  0.00000000000E+00 0.  1.
          1   -1    0    0  501    0  0.00000000000E+00 -0.00000000000E+00 -0.33553224124E+04  0.33553224124E+04  0.00000000000E+00 0. -1.
         23    2    1    2    0    0 -0.19697114746E+03 -0.58427864729E+03 -0.32265672494E+04  0.32862895480E+04  0.93720905154E+02 0.  0.
         11    1    3    3    0    0 -0.58761381665E+02 -0.26773092906E+03 -0.16183132930E+04  0.16413624416E+04  0.00000000000E+00 0.  1.
        -11    1    3    3    0    0 -0.13820976579E+03 -0.31654771823E+03 -0.16082539564E+04  0.16449271064E+04  0.00000000000E+00 0. -1.
         22    1    1    2    0    0  0.19697114746E+03  0.58427864729E+03  0.86218329619E+03  0.10599713236E+04  0.00000000000E+00 0.  1.
<mgrwt>
<rscale>  0 0.36468715E+04</rscale>
<asrwt>0</asrwt>
<pdfrwt beam="1">  1        1 0.51620344E+00 0.36468715E+04</pdfrwt>
<pdfrwt beam="2">  1       -1 0.15245207E+00 0.36468715E+04</pdfrwt>
<totfact> 0.87053624E-02</totfact>
</mgrwt>
</event>
<event>
 6    1  0.1568961E-005  0.2922862E+04  0.7818608E-02  0.8266108E-01
          2   -1    0    0  501    0  0.00000000000E+00  0.00000000000E+00  0.14447961941E+04  0.14447961941E+04  0.00000000000E+00 0. -1.
         -2   -1    0    0    0  501 -0.00000000000E+00 -0.00000000000E+00 -0.14782569676E+04  0.14782569676E+04  0.00000000000E+00 0.  1.
         23    2    1    2    0    0 -0.69222864672E+03  0.21488994692E+03 -0.12842737079E+04  0.14774075670E+04  0.89531970131E+02 0.  0.
         11    1    3    3    0    0 -0.62223427447E+03  0.21069634545E+03 -0.11973314386E+04  0.13657126404E+04  0.00000000000E+00 0. -1.
        -11    1    3    3    0    0 -0.69994372252E+02  0.41936014729E+01 -0.86942269248E+02  0.11169492657E+03  0.00000000000E+00 0.  1.
         22    1    1    2    0    0  0.69222864672E+03 -0.21488994692E+03  0.12508129344E+04  0.14456455947E+04  0.00000000000E+00 0. -1.
<mgrwt>
<rscale>  0 0.29228616E+04</rscale>
<asrwt>0</asrwt>
<pdfrwt beam="1">  1        2 0.22227634E+00 0.29228616E+04</pdfrwt>
<pdfrwt beam="2">  1       -2 0.22742415E+00 0.29228616E+04</pdfrwt>
<totfact> 0.10429457E+00</totfact>
</mgrwt>
</event>
<event>
 6    1  0.1568961E-005  0.2313274E+04  0.7818608E-02  0.8472706E-01
          1   -1    0    0  501    0  0.00000000000E+00  0.00000000000E+00  0.87865081201E+03  0.87865081201E+03  0.00000000000E+00 0. -1.
         -1   -1    0    0    0  501 -0.00000000000E+00 -0.00000000000E+00 -0.15225718653E+04  0.15225718653E+04  0.00000000000E+00 0.  1.
         23    2    1    2    0    0 -0.36412776725E+03 -0.98507858707E+03  0.17332491791E+03  0.10704861027E+04  0.11371066486E+03 0.  0.
         11    1    3    3    0    0 -0.23686655127E+03 -0.74283526386E+03  0.16366698213E+03  0.79667865127E+03  0.00000000000E+00 0. -1.
        -11    1    3    3    0    0 -0.12726121598E+03 -0.24224332321E+03  0.96579357799E+01  0.27380745143E+03  0.00000000000E+00 0.  1.
         22    1    1    2    0    0  0.36412776725E+03  0.98507858707E+03 -0.81724597124E+03  0.13307365746E+04  0.00000000000E+00 0.  1.
<mgrwt>
<rscale>  0 0.23132739E+04</rscale>
<asrwt>0</asrwt>
<pdfrwt beam="1">  1        1 0.13517705E+00 0.23132739E+04</pdfrwt>
<pdfrwt beam="2">  1       -1 0.23424183E+00 0.23132739E+04</pdfrwt>
<totfact> 0.15137522E+00</totfact>
</mgrwt>
</event>
<event>
 6    1  0.1568961E-005  0.1582283E+04  0.7818608E-02  0.8831507E-01
          2   -1    0    0  501    0  0.00000000000E+00  0.00000000000E+00  0.12693507917E+04  0.12693507917E+04  0.00000000000E+00 0. -1.
         -2   -1    0    0    0  501 -0.00000000000E+00 -0.00000000000E+00 -0.49309049308E+03  0.49309049308E+03  0.00000000000E+00 0.  1.
         23    2    1    2    0    0  0.77343766102E+03  0.10706162389E+03  0.51181605487E+03  0.93806348012E+03  0.91320380676E+02 0.  0.
         13    1    3    3    0    0  0.18427196061E+03  0.58464433304E+02  0.10052414727E+03  0.21789756679E+03  0.00000000000E+00 0. -1.
        -13    1    3    3    0    0  0.58916570040E+03  0.48597190587E+02  0.41129190759E+03  0.72016591333E+03  0.00000000000E+00 0.  1.
         22    1    1    2    0    0 -0.77343766102E+03 -0.10706162389E+03  0.26444424379E+03  0.82437780469E+03  0.00000000000E+00 0.  1.
<mgrwt>
<rscale>  0 0.15822829E+04</rscale>
<asrwt>0</asrwt>
<pdfrwt beam="1">  1        2 0.19528474E+00 0.15822829E+04</pdfrwt>
<pdfrwt beam="2">  1       -2 0.75860076E-01 0.15822829E+04</pdfrwt>
<totfact> 0.25758596E+01</totfact>
</mgrwt>
</event>
<event>
 6    1  0.3563022E-005  0.3809578E+04  0.7818608E-02  0.8044103E-01
          1   -1    0    0  501    0  0.00000000000E+00  0.00000000000E+00  0.20424772151E+04  0.20424772151E+04  0.00000000000E+00 0. -1.
         -1   -1    0    0    0  501 -0.00000000000E+00 -0.00000000000E+00 -0.17763823096E+04  0.17763823096E+04  0.00000000000E+00 0.  1.
         23    2    1    2    0    0  0.10508007369E+04  0.14403568055E+04  0.80202931082E+03  0.19571303278E+04  0.91094394155E+02 0.  0.
         11    1    3    3    0    0  0.40882886909E+03  0.54652089338E+03  0.35495518456E+03  0.76929793588E+03  0.00000000000E+00 0. -1.
        -11    1    3    3    0    0  0.64197186782E+03  0.89383591211E+03  0.44707412626E+03  0.11878323919E+04  0.00000000000E+00 0.  1.
         22    1    1    2    0    0 -0.10508007369E+04 -0.14403568055E+04 -0.53593440532E+03  0.18617291969E+04  0.00000000000E+00 0.  1.
<mgrwt>
<rscale>  0 0.38095776E+04</rscale>
<asrwt>0</asrwt>
<pdfrwt beam="1">  1        1 0.31422726E+00 0.38095776E+04</pdfrwt>
<pdfrwt beam="2">  1       -1 0.27328959E+00 0.38095776E+04</pdfrwt>
<totfact> 0.10906280E-01</totfact>
</mgrwt>
</event>
<event>
 6    1  0.1568961E-005  0.2230043E+04  0.7818608E-02  0.8506026E-01
          1   -1    0    0  501    0  0.00000000000E+00  0.00000000000E+00  0.60398089898E+03  0.60398089898E+03  0.00000000000E+00 0. -1.
         -1   -1    0    0    0  501 -0.00000000000E+00 -0.00000000000E+00 -0.20584647598E+04  0.20584647598E+04  0.00000000000E+00 0.  1.
         23    2    1    2    0    0 -0.38042264143E+03 -0.16940601853E+03  0.50384795225E+03  0.66032596324E+03  0.93529853635E+02 0.  0.
         11    1    3    3    0    0 -0.28049636545E+03 -0.14451353666E+03  0.31877066692E+03  0.44852771531E+03  0.00000000000E+00 0.  1.
        -11    1    3    3    0    0 -0.99926275979E+02 -0.24892481869E+02  0.18507728532E+03  0.21179824793E+03  0.00000000000E+00 0. -1.
         22    1    1    2    0    0  0.38042264143E+03  0.16940601853E+03 -0.19583318131E+04  0.20021196956E+04  0.00000000000E+00 0.  1.
<mgrwt>
<rscale>  0 0.22300434E+04</rscale>
<asrwt>0</asrwt>
<pdfrwt beam="1">  1        1 0.92920137E-01 0.22300434E+04</pdfrwt>
<pdfrwt beam="2">  1       -1 0.31668689E+00 0.22300434E+04</pdfrwt>
<totfact> 0.79389324E-01</totfact>
</mgrwt>
</event>
<event>
 6    1  0.1568961E-005  0.1444823E+04  0.7818608E-02  0.8921997E-01
         -2   -1    0    0    0  501 -0.00000000000E+00  0.00000000000E+00  0.15618517448E+03  0.15618517448E+03  0.00000000000E+00 0.  1.
          2   -1    0    0  501    0  0.00000000000E+00 -0.00000000000E+00 -0.33414098727E+04  0.33414098727E+04  0.00000000000E+00 0. -1.
         23    2    1    2    0    0  0.42898525009E+03 -0.52417434219E+03 -0.10121252610E+04  0.12213814698E+04  0.92671813415E+02 0.  0.
         11    1    3    3    0    0  0.67086614883E+02 -0.88171069512E+02 -0.11041893262E+03  0.15641960260E+03  0.00000000000E+00 0.  1.
        -11    1    3    3    0    0  0.36189863521E+03 -0.43600327268E+03 -0.90170632836E+03  0.10649618672E+04  0.00000000000E+00 0. -1.
         22    1    1    2    0    0 -0.42898525009E+03  0.52417434219E+03 -0.21730994373E+04  0.22762135774E+04  0.00000000000E+00 0. -1.
<mgrwt>
<rscale>  0 0.14448234E+04</rscale>
<asrwt>0</asrwt>
<pdfrwt beam="1">  1        2 0.51406308E+00 0.14448234E+04</pdfrwt>
<pdfrwt beam="2">  1       -2 0.24028487E-01 0.14448234E+04</pdfrwt>
<totfact> 0.15830303E+01</totfact>
</mgrwt>
</event>
<event>
 6    1  0.1568961E-005  0.3273358E+04  0.7818608E-02  0.8169708E-01
         -2   -1    0    0    0  501 -0.00000000000E+00  0.00000000000E+00  0.17284629318E+04  0.17284629318E+04  0.00000000000E+00 0.  1.
          2   -1    0    0  501    0  0.00000000000E+00 -0.00000000000E+00 -0.15497687052E+04  0.15497687052E+04  0.00000000000E+00 0. -1.
         23    2    1    2    0    0  0.69556874926E+03  0.11879084739E+04  0.97369616086E+03  0.16885868645E+04  0.91098617085E+02 0.  0.
         11    1    3    3    0    0  0.44411767597E+03  0.83587462915E+03  0.68774220980E+03  0.11700069457E+04  0.00000000000E+00 0.  1.
        -11    1    3    3    0    0  0.25145107329E+03  0.35203384471E+03  0.28595395106E+03  0.51857991882E+03  0.00000000000E+00 0. -1.
         22    1    1    2    0    0 -0.69556874926E+03 -0.11879084739E+04 -0.79500193422E+03  0.15896447725E+04  0.00000000000E+00 0. -1.
<mgrwt>
<rscale>  0 0.32733578E+04</rscale>
<asrwt>0</asrwt>
<pdfrwt beam="1">  1        2 0.23842595E+00 0.32733578E+04</pdfrwt>
<pdfrwt beam="2">  1       -2 0.26591737E+00 0.32733578E+04</pdfrwt>
<totfact> 0.51129021E-01</totfact>
</mgrwt>
</event>
<event>
 6    1  0.1568961E-005  0.1718374E+04  0.7818608E-02  0.8750954E-01
          2   -1    0    0  501    0  0.00000000000E+00  0.00000000000E+00  0.16617044830E+04  0.16617044830E+04  0.00000000000E+00 0. -1.
         -2   -1    0    0    0  501 -0.00000000000E+00 -0.00000000000E+00 -0.44424403041E+03  0.44424403041E+03  0.00000000000E+00 0.  1.
         23    2    1    2    0    0  0.75380219386E+03 -0.32707704584E+03  0.31303273482E+03  0.88398835118E+03  0.90822742636E+02 0.  0.
         13    1    3    3    0    0  0.61133014345E+03 -0.24543430811E+03  0.28338854119E+03  0.71712733120E+03  0.00000000000E+00 0.  1.
        -13    1    3    3    0    0  0.14247205041E+03 -0.81642737731E+02  0.29644193631E+02  0.16686101998E+03  0.00000000000E+00 0. -1.
         22    1    1    2    0    0 -0.75380219386E+03  0.32707704584E+03  0.90442771774E+03  0.12219601622E+04  0.00000000000E+00 0. -1.
<mgrwt>
<rscale>  0 0.17183740E+04</rscale>
<asrwt>0</asrwt>
<pdfrwt beam="1">  1        2 0.25564684E+00 0.17183740E+04</pdfrwt>
<pdfrwt beam="2">  1       -2 0.68345236E-01 0.17183740E+04</pdfrwt>
<totfact> 0.19166949E+01</totfact>
</mgrwt>
</event>
<event>
 6    1  0.1568961E-005  0.2984675E+04  0.7818608E-02  0.8248121E-01
         -2   -1    0    0    0  501 -0.00000000000E+00  0.00000000000E+00  0.15392142030E+04  0.15392142030E+04  0.00000000000E+00 0.  1.
          2   -1    0    0  501    0  0.00000000000E+00 -0.00000000000E+00 -0.14468885516E+04  0.14468885516E+04  0.00000000000E+00 0. -1.
         23    2    1    2    0    0  0.40920564550E+03  0.13765479355E+04  0.44707391789E+03  0.15068530084E+04  0.91637446804E+02 0.  0.
         13    1    3    3    0    0  0.34256242374E+03  0.11563292333E+04  0.33959176582E+03  0.12529041772E+04  0.00000000000E+00 0. -1.
        -13    1    3    3    0    0  0.66643221754E+02  0.22021870227E+03  0.10748215206E+03  0.25394883116E+03  0.00000000000E+00 0.  1.
         22    1    1    2    0    0 -0.40920564550E+03 -0.13765479355E+04 -0.35474826656E+03  0.14792497462E+04  0.00000000000E+00 0. -1.
<mgrwt>
<rscale>  0 0.29846751E+04</rscale>
<asrwt>0</asrwt>
<pdfrwt beam="1">  1        2 0.22259824E+00 0.29846751E+04</pdfrwt>
<pdfrwt beam="2">  1       -2 0.23680218E+00 0.29846751E+04</pdfrwt>
<totfact> 0.90422789E-01</totfact>
</mgrwt>
</event>
<event>
 6    1  0.1568961E-005  0.2146972E+04  0.7818608E-02  0.8540830E-01
          2   -1    0    0  501    0  0.00000000000E+00  0.00000000000E+00  0.62248375142E+03  0.62248375142E+03  0.00000000000E+00 0. -1.
         -2   -1    0    0    0  501 -0.00000000000E+00 -0.00000000000E+00 -0.18512483528E+04  0.18512483528E+04  0.00000000000E+00 0.  1.
         23    2    1    2    0    0 -0.64018739688E+03 -0.54315471709E+03 -0.13826533908E+04  0.16201873138E+04  0.91758284042E+02 0.  0.
         11    1    3    3    0    0 -0.40059053787E+03 -0.28048271328E+03 -0.79892668400E+03  0.93671082939E+03  0.00000000000E+00 0. -1.
        -11    1    3    3    0    0 -0.23959685901E+03 -0.26267200382E+03 -0.58372670682E+03  0.68347648437E+03  0.00000000000E+00 0.  1.
         22    1    1    2    0    0  0.64018739688E+03  0.54315471709E+03  0.15388878944E+03  0.85354479047E+03  0.00000000000E+00 0. -1.
<mgrwt>
<rscale>  0 0.21469718E+04</rscale>
<asrwt>0</asrwt>
<pdfrwt beam="1">  1        2 0.95766732E-01 0.21469718E+04</pdfrwt>
<pdfrwt beam="2">  1       -2 0.28480744E+00 0.21469718E+04</pdfrwt>
<totfact> 0.17142469E+00</totfact>
</mgrwt>
</event>
<event>
 6    1  0.1568961E-005  0.3562253E+04  0.7818608E-02  0.8099193E-01
          2   -1    0    0  501    0  0.00000000000E+00  0.00000000000E+00  0.22353564298E+04  0.22353564298E+04  0.00000000000E+00 0. -1.
         -2   -1    0    0    0  501 -0.00000000000E+00 -0.00000000000E+00 -0.14191969006E+04  0.14191969006E+04  0.00000000000E+00 0.  1.
         23    2    1    2    0    0 -0.44133050362E+03  0.54428186015E+02 -0.13597928027E+04  0.14336292904E+04  0.92311620438E+02 0.  0.
         13    1    3    3    0    0 -0.31307739072E+03  0.78010372178E+02 -0.92180085466E+03  0.97663702899E+03  0.00000000000E+00 0. -1.
        -13    1    3    3    0    0 -0.12825311290E+03 -0.23582186164E+02 -0.43799194805E+03  0.45699226145E+03  0.00000000000E+00 0.  1.
         22    1    1    2    0    0  0.44133050362E+03 -0.54428186015E+02  0.21759523319E+04  0.22209240400E+04  0.00000000000E+00 0. -1.
<mgrwt>
<rscale>  0 0.35622526E+04</rscale>
<asrwt>0</asrwt>
<pdfrwt beam="1">  1        2 0.34390099E+00 0.35622526E+04</pdfrwt>
<pdfrwt beam="2">  1       -2 0.21833799E+00 0.35622526E+04</pdfrwt>
<totfact> 0.40834585E-01</totfact>
</mgrwt>
</event>
<event>
 6    1  0.1568961E-005  0.3200792E+04  0.7818608E-02  0.8188608E-01
          1   -1    0    0  501    0  0.00000000000E+00  0.00000000000E+00  0.11743461094E+04  0.11743461094E+04  0.00000000000E+00 0. -1.
         -1   -1    0    0    0  501 -0.00000000000E+00 -0.00000000000E+00 -0.21810162920E+04  0.21810162920E+04  0.00000000000E+00 0.  1.
         23    2    1    2    0    0 -0.49858361571E+03  0.79327686136E+03  0.85469725562E+03  0.12714807970E+04  0.91006691060E+02 0.  0.
         13    1    3    3    0    0 -0.30323902653E+03  0.53064008283E+03  0.60308529716E+03  0.85862953616E+03  0.00000000000E+00 0.  1.
        -13    1    3    3    0    0 -0.19534458918E+03  0.26263677853E+03  0.25161195846E+03  0.41285126087E+03  0.00000000000E+00 0. -1.
         22    1    1    2    0    0  0.49858361571E+03 -0.79327686136E+03 -0.18613674383E+04  0.20838816043E+04  0.00000000000E+00 0.  1.
<mgrwt>
<rscale>  0 0.32007924E+04</rscale>
<asrwt>0</asrwt>
<pdfrwt beam="1">  1        1 0.18066863E+00 0.32007924E+04</pdfrwt>
<pdfrwt beam="2">  1       -1 0.33554096E+00 0.32007924E+04</pdfrwt>
<totfact> 0.18068586E-01</totfact>
</mgrwt>
</event>
<event>
 6    1  0.1568961E-005  0.5152216E+03  0.7818608E-02  0.1009880E+00
          1   -1    0    0  501    0  0.00000000000E+00  0.00000000000E+00  0.50693531542E+03  0.50693531542E+03  0.00000000000E+00 0. -1.
         -1   -1    0    0    0  501 -0.00000000000E+00 -0.00000000000E+00 -0.13091083620E+03  0.13091083620E+03  0.00000000000E+00 0.  1.
         23    2    1    2    0    0  0.93232356259E+02  0.10758876943E+03  0.44710851348E+03  0.47872181191E+03  0.94873256546E+02 0.  0.
         11    1    3    3    0    0  0.94743804500E+02  0.43708727742E+02  0.31774350288E+03  0.33443650368E+03  0.00000000000E+00 0. -1.
        -11    1    3    3    0    0 -0.15114482411E+01  0.63880041693E+02  0.12936501060E+03  0.14428530823E+03  0.00000000000E+00 0.  1.
         22    1    1    2    0    0 -0.93232356259E+02 -0.10758876943E+03 -0.71084034259E+02  0.15912433971E+03  0.00000000000E+00 0. -1.
<mgrwt>
<rscale>  0 0.51522161E+03</rscale>
<asrwt>0</asrwt>
<pdfrwt beam="1">  1        1 0.77990047E-01 0.51522161E+03</pdfrwt>
<pdfrwt beam="2">  1       -1 0.20140129E-01 0.51522161E+03</pdfrwt>
<totfact> 0.88364420E+02</totfact>
</mgrwt>
</event>
<event>
 6    1  0.1568961E-005  0.1939724E+04  0.7818608E-02  0.8635332E-01
         -2   -1    0    0    0  501 -0.00000000000E+00  0.00000000000E+00  0.88896840036E+03  0.88896840036E+03  0.00000000000E+00 0.  1.
          2   -1    0    0  501    0  0.00000000000E+00 -0.00000000000E+00 -0.10581169559E+04  0.10581169559E+04  0.00000000000E+00 0. -1.
         23    2    1    2    0    0  0.70187676271E+03  0.11236588113E+03 -0.74433817783E+03  0.10327002171E+04  0.84695537749E+02 0.  0.
         11    1    3    3    0    0  0.61514230268E+03  0.11682490510E+03 -0.68172980001E+03  0.92563687871E+03  0.00000000000E+00 0. -1.
        -11    1    3    3    0    0  0.86734460024E+02 -0.44590239781E+01 -0.62608377826E+02  0.10706333838E+03  0.00000000000E+00 0.  1.
         22    1    1    2    0    0 -0.70187676271E+03 -0.11236588113E+03  0.57518962225E+03  0.91438513921E+03  0.00000000000E+00 0.  1.
<mgrwt>
<rscale>  0 0.19397242E+04</rscale>
<asrwt>0</asrwt>
<pdfrwt beam="1">  1        2 0.16278722E+00 0.19397242E+04</pdfrwt>
<pdfrwt beam="2">  1       -2 0.13676437E+00 0.19397242E+04</pdfrwt>
<totfact> 0.82421553E+00</totfact>
</mgrwt>
</event>
<event>
 6    1  0.1568961E-005  0.1737227E+04  0.7818608E-02  0.8740413E-01
          1   -1    0    0  501    0  0.00000000000E+00  0.00000000000E+00  0.21271647212E+04  0.21271647212E+04  0.00000000000E+00 0. -1.
         -1   -1    0    0    0  501 -0.00000000000E+00 -0.00000000000E+00 -0.35469244980E+03  0.35469244980E+03  0.00000000000E+00 0.  1.
         23    2    1    2    0    0 -0.56728746150E+03  0.31186503728E+03  0.66596333729E+02  0.65727843053E+03  0.92222546726E+02 0.  0.
         13    1    3    3    0    0 -0.19597601917E+03  0.15609967944E+03  0.40230617215E+02  0.25375620696E+03  0.00000000000E+00 0. -1.
        -13    1    3    3    0    0 -0.37131144232E+03  0.15576535785E+03  0.26365716514E+02  0.40352222357E+03  0.00000000000E+00 0.  1.
         22    1    1    2    0    0  0.56728746150E+03 -0.31186503728E+03  0.17058759377E+04  0.18245787405E+04  0.00000000000E+00 0. -1.
<mgrwt>
<rscale>  0 0.17372268E+04</rscale>
<asrwt>0</asrwt>
<pdfrwt beam="1">  1        1 0.32725610E+00 0.17372268E+04</pdfrwt>
<pdfrwt beam="2">  1       -1 0.54568070E-01 0.17372268E+04</pdfrwt>
<totfact> 0.78634267E+00</totfact>
</mgrwt>
</event>
<event>
 6    1  0.1568961E-005  0.5596406E+04  0.7818608E-02  0.7742561E-01
         -2   -1    0    0    0  501 -0.00000000000E+00  0.00000000000E+00  0.18622818146E+04  0.18622818146E+04  0.00000000000E+00 0.  1.
          2   -1    0    0  501    0  0.00000000000E+00 -0.00000000000E+00 -0.42044874585E+04  0.42044874585E+04  0.00000000000E+00 0. -1.
         23    2    1    2    0    0 -0.89466436021E+03 -0.78126918354E+03  0.15742527085E+04  0.19741598512E+04  0.90717546658E+02 0.  0.
         13    1    3    3    0    0 -0.75025226917E+03 -0.67032585192E+03  0.13810578625E+04  0.17086649861E+04  0.00000000000E+00 0.  1.
        -13    1    3    3    0    0 -0.14441209103E+03 -0.11094333162E+03  0.19319484594E+03  0.26549486504E+03  0.00000000000E+00 0. -1.
         22    1    1    2    0    0  0.89466436021E+03  0.78126918354E+03 -0.39164583524E+04  0.40926094219E+04  0.00000000000E+00 0. -1.
<mgrwt>
<rscale>  0 0.55964062E+04</rscale>
<asrwt>0</asrwt>
<pdfrwt beam="1">  1        2 0.64684422E+00 0.55964062E+04</pdfrwt>
<pdfrwt beam="2">  1       -2 0.28650490E+00 0.55964062E+04</pdfrwt>
<totfact> 0.61074144E-03</totfact>
</mgrwt>
</event>
<event>
 6    1  0.1568961E-005  0.2440218E+04  0.7818608E-02  0.8424598E-01
         -2   -1    0    0    0  501 -0.00000000000E+00  0.00000000000E+00  0.17302913636E+04  0.17302913636E+04  0.00000000000E+00 0.  1.
          2   -1    0    0  501    0  0.00000000000E+00 -0.00000000000E+00 -0.86035598181E+03  0.86035598181E+03  0.00000000000E+00 0. -1.
         23    2    1    2    0    0 -0.53692372800E+03  0.10329521884E+03  0.15919859959E+04  0.16849354258E+04  0.75039897281E+02 0.  0.
         11    1    3    3    0    0 -0.25700964147E+03  0.84523300760E+02  0.82695539130E+03  0.87008813541E+03  0.00000000000E+00 0. -1.
        -11    1    3    3    0    0 -0.27991408654E+03  0.18771918076E+02  0.76503060456E+03  0.81484729039E+03  0.00000000000E+00 0.  1.
         22    1    1    2    0    0  0.53692372800E+03 -0.10329521884E+03 -0.72205061410E+03  0.90571191957E+03  0.00000000000E+00 0. -1.
<mgrwt>
<rscale>  0 0.24402185E+04</rscale>
<asrwt>0</asrwt>
<pdfrwt beam="1">  1        2 0.13236246E+00 0.24402185E+04</pdfrwt>
<pdfrwt beam="2">  1       -2 0.26619867E+00 0.24402185E+04</pdfrwt>
<totfact> 0.14304330E+00</totfact>
</mgrwt>
</event>
<event>
 6    1  0.1568961E-005  0.2552997E+04  0.7818608E-02  0.8384345E-01
         -1   -1    0    0    0  501 -0.00000000000E+00  0.00000000000E+00  0.61460284365E+03  0.61460284365E+03  0.00000000000E+00 0.  1.
          1   -1    0    0  501    0  0.00000000000E+00 -0.00000000000E+00 -0.26512217941E+04  0.26512217941E+04  0.00000000000E+00 0. -1.
         23    2    1    2    0    0 -0.44632572304E+03  0.11911791225E+04 -0.11284449722E+04  0.17028485254E+04  0.90502443003E+02 0.  0.
         13    1    3    3    0    0 -0.29395824649E+03  0.68927674564E+03 -0.62426923353E+03  0.97530813525E+03  0.00000000000E+00 0.  1.
        -13    1    3    3    0    0 -0.15236747654E+03  0.50190237690E+03 -0.50417573864E+03  0.72754039013E+03  0.00000000000E+00 0. -1.
         22    1    1    2    0    0  0.44632572304E+03 -0.11911791225E+04 -0.90817397831E+03  0.15629761124E+04  0.00000000000E+00 0.  1.
<mgrwt>
<rscale>  0 0.25529970E+04</rscale>
<asrwt>0</asrwt>
<pdfrwt beam="1">  1        1 0.40788028E+00 0.25529970E+04</pdfrwt>
<pdfrwt beam="2">  1       -1 0.94554282E-01 0.25529970E+04</pdfrwt>
<totfact> 0.10161621E+00</totfact>
</mgrwt>
</event>
<event>
 6    1  0.1568961E-005  0.1543709E+04  0.7818608E-02  0.8855896E-01
          1   -1    0    0  501    0  0.00000000000E+00  0.00000000000E+00  0.17232306645E+04  0.17232306645E+04  0.00000000000E+00 0. -1.
         -1   -1    0    0    0  501 -0.00000000000E+00 -0.00000000000E+00 -0.34572250626E+03  0.34572250626E+03  0.00000000000E+00 0.  1.
         23    2    1    2    0    0 -0.71203097343E+03  0.73187887892E+02  0.31386177843E+03  0.78688913362E+03  0.91327534626E+02 0.  0.
         13    1    3    3    0    0 -0.51126210146E+03  0.57151792412E+02  0.26905706096E+03  0.58055746125E+03  0.00000000000E+00 0. -1.
        -13    1    3    3    0    0 -0.20076887197E+03  0.16036095480E+02  0.44804717466E+02  0.20633167236E+03  0.00000000000E+00 0.  1.
         22    1    1    2    0    0  0.71203097343E+03 -0.73187887892E+02  0.10636463798E+04  0.12820640372E+04  0.00000000000E+00 0. -1.
<mgrwt>
<rscale>  0 0.15437093E+04</rscale>
<asrwt>0</asrwt>
<pdfrwt beam="1">  1        1 0.26511240E+00 0.15437093E+04</pdfrwt>
<pdfrwt beam="2">  1       -1 0.53188079E-01 0.15437093E+04</pdfrwt>
<totfact> 0.15792160E+01</totfact>
</mgrwt>
</event>
<event>
 6    1  0.1568961E-005  0.3348366E+04  0.7818608E-02  0.8150697E-01
          2   -1    0    0  501    0  0.00000000000E+00  0.00000000000E+00  0.11292668106E+04  0.11292668106E+04  0.00000000000E+00 0. -1.
         -2   -1    0    0    0  501 -0.00000000000E+00 -0.00000000000E+00 -0.24820429417E+04  0.24820429417E+04  0.00000000000E+00 0.  1.
         23    2    1    2    0    0  0.37238655988E+03  0.16080315647E+04 -0.37981823957E+03  0.16953023614E+04  0.73150109903E+02 0.  0.
         11    1    3    3    0    0  0.37234735668E+02  0.28184556686E+03 -0.61349921946E+02  0.29083872167E+03  0.00000000000E+00 0.  1.
        -11    1    3    3    0    0  0.33515182421E+03  0.13261859978E+04 -0.31846831763E+03  0.14044636398E+04  0.00000000000E+00 0. -1.
         22    1    1    2    0    0 -0.37238655988E+03 -0.16080315647E+04 -0.97295789158E+03  0.19160073908E+04  0.00000000000E+00 0.  1.
<mgrwt>
<rscale>  0 0.33483660E+04</rscale>
<asrwt>0</asrwt>
<pdfrwt beam="1">  1        2 0.17373336E+00 0.33483660E+04</pdfrwt>
<pdfrwt beam="2">  1       -2 0.38185276E+00 0.33483660E+04</pdfrwt>
<totfact> 0.16924683E-01</totfact>
</mgrwt>
</event>
<event>
 6    1  0.1568961E-005  0.2203019E+04  0.7818608E-02  0.8517173E-01
          1   -1    0    0  501    0  0.00000000000E+00  0.00000000000E+00  0.11020171849E+04  0.11020171849E+04  0.00000000000E+00 0. -1.
         -1   -1    0    0    0  501 -0.00000000000E+00 -0.00000000000E+00 -0.11010018320E+04  0.11010018320E+04  0.00000000000E+00 0.  1.
         23    2    1    2    0    0 -0.82010868188E+03 -0.12198449121E+03  0.72283714792E+03  0.11037077917E+04  0.90658043685E+02 0.  0.
         11    1    3    3    0    0 -0.34161903768E+03 -0.14335847273E+02  0.26249882386E+03  0.43106231098E+03  0.00000000000E+00 0. -1.
        -11    1    3    3    0    0 -0.47848964420E+03 -0.10764864394E+03  0.46033832406E+03  0.67264548073E+03  0.00000000000E+00 0.  1.
         22    1    1    2    0    0  0.82010868188E+03  0.12198449121E+03 -0.72182179496E+03  0.10993112252E+04  0.00000000000E+00 0.  1.
<mgrwt>
<rscale>  0 0.22030188E+04</rscale>
<asrwt>0</asrwt>
<pdfrwt beam="1">  1        1 0.16954111E+00 0.22030188E+04</pdfrwt>
<pdfrwt beam="2">  1       -1 0.16938490E+00 0.22030188E+04</pdfrwt>
<totfact> 0.28635534E+00</totfact>
</mgrwt>
</event>
<event>
 6    1  0.1568961E-005  0.1398809E+04  0.7818608E-02  0.8954681E-01
         -2   -1    0    0    0  501 -0.00000000000E+00  0.00000000000E+00  0.23607380812E+04  0.23607380812E+04  0.00000000000E+00 0. -1.
          2   -1    0    0  501    0  0.00000000000E+00 -0.00000000000E+00 -0.20720914208E+03  0.20720914208E+03  0.00000000000E+00 0.  1.
         23    2    1    2    0    0  0.25462477439E+03 -0.60947300442E+03  0.67562710416E+03  0.94915602223E+03  0.90188978319E+02 0.  0.
         13    1    3    3    0    0  0.97182314611E+02 -0.21610321224E+03  0.30499052618E+03  0.38621784225E+03  0.00000000000E+00 0. -1.
        -13    1    3    3    0    0  0.15744245978E+03 -0.39336979218E+03  0.37063657798E+03  0.56293817998E+03  0.00000000000E+00 0.  1.
         22    1    1    2    0    0 -0.25462477439E+03  0.60947300442E+03  0.14779018350E+04  0.16187912011E+04  0.00000000000E+00 0. -1.
<mgrwt>
<rscale>  0 0.13988088E+04</rscale>
<asrwt>0</asrwt>
<pdfrwt beam="1">  1        2 0.31878331E-01 0.13988088E+04</pdfrwt>
<pdfrwt beam="2">  1       -2 0.36319045E+00 0.13988088E+04</pdfrwt>
<totfact> 0.20976004E+00</totfact>
</mgrwt>
</event>
<event>
 6    1  0.1568961E-005  0.3696267E+04  0.7818608E-02  0.8068790E-01
         -2   -1    0    0    0  501 -0.00000000000E+00  0.00000000000E+00  0.10493534954E+04  0.10493534954E+04  0.00000000000E+00 0.  1.
          2   -1    0    0  501    0  0.00000000000E+00 -0.00000000000E+00 -0.32549547871E+04  0.32549547871E+04  0.00000000000E+00 0. -1.
         23    2    1    2    0    0 -0.16685849461E+04 -0.66097263204E+03 -0.16131419187E+04  0.24143165759E+04  0.75080861303E+02 0.  0.
         13    1    3    3    0    0 -0.37623417463E+03 -0.12319325406E+03 -0.32937736417E+03  0.51499337863E+03  0.00000000000E+00 0. -1.
        -13    1    3    3    0    0 -0.12923507715E+04 -0.53777937799E+03 -0.12837645545E+04  0.18993231972E+04  0.00000000000E+00 0.  1.
         22    1    1    2    0    0  0.16685849461E+04  0.66097263204E+03 -0.59245937297E+03  0.18899917067E+04  0.00000000000E+00 0. -1.
<mgrwt>
<rscale>  0 0.36962674E+04</rscale>
<asrwt>0</asrwt>
<pdfrwt beam="1">  1        2 0.50076227E+00 0.36962674E+04</pdfrwt>
<pdfrwt beam="2">  1       -2 0.16143900E+00 0.36962674E+04</pdfrwt>
<totfact> 0.23692189E-01</totfact>
</mgrwt>
</event>
<event>
 6    1  0.1568961E-005  0.6184787E+03  0.7818608E-02  0.9867793E-01
          1   -1    0    0  501    0  0.00000000000E+00  0.00000000000E+00  0.69435245006E+03  0.69435245006E+03  0.00000000000E+00 0. -1.
         -1   -1    0    0    0  501 -0.00000000000E+00 -0.00000000000E+00 -0.13772398018E+03  0.13772398018E+03  0.00000000000E+00 0.  1.
         23    2    1    2    0    0  0.22011167609E+03  0.58890847714E+02  0.55206916522E+03  0.60417717803E+03  0.91282075868E+02 0.  0.
         11    1    3    3    0    0  0.11950517813E+03  0.46881429133E+02  0.41037147373E+03  0.42998151408E+03  0.00000000000E+00 0. -1.
        -11    1    3    3    0    0  0.10060649797E+03  0.12009418582E+02  0.14169769148E+03  0.17419566395E+03  0.00000000000E+00 0.  1.
         22    1    1    2    0    0 -0.22011167609E+03 -0.58890847714E+02  0.45593046576E+01  0.22789925221E+03  0.00000000000E+00 0. -1.
<mgrwt>
<rscale>  0 0.61847872E+03</rscale>
<asrwt>0</asrwt>
<pdfrwt beam="1">  1        1 0.10682345E+00 0.61847872E+03</pdfrwt>
<pdfrwt beam="2">  1       -1 0.21188305E-01 0.61847872E+03</pdfrwt>
<totfact> 0.51727770E+02</totfact>
</mgrwt>
</event>
<event>
 6    1  0.1568961E-005  0.1259703E+04  0.7818608E-02  0.9062146E-01
          2   -1    0    0  501    0  0.00000000000E+00  0.00000000000E+00  0.30548220671E+04  0.30548220671E+04  0.00000000000E+00 0. -1.
         -2   -1    0    0    0  501 -0.00000000000E+00 -0.00000000000E+00 -0.12986446984E+03  0.12986446984E+03  0.00000000000E+00 0.  1.
         23    2    1    2    0    0  0.33797839608E+03  0.50252039145E+03  0.10642886909E+04  0.12279430895E+04  0.91529631320E+02 0.  0.
         11    1    3    3    0    0  0.91395913489E+02  0.21365676017E+03  0.42282124352E+03  0.48247303359E+03  0.00000000000E+00 0. -1.
        -11    1    3    3    0    0  0.24658248259E+03  0.28886363128E+03  0.64146744735E+03  0.74547005587E+03  0.00000000000E+00 0.  1.
         22    1    1    2    0    0 -0.33797839608E+03 -0.50252039145E+03  0.18606689063E+04  0.19567434474E+04  0.00000000000E+00 0. -1.
<mgrwt>
<rscale>  0 0.12597029E+04</rscale>
<asrwt>0</asrwt>
<pdfrwt beam="1">  1        2 0.46997257E+00 0.12597029E+04</pdfrwt>
<pdfrwt beam="2">  1       -2 0.19979152E-01 0.12597029E+04</pdfrwt>
<totfact> 0.34301866E+01</totfact>
</mgrwt>
</event>
<event>
 6    1  0.1568961E-005  0.1415891E+04  0.7818608E-02  0.8942396E-01
         -2   -1    0    0    0  501 -0.00000000000E+00  0.00000000000E+00  0.74708046242E+03  0.74708046242E+03  0.00000000000E+00 0.  1.
          2   -1    0    0  501    0  0.00000000000E+00 -0.00000000000E+00 -0.67086018722E+03  0.67086018722E+03  0.00000000000E+00 0. -1.
         23    2    1    2    0    0  0.32773951563E+03 -0.16383146932E+02  0.66305190822E+03  0.74559180929E+03  0.92669927619E+02 0.  0.
         13    1    3    3    0    0  0.17139971857E+03  0.34540308830E+02  0.30430066797E+03  0.35095554275E+03  0.00000000000E+00 0. -1.
        -13    1    3    3    0    0  0.15633979706E+03 -0.50923455762E+02  0.35875124025E+03  0.39463626654E+03  0.00000000000E+00 0.  1.
         22    1    1    2    0    0 -0.32773951563E+03  0.16383146932E+02 -0.58683163302E+03  0.67234884035E+03  0.00000000000E+00 0. -1.
<mgrwt>
<rscale>  0 0.14158906E+04</rscale>
<asrwt>0</asrwt>
<pdfrwt beam="1">  1        2 0.10320926E+00 0.14158906E+04</pdfrwt>
<pdfrwt beam="2">  1       -2 0.11493546E+00 0.14158906E+04</pdfrwt>
<totfact> 0.24813247E+01</totfact>
</mgrwt>
</event>
<event>
 6    1  0.1568961E-005  0.3356412E+04  0.7818608E-02  0.8148688E-01
          2   -1    0    0  501    0  0.00000000000E+00  0.00000000000E+00  0.24006858744E+04  0.24006858744E+04  0.00000000000E+00 0. -1.
         -2   -1    0    0    0  501 -0.00000000000E+00 -0.00000000000E+00 -0.11731546302E+04  0.11731546302E+04  0.00000000000E+00 0.  1.
         23    2    1    2    0    0  0.10791623869E+04  0.38841982881E+03 -0.68841004612E+03  0.13408397325E+04  0.92094386565E+02 0.  0.
         11    1    3    3    0    0  0.86037356773E+03  0.28136102390E+03 -0.51081927353E+03  0.10393955128E+04  0.00000000000E+00 0.  1.
        -11    1    3    3    0    0  0.21878881914E+03  0.10705880491E+03 -0.17759077258E+03  0.30144421971E+03  0.00000000000E+00 0. -1.
         22    1    1    2    0    0 -0.10791623869E+04 -0.38841982881E+03  0.19159412903E+04  0.22330007722E+04  0.00000000000E+00 0. -1.
<mgrwt>
<rscale>  0 0.33564122E+04</rscale>
<asrwt>0</asrwt>
<pdfrwt beam="1">  1        2 0.36933629E+00 0.33564122E+04</pdfrwt>
<pdfrwt beam="2">  1       -2 0.18048533E+00 0.33564122E+04</pdfrwt>
<totfact> 0.59411841E-01</totfact>
</mgrwt>
</event>
<event>
 6    1  0.1568961E-005  0.5681970E+04  0.7818608E-02  0.7731135E-01
          2   -1    0    0  501    0  0.00000000000E+00  0.00000000000E+00  0.28770354330E+04  0.28770354330E+04  0.00000000000E+00 0. -1.
         -2   -1    0    0    0  501 -0.00000000000E+00 -0.00000000000E+00 -0.28053859997E+04  0.28053859997E+04  0.00000000000E+00 0.  1.
         23    2    1    2    0    0  0.14495043600E+03  0.18165090752E+04 -0.21429633062E+04  0.28144560502E+04  0.90306576437E+02 0.  0.
         11    1    3    3    0    0  0.80419464830E+02  0.55154208337E+03 -0.68643845850E+03  0.88423057929E+03  0.00000000000E+00 0.  1.
        -11    1    3    3    0    0  0.64530971169E+02  0.12649669919E+04 -0.14565248477E+04  0.19302254709E+04  0.00000000000E+00 0. -1.
         22    1    1    2    0    0 -0.14495043600E+03 -0.18165090752E+04  0.22146127394E+04  0.28679653824E+04  0.00000000000E+00 0. -1.
<mgrwt>
<rscale>  0 0.56819697E+04</rscale>
<asrwt>0</asrwt>
<pdfrwt beam="1">  1        2 0.44262084E+00 0.56819697E+04</pdfrwt>
<pdfrwt beam="2">  1       -2 0.43159785E+00 0.56819697E+04</pdfrwt>
<totfact> 0.65957357E-03</totfact>
</mgrwt>
</event>
<event>
 6    1  0.1568961E-005  0.1569128E+04  0.7818608E-02  0.8839741E-01
          2   -1    0    0  501    0  0.00000000000E+00  0.00000000000E+00  0.13492966159E+04  0.13492966159E+04  0.00000000000E+00 0. -1.
         -2   -1    0    0    0  501 -0.00000000000E+00 -0.00000000000E+00 -0.45619401508E+03  0.45619401508E+03  0.00000000000E+00 0.  1.
         23    2    1    2    0    0  0.26180816221E+03 -0.24430175198E+03 -0.35173595085E+03  0.51017218382E+03  0.91272220304E+02 0.  0.
         13    1    3    3    0    0  0.24650833483E+03 -0.20431244779E+03 -0.33712020099E+03  0.46493006504E+03  0.00000000000E+00 0.  1.
        -13    1    3    3    0    0  0.15299827383E+02 -0.39989304191E+02 -0.14615749862E+02  0.45242118780E+02  0.00000000000E+00 0. -1.
         22    1    1    2    0    0 -0.26180816221E+03  0.24430175198E+03  0.12448385517E+04  0.12953184472E+04  0.00000000000E+00 0. -1.
<mgrwt>
<rscale>  0 0.15691285E+04</rscale>
<asrwt>0</asrwt>
<pdfrwt beam="1">  1        2 0.20758409E+00 0.15691285E+04</pdfrwt>
<pdfrwt beam="2">  1       -2 0.70183695E-01 0.15691285E+04</pdfrwt>
<totfact> 0.27494560E+01</totfact>
</mgrwt>
</event>
<event>
 6    1  0.1568961E-005  0.6804237E+04  0.7818608E-02  0.7597968E-01
         -2   -1    0    0    0  501 -0.00000000000E+00  0.00000000000E+00  0.31564479089E+04  0.31564479089E+04  0.00000000000E+00 0.  1.
          2   -1    0    0  501    0  0.00000000000E+00 -0.00000000000E+00 -0.36669101053E+04  0.36669101053E+04  0.00000000000E+00 0. -1.
         23    2    1    2    0    0  0.14586712871E+04  0.36972861743E+03 -0.33143982924E+04  0.36411451356E+04  0.90998260687E+02 0.  0.
         11    1    3    3    0    0  0.90862023160E+03  0.22242006022E+03 -0.19538401365E+04  0.21662300633E+04  0.00000000000E+00 0.  1.
        -11    1    3    3    0    0  0.55005105553E+03  0.14730855721E+03 -0.13605581559E+04  0.14749150723E+04  0.00000000000E+00 0. -1.
         22    1    1    2    0    0 -0.14586712871E+04 -0.36972861743E+03  0.28039360960E+04  0.31822128786E+04  0.00000000000E+00 0.  1.
<mgrwt>
<rscale>  0 0.68042371E+04</rscale>
<asrwt>0</asrwt>
<pdfrwt beam="1">  1        2 0.56414002E+00 0.68042371E+04</pdfrwt>
<pdfrwt beam="2">  1       -2 0.48560737E+00 0.68042371E+04</pdfrwt>
<totfact> 0.80089931E-04</totfact>
</mgrwt>
</event>
<event>
 6    1  0.1568961E-005  0.5482130E+04  0.7818608E-02  0.7758153E-01
          1   -1    0    0  501    0  0.00000000000E+00  0.00000000000E+00  0.14875339140E+04  0.14875339140E+04  0.00000000000E+00 0. -1.
         -1   -1    0    0    0  501 -0.00000000000E+00 -0.00000000000E+00 -0.50509359942E+04  0.50509359942E+04  0.00000000000E+00 0.  1.
         23    2    1    2    0    0  0.27291696993E+03 -0.14189303060E+04 -0.45592348068E+04  0.47836110235E+04  0.92008232236E+02 0.  0.
         11    1    3    3    0    0  0.10595159715E+03 -0.67662117774E+03 -0.22900715470E+04  0.23902865204E+04  0.00000000000E+00 0. -1.
        -11    1    3    3    0    0  0.16696537278E+03 -0.74230912826E+03 -0.22691632597E+04  0.23933245030E+04  0.00000000000E+00 0.  1.
         22    1    1    2    0    0 -0.27291696993E+03  0.14189303060E+04  0.99583272657E+03  0.17548588847E+04  0.00000000000E+00 0. -1.
<mgrwt>
<rscale>  0 0.54821305E+04</rscale>
<asrwt>0</asrwt>
<pdfrwt beam="1">  1        1 0.22885137E+00 0.54821305E+04</pdfrwt>
<pdfrwt beam="2">  1       -1 0.77706709E+00 0.54821305E+04</pdfrwt>
<totfact> 0.44018489E-04</totfact>
</mgrwt>
</event>
<event>
 6    1  0.1568961E-005  0.1305158E+04  0.7818608E-02  0.9025485E-01
         -1   -1    0    0    0  501 -0.00000000000E+00  0.00000000000E+00  0.74507986371E+03  0.74507986371E+03  0.00000000000E+00 0.  1.
          1   -1    0    0  501    0  0.00000000000E+00 -0.00000000000E+00 -0.57156227067E+03  0.57156227067E+03  0.00000000000E+00 0. -1.
         23    2    1    2    0    0 -0.27048290583E+03 -0.44644324803E+03  0.47940995501E+03  0.71162749557E+03  0.64087529411E+02 0.  0.
         11    1    3    3    0    0 -0.11260084377E+03 -0.21744783202E+03  0.26179360216E+03  0.35846673458E+03  0.00000000000E+00 0. -1.
        -11    1    3    3    0    0 -0.15788206206E+03 -0.22899541601E+03  0.21761635285E+03  0.35316076099E+03  0.00000000000E+00 0.  1.
         22    1    1    2    0    0  0.27048290583E+03  0.44644324803E+03 -0.30589236198E+03  0.60501463881E+03  0.00000000000E+00 0. -1.
<mgrwt>
<rscale>  0 0.13051583E+04</rscale>
<asrwt>0</asrwt>
<pdfrwt beam="1">  1        1 0.87932657E-01 0.13051583E+04</pdfrwt>
<pdfrwt beam="2">  1       -1 0.11462767E+00 0.13051583E+04</pdfrwt>
<totfact> 0.24963598E+01</totfact>
</mgrwt>
</event>
<event>
 6    1  0.1568961E-005  0.1697680E+04  0.7818608E-02  0.8762689E-01
         -1   -1    0    0    0  501 -0.00000000000E+00  0.00000000000E+00  0.12543033097E+04  0.12543033097E+04  0.00000000000E+00 0.  1.
          1   -1    0    0  501    0  0.00000000000E+00 -0.00000000000E+00 -0.57444597374E+03  0.57444597374E+03  0.00000000000E+00 0. -1.
         23    2    1    2    0    0 -0.12243851313E+03 -0.25691692533E+03  0.11995465056E+04  0.12362340271E+04  0.91461766652E+02 0.  0.
         11    1    3    3    0    0 -0.10320380361E+03 -0.11368577586E+03  0.57056485329E+03  0.59086354815E+03  0.00000000000E+00 0. -1.
        -11    1    3    3    0    0 -0.19234709518E+02 -0.14323114947E+03  0.62898165227E+03  0.64537047896E+03  0.00000000000E+00 0.  1.
         22    1    1    2    0    0  0.12243851313E+03  0.25691692533E+03 -0.51968916959E+03  0.59251525635E+03  0.00000000000E+00 0. -1.
<mgrwt>
<rscale>  0 0.16976802E+04</rscale>
<asrwt>0</asrwt>
<pdfrwt beam="1">  1        1 0.88376304E-01 0.16976802E+04</pdfrwt>
<pdfrwt beam="2">  1       -1 0.19296974E+00 0.16976802E+04</pdfrwt>
<totfact> 0.58443545E+00</totfact>
</mgrwt>
</event>
<event>
 6    1  0.1568961E-005  0.2891836E+04  0.7818608E-02  0.8275311E-01
          1   -1    0    0  501    0  0.00000000000E+00  0.00000000000E+00  0.54947001095E+03  0.54947001095E+03  0.00000000000E+00 0. -1.
         -1   -1    0    0    0  501 -0.00000000000E+00 -0.00000000000E+00 -0.38049006408E+04  0.38049006408E+04  0.00000000000E+00 0.  1.
         23    2    1    2    0    0 -0.19991816041E+03 -0.14038560489E+04 -0.12139947475E+04  0.18687641788E+04  0.87847776906E+02 0.  0.
         13    1    3    3    0    0 -0.18126244265E+03 -0.99595162399E+03 -0.87480934005E+03  0.13379338892E+04  0.00000000000E+00 0.  1.
        -13    1    3    3    0    0 -0.18655717759E+02 -0.40790442492E+03 -0.33918540748E+03  0.53083028957E+03  0.00000000000E+00 0. -1.
         22    1    1    2    0    0  0.19991816041E+03  0.14038560489E+04 -0.20414358824E+04  0.24856064730E+04  0.00000000000E+00 0.  1.
<mgrwt>
<rscale>  0 0.28918360E+04</rscale>
<asrwt>0</asrwt>
<pdfrwt beam="1">  1        1 0.84533848E-01 0.28918360E+04</pdfrwt>
<pdfrwt beam="2">  1       -1 0.58536933E+00 0.28918360E+04</pdfrwt>
<totfact> 0.16719807E-02</totfact>
</mgrwt>
</event>
<event>
 6    1  0.1568961E-005  0.5907838E+03  0.7818608E-02  0.9924713E-01
         -1   -1    0    0    0  501 -0.00000000000E+00  0.00000000000E+00  0.35710112847E+03  0.35710112847E+03  0.00000000000E+00 0.  1.
          1   -1    0    0  501    0  0.00000000000E+00 -0.00000000000E+00 -0.24434642762E+03  0.24434642762E+03  0.00000000000E+00 0. -1.
         23    2    1    2    0    0 -0.11603627731E+03 -0.25412167486E+03 -0.12454062202E+02  0.29531118512E+03  0.94928125989E+02 0.  0.
         13    1    3    3    0    0 -0.38785975954E+02 -0.19139955402E+03 -0.24826225955E+01  0.19530566972E+03  0.00000000000E+00 0.  1.
        -13    1    3    3    0    0 -0.77250301355E+02 -0.62722120845E+02 -0.99714396062E+01  0.10000551540E+03  0.00000000000E+00 0. -1.
         22    1    1    2    0    0  0.11603627731E+03  0.25412167486E+03  0.12520876305E+03  0.30613637097E+03  0.00000000000E+00 0.  1.
<mgrwt>
<rscale>  0 0.59078384E+03</rscale>
<asrwt>0</asrwt>
<pdfrwt beam="1">  1        1 0.37591758E-01 0.59078384E+03</pdfrwt>
<pdfrwt beam="2">  1       -1 0.54938635E-01 0.59078384E+03</pdfrwt>
<totfact> 0.38871025E+02</totfact>
</mgrwt>
</event>
<event>
 6    1  0.1568961E-005  0.2749465E+04  0.7818608E-02  0.8319131E-01
         -2   -1    0    0    0  501 -0.00000000000E+00  0.00000000000E+00  0.21423261883E+04  0.21423261883E+04  0.00000000000E+00 0.  1.
          2   -1    0    0  501    0  0.00000000000E+00 -0.00000000000E+00 -0.88216727149E+03  0.88216727149E+03  0.00000000000E+00 0. -1.
         23    2    1    2    0    0  0.12429116022E+03 -0.65964264181E+03  0.19485905542E+04  0.20629765193E+04  0.91050885030E+02 0.  0.
         11    1    3    3    0    0  0.39148893025E+02 -0.14792236653E+03  0.56429837742E+03  0.58467625324E+03  0.00000000000E+00 0. -1.
        -11    1    3    3    0    0  0.85142267197E+02 -0.51172027528E+03  0.13842921768E+04  0.14783002660E+04  0.00000000000E+00 0.  1.
         22    1    1    2    0    0 -0.12429116022E+03  0.65964264181E+03 -0.68843163744E+03  0.96151694048E+03  0.00000000000E+00 0. -1.
<mgrwt>
<rscale>  0 0.27494654E+04</rscale>
<asrwt>0</asrwt>
<pdfrwt beam="1">  1        2 0.13571804E+00 0.27494654E+04</pdfrwt>
<pdfrwt beam="2">  1       -2 0.32958864E+00 0.27494654E+04</pdfrwt>
<totfact> 0.55017602E-01</totfact>
</mgrwt>
</event>
<event>
 6    1  0.1568961E-005  0.1434928E+04  0.7818608E-02  0.8928917E-01
         -2   -1    0    0    0  501 -0.00000000000E+00  0.00000000000E+00  0.27514627413E+03  0.27514627413E+03  0.00000000000E+00 0. -1.
          2   -1    0    0  501    0  0.00000000000E+00 -0.00000000000E+00 -0.18708402604E+04  0.18708402604E+04  0.00000000000E+00 0.  1.
         23    2    1    2    0    0 -0.60750028428E+03  0.70843858794E+01 -0.13635233289E+04  0.14955943466E+04  0.92194345243E+02 0.  0.
         11    1    3    3    0    0 -0.22170936119E+03 -0.20366495113E+02 -0.59372154131E+03  0.63409392331E+03  0.00000000000E+00 0.  1.
        -11    1    3    3    0    0 -0.38579092309E+03  0.27450880992E+02 -0.76980178760E+03  0.86150042333E+03  0.00000000000E+00 0. -1.
         22    1    1    2    0    0  0.60750028428E+03 -0.70843858794E+01 -0.23217065736E+03  0.65039218788E+03  0.00000000000E+00 0. -1.
<mgrwt>
<rscale>  0 0.14349282E+04</rscale>
<asrwt>0</asrwt>
<pdfrwt beam="1">  1        2 0.28782157E+00 0.14349282E+04</pdfrwt>
<pdfrwt beam="2">  1       -2 0.42330197E-01 0.14349282E+04</pdfrwt>
<totfact> 0.40484783E+01</totfact>
</mgrwt>
</event>
<event>
 6    1  0.1568961E-005  0.2625304E+04  0.7818608E-02  0.8359657E-01
         -4   -1    0    0    0  501 -0.00000000000E+00  0.00000000000E+00  0.83672587541E+03  0.83672587541E+03  0.00000000000E+00 0.  1.
          4   -1    0    0  501    0  0.00000000000E+00 -0.00000000000E+00 -0.20592824526E+04  0.20592824526E+04  0.00000000000E+00 0. -1.
         23    2    1    2    0    0  0.20913284480E+03 -0.11804011260E+04 -0.26015344487E+02  0.12022567858E+04  0.87528371807E+02 0.  0.
         13    1    3    3    0    0  0.13844133970E+03 -0.66910659355E+03  0.23855025020E+02  0.68369488830E+03  0.00000000000E+00 0. -1.
        -13    1    3    3    0    0  0.70691505103E+02 -0.51129453246E+03 -0.49870369507E+02  0.51856189753E+03  0.00000000000E+00 0.  1.
         22    1    1    2    0    0 -0.20913284480E+03  0.11804011260E+04 -0.11965412327E+04  0.16937515422E+04  0.00000000000E+00 0. -1.
<mgrwt>
<rscale>  0 0.26253037E+04</rscale>
<asrwt>0</asrwt>
<pdfrwt beam="1">  1        4 0.31681268E+00 0.26253037E+04</pdfrwt>
<pdfrwt beam="2">  1       -4 0.12872706E+00 0.26253037E+04</pdfrwt>
<totfact> 0.18897866E-02</totfact>
</mgrwt>
</event>
<event>
 6    1  0.1568961E-005  0.2818813E+04  0.7818608E-02  0.8297451E-01
          2   -1    0    0  501    0  0.00000000000E+00  0.00000000000E+00  0.22082942837E+04  0.22082942837E+04  0.00000000000E+00 0.  1.
         -2   -1    0    0    0  501 -0.00000000000E+00 -0.00000000000E+00 -0.89953009221E+03  0.89953009221E+03  0.00000000000E+00 0. -1.
         23    2    1    2    0    0 -0.16673982309E+03 -0.11067579410E+04  0.15967600966E+04  0.19521181199E+04  0.91689908965E+02 0.  0.
         13    1    3    3    0    0 -0.12482690240E+03 -0.78504449373E+03  0.10602901298E+04  0.13251761287E+04  0.00000000000E+00 0. -1.
        -13    1    3    3    0    0 -0.41912920696E+02 -0.32171344732E+03  0.53646996682E+03  0.62694199126E+03  0.00000000000E+00 0.  1.
         22    1    1    2    0    0  0.16673982309E+03  0.11067579410E+04 -0.28799590513E+03  0.11557062560E+04  0.00000000000E+00 0. -1.
<mgrwt>
<rscale>  0 0.28188133E+04</rscale>
<asrwt>0</asrwt>
<pdfrwt beam="1">  1        2 0.33973758E+00 0.28188133E+04</pdfrwt>
<pdfrwt beam="2">  1       -2 0.13838925E+00 0.28188133E+04</pdfrwt>
<totfact> 0.16426563E+00</totfact>
</mgrwt>
</event>
<event>
 6    1  0.1568961E-005  0.1767665E+04  0.7818608E-02  0.8723686E-01
         -2   -1    0    0    0  501 -0.00000000000E+00  0.00000000000E+00  0.10159194600E+04  0.10159194600E+04  0.00000000000E+00 0.  1.
          2   -1    0    0  501    0  0.00000000000E+00 -0.00000000000E+00 -0.76891933194E+03  0.76891933194E+03  0.00000000000E+00 0. -1.
         23    2    1    2    0    0  0.77518984024E+00  0.78121025049E+03  0.53627756279E+03  0.95178927923E+03  0.89549714219E+02 0.  0.
         13    1    3    3    0    0 -0.39879742551E+02  0.45787371272E+03  0.33532080119E+03  0.56892773740E+03  0.00000000000E+00 0. -1.
        -13    1    3    3    0    0  0.40654932391E+02  0.32333653777E+03  0.20095676160E+03  0.38286154184E+03  0.00000000000E+00 0.  1.
         22    1    1    2    0    0 -0.77518984024E+00 -0.78121025049E+03 -0.28927743473E+03  0.83304951272E+03  0.00000000000E+00 0. -1.
<mgrwt>
<rscale>  0 0.17676653E+04</rscale>
<asrwt>0</asrwt>
<pdfrwt beam="1">  1        2 0.11829528E+00 0.17676653E+04</pdfrwt>
<pdfrwt beam="2">  1       -2 0.15629530E+00 0.17676653E+04</pdfrwt>
<totfact> 0.92180553E+00</totfact>
</mgrwt>
</event>
<event>
 6    1  0.1568961E-005  0.3978529E+03  0.7818608E-02  0.1044526E+00
         -1   -1    0    0    0  501 -0.00000000000E+00  0.00000000000E+00  0.86747231720E+02  0.86747231720E+02  0.00000000000E+00 0.  1.
          1   -1    0    0  501    0  0.00000000000E+00 -0.00000000000E+00 -0.45617276454E+03  0.45617276454E+03  0.00000000000E+00 0. -1.
         23    2    1    2    0    0  0.79069687742E+02  0.12100925289E+03 -0.35864679456E+03  0.39796677622E+03  0.94099824234E+02 0.  0.
         13    1    3    3    0    0  0.39285940526E+02  0.16717835349E+02 -0.33729864092E+02  0.54411164970E+02  0.00000000000E+00 0. -1.
        -13    1    3    3    0    0  0.39783747216E+02  0.10429141754E+03 -0.32491693047E+03  0.34355561124E+03  0.00000000000E+00 0.  1.
         22    1    1    2    0    0 -0.79069687742E+02 -0.12100925289E+03 -0.10778738266E+02  0.14495322005E+03  0.00000000000E+00 0.  1.
<mgrwt>
<rscale>  0 0.39785286E+03</rscale>
<asrwt>0</asrwt>
<pdfrwt beam="1">  1        1 0.70180424E-01 0.39785286E+03</pdfrwt>
<pdfrwt beam="2">  1       -1 0.13345728E-01 0.39785286E+03</pdfrwt>
<totfact> 0.19841095E+03</totfact>
</mgrwt>
</event>
<event>
 6    1  0.1568961E-005  0.5049990E+04  0.7818608E-02  0.7820842E-01
         -2   -1    0    0    0  501 -0.00000000000E+00  0.00000000000E+00  0.24668396191E+04  0.24668396191E+04  0.00000000000E+00 0.  1.
          2   -1    0    0  501    0  0.00000000000E+00 -0.00000000000E+00 -0.25845213421E+04  0.25845213421E+04  0.00000000000E+00 0. -1.
         23    2    1    2    0    0  0.10180398148E+04 -0.13408737799E+04  0.18223572632E+04  0.24826844875E+04  0.91589909955E+02 0.  0.
         11    1    3    3    0    0  0.52779394419E+03 -0.73463971313E+03  0.10359481721E+04  0.13753001749E+04  0.00000000000E+00 0.  1.
        -11    1    3    3    0    0  0.49024587065E+03 -0.60623406682E+03  0.78640909105E+03  0.11073843127E+04  0.00000000000E+00 0. -1.
         22    1    1    2    0    0 -0.10180398148E+04  0.13408737799E+04 -0.19400389862E+04  0.25686764737E+04  0.00000000000E+00 0. -1.
<mgrwt>
<rscale>  0 0.50499900E+04</rscale>
<asrwt>0</asrwt>
<pdfrwt beam="1">  1        2 0.39761867E+00 0.50499900E+04</pdfrwt>
<pdfrwt beam="2">  1       -2 0.37951379E+00 0.50499900E+04</pdfrwt>
<totfact> 0.22733487E-02</totfact>
</mgrwt>
</event>
<event>
 6    1  0.1568961E-005  0.4261509E+03  0.7818608E-02  0.1035083E+00
          1   -1    0    0  501    0  0.00000000000E+00  0.00000000000E+00  0.33835940398E+03  0.33835940398E+03  0.00000000000E+00 0. -1.
         -1   -1    0    0    0  501 -0.00000000000E+00 -0.00000000000E+00 -0.13418025595E+03  0.13418025595E+03  0.00000000000E+00 0.  1.
         23    2    1    2    0    0  0.34249189455E+02  0.48804170866E+02 -0.10907054765E+03  0.15366629021E+03  0.90344287641E+02 0.  0.
         11    1    3    3    0    0  0.48682456138E+02 -0.67648413471E+01 -0.63888941453E+02  0.80607328786E+02  0.00000000000E+00 0.  1.
        -11    1    3    3    0    0 -0.14433266683E+02  0.55569012213E+02 -0.45181606194E+02  0.73058961420E+02  0.00000000000E+00 0. -1.
         22    1    1    2    0    0 -0.34249189455E+02 -0.48804170866E+02  0.31324969568E+03  0.31887336972E+03  0.00000000000E+00 0. -1.
<mgrwt>
<rscale>  0 0.42615092E+03</rscale>
<asrwt>0</asrwt>
<pdfrwt beam="1">  1        1 0.52055293E-01 0.42615092E+03</pdfrwt>
<pdfrwt beam="2">  1       -1 0.20643116E-01 0.42615092E+03</pdfrwt>
<totfact> 0.14454597E+03</totfact>
</mgrwt>
</event>
<event>
 6    1  0.1568961E-005  0.1121234E+04  0.7818608E-02  0.9184739E-01
         -2   -1    0    0    0  501 -0.00000000000E+00  0.00000000000E+00  0.23678896673E+03  0.23678896673E+03  0.00000000000E+00 0.  1.
          2   -1    0    0  501    0  0.00000000000E+00 -0.00000000000E+00 -0.13273066203E+04  0.13273066203E+04  0.00000000000E+00 0. -1.
         23    2    1    2    0    0  0.47643572929E+03  0.22728617634E+03 -0.30286983401E+03  0.61591886419E+03  0.94741230774E+02 0.  0.
         11    1    3    3    0    0  0.22568777724E+03  0.67442733330E+02 -0.99721430815E+02  0.25578869959E+03  0.00000000000E+00 0. -1.
        -11    1    3    3    0    0  0.25074795205E+03  0.15984344301E+03 -0.20314840320E+03  0.36013016460E+03  0.00000000000E+00 0.  1.
         22    1    1    2    0    0 -0.47643572929E+03 -0.22728617634E+03 -0.78764781960E+03  0.94817672289E+03  0.00000000000E+00 0. -1.
<mgrwt>
<rscale>  0 0.11212343E+04</rscale>
<asrwt>0</asrwt>
<pdfrwt beam="1">  1        2 0.20420102E+00 0.11212343E+04</pdfrwt>
<pdfrwt beam="2">  1       -2 0.36429072E-01 0.11212343E+04</pdfrwt>
<totfact> 0.11200615E+02</totfact>
</mgrwt>
</event>
<event>
 6    1  0.1568961E-005  0.6050652E+04  0.7818608E-02  0.7684153E-01
         -1   -1    0    0    0  501 -0.00000000000E+00  0.00000000000E+00  0.21256062846E+04  0.21256062846E+04  0.00000000000E+00 0.  1.
          1   -1    0    0  501    0  0.00000000000E+00 -0.00000000000E+00 -0.43058755110E+04  0.43058755110E+04  0.00000000000E+00 0. -1.
         23    2    1    2    0    0 -0.11337793506E+04 -0.27753998981E+04 -0.66520564230E+03  0.30723572260E+04  0.92629191347E+02 0.  0.
         11    1    3    3    0    0 -0.40405859574E+03 -0.87498970984E+03 -0.21673451780E+03  0.98784826382E+03  0.00000000000E+00 0. -1.
        -11    1    3    3    0    0 -0.72972075486E+03 -0.19004101883E+04 -0.44847112449E+03  0.20845089621E+04  0.00000000000E+00 0.  1.
         22    1    1    2    0    0  0.11337793506E+04  0.27753998981E+04 -0.15150635841E+04  0.33591245696E+04  0.00000000000E+00 0. -1.
<mgrwt>
<rscale>  0 0.60506516E+04</rscale>
<asrwt>0</asrwt>
<pdfrwt beam="1">  1        1 0.66244238E+00 0.60506516E+04</pdfrwt>
<pdfrwt beam="2">  1       -1 0.32701635E+00 0.60506516E+04</pdfrwt>
<totfact> 0.73118677E-04</totfact>
</mgrwt>
</event>
<event>
 6    1  0.1568961E-005  0.4341955E+04  0.7818608E-02  0.7938906E-01
         -2   -1    0    0    0  501 -0.00000000000E+00  0.00000000000E+00  0.11565387673E+04  0.11565387673E+04  0.00000000000E+00 0.  1.
          2   -1    0    0  501    0  0.00000000000E+00 -0.00000000000E+00 -0.40752133723E+04  0.40752133723E+04  0.00000000000E+00 0. -1.
         23    2    1    2    0    0  0.13125162064E+04 -0.18144491400E+03 -0.35307111015E+04  0.37722283399E+04  0.90358825809E+02 0.  0.
         13    1    3    3    0    0  0.56980520856E+03 -0.12306443502E+03 -0.15762282531E+04  0.16805708366E+04  0.00000000000E+00 0. -1.
        -13    1    3    3    0    0  0.74271099786E+03 -0.58380478977E+02 -0.19544828483E+04  0.20916575033E+04  0.00000000000E+00 0.  1.
         22    1    1    2    0    0 -0.13125162064E+04  0.18144491400E+03  0.61203649648E+03  0.14595237997E+04  0.00000000000E+00 0.  1.
<mgrwt>
<rscale>  0 0.43419545E+04</rscale>
<asrwt>0</asrwt>
<pdfrwt beam="1">  1        2 0.62695591E+00 0.43419545E+04</pdfrwt>
<pdfrwt beam="2">  1       -2 0.17792904E+00 0.43419545E+04</pdfrwt>
<totfact> 0.42498409E-02</totfact>
</mgrwt>
</event>
<event>
 6    1  0.1568961E-005  0.1215285E+04  0.7818608E-02  0.9099582E-01
         -2   -1    0    0    0  501 -0.00000000000E+00  0.00000000000E+00  0.49862480437E+03  0.49862480437E+03  0.00000000000E+00 0.  1.
          2   -1    0    0  501    0  0.00000000000E+00 -0.00000000000E+00 -0.74049540587E+03  0.74049540587E+03  0.00000000000E+00 0. -1.
         23    2    1    2    0    0 -0.21747990533E+03  0.30518073181E+03  0.36347550110E+03  0.52716747851E+03  0.73200561591E+02 0.  0.
         13    1    3    3    0    0 -0.14350628214E+02  0.58968040000E+02  0.78891972757E+02  0.99534484663E+02  0.00000000000E+00 0.  1.
        -13    1    3    3    0    0 -0.20312927711E+03  0.24621269181E+03  0.28458352834E+03  0.42763299385E+03  0.00000000000E+00 0. -1.
         22    1    1    2    0    0  0.21747990533E+03 -0.30518073181E+03 -0.60534610260E+03  0.71195273173E+03  0.00000000000E+00 0. -1.
<mgrwt>
<rscale>  0 0.12152849E+04</rscale>
<asrwt>0</asrwt>
<pdfrwt beam="1">  1        2 0.11392237E+00 0.12152849E+04</pdfrwt>
<pdfrwt beam="2">  1       -2 0.76711509E-01 0.12152849E+04</pdfrwt>
<totfact> 0.57101848E+01</totfact>
</mgrwt>
</event>
<event>
 6    1  0.1568961E-005  0.7830856E+03  0.7818608E-02  0.9584828E-01
          2   -1    0    0  501    0  0.00000000000E+00  0.00000000000E+00  0.84191844387E+03  0.84191844387E+03  0.00000000000E+00 0. -1.
         -2   -1    0    0    0  501 -0.00000000000E+00 -0.00000000000E+00 -0.18209099522E+03  0.18209099522E+03  0.00000000000E+00 0.  1.
         23    2    1    2    0    0 -0.13904101459E+03 -0.28417357289E+03  0.62427686709E+03  0.70565292963E+03  0.90207688379E+02 0.  0.
         13    1    3    3    0    0 -0.71999396256E+02 -0.72986940002E+02  0.25729513421E+03  0.27696893789E+03  0.00000000000E+00 0.  1.
        -13    1    3    3    0    0 -0.67041618338E+02 -0.21118663289E+03  0.36698173289E+03  0.42868399174E+03  0.00000000000E+00 0. -1.
         22    1    1    2    0    0  0.13904101459E+03  0.28417357289E+03  0.35550581556E+02  0.31835650946E+03  0.00000000000E+00 0.  1.
<mgrwt>
<rscale>  0 0.78308561E+03</rscale>
<asrwt>0</asrwt>
<pdfrwt beam="1">  1        2 0.12952591E+00 0.78308561E+03</pdfrwt>
<pdfrwt beam="2">  1       -2 0.28014000E-01 0.78308561E+03</pdfrwt>
<totfact> 0.37613568E+02</totfact>
</mgrwt>
</event>
<event>
 6    1  0.1568961E-005  0.2504525E+04  0.7818608E-02  0.8401375E-01
          2   -1    0    0  501    0  0.00000000000E+00  0.00000000000E+00  0.20663874656E+04  0.20663874656E+04  0.00000000000E+00 0. -1.
         -2   -1    0    0    0  501 -0.00000000000E+00 -0.00000000000E+00 -0.75889013168E+03  0.75889013168E+03  0.00000000000E+00 0.  1.
         23    2    1    2    0    0 -0.22559099259E+03 -0.83797694740E+03 -0.36114748205E+03  0.94446070502E+03  0.92097009841E+02 0.  0.
         11    1    3    3    0    0 -0.49227734828E+02 -0.31411432753E+03 -0.16274324029E+03  0.35717858684E+03  0.00000000000E+00 0. -1.
        -11    1    3    3    0    0 -0.17636325776E+03 -0.52386261988E+03 -0.19840424176E+03  0.58728211819E+03  0.00000000000E+00 0.  1.
         22    1    1    2    0    0  0.22559099259E+03  0.83797694740E+03  0.16686448160E+04  0.18808168923E+04  0.00000000000E+00 0. -1.
<mgrwt>
<rscale>  0 0.25045248E+04</rscale>
<asrwt>0</asrwt>
<pdfrwt beam="1">  1        2 0.31790576E+00 0.25045248E+04</pdfrwt>
<pdfrwt beam="2">  1       -2 0.11675233E+00 0.25045248E+04</pdfrwt>
<totfact> 0.31081283E+00</totfact>
</mgrwt>
</event>
<event>
 6    1  0.1568961E-005  0.1101315E+04  0.7818608E-02  0.9203911E-01
         -1   -1    0    0    0  501 -0.00000000000E+00  0.00000000000E+00  0.18189805597E+03  0.18189805597E+03  0.00000000000E+00 0.  1.
          1   -1    0    0  501    0  0.00000000000E+00 -0.00000000000E+00 -0.16669994146E+04  0.16669994146E+04  0.00000000000E+00 0. -1.
         23    2    1    2    0    0  0.33637360105E+03 -0.28572377018E+03 -0.12900031657E+04  0.13663536102E+04  0.89603282237E+02 0.  0.
         13    1    3    3    0    0  0.35124096277E+01  0.65074055986E+01 -0.19842766678E+02  0.21175899945E+02  0.00000000000E+00 0. -1.
        -13    1    3    3    0    0  0.33286119142E+03 -0.29223117578E+03 -0.12701603991E+04  0.13451777103E+04  0.00000000000E+00 0.  1.
         22    1    1    2    0    0 -0.33637360105E+03  0.28572377018E+03 -0.19509819293E+03  0.48254386041E+03  0.00000000000E+00 0.  1.
<mgrwt>
<rscale>  0 0.11013155E+04</rscale>
<asrwt>0</asrwt>
<pdfrwt beam="1">  1        1 0.25646144E+00 0.11013155E+04</pdfrwt>
<pdfrwt beam="2">  1       -1 0.27984317E-01 0.11013155E+04</pdfrwt>
<totfact> 0.57673711E+01</totfact>
</mgrwt>
</event>
<event>
 6    1  0.1568961E-005  0.7744576E+03  0.7818608E-02  0.9597743E-01
          2   -1    0    0  501    0  0.00000000000E+00  0.00000000000E+00  0.19095456276E+04  0.19095456276E+04  0.00000000000E+00 0.  1.
         -2   -1    0    0    0  501 -0.00000000000E+00 -0.00000000000E+00 -0.78524507945E+02  0.78524507945E+02  0.00000000000E+00 0. -1.
         23    2    1    2    0    0  0.34452924574E+03 -0.16061882746E+03  0.10198567956E+04  0.10922541000E+04  0.91718736148E+02 0.  0.
         13    1    3    3    0    0  0.97350521350E+02 -0.61637171332E+02  0.20710254364E+03  0.23699731745E+03  0.00000000000E+00 0. -1.
        -13    1    3    3    0    0  0.24717872439E+03 -0.98981656128E+02  0.81275425193E+03  0.85525678254E+03  0.00000000000E+00 0.  1.
         22    1    1    2    0    0 -0.34452924574E+03  0.16061882746E+03  0.81116432410E+03  0.89581603557E+03  0.00000000000E+00 0.  1.
<mgrwt>
<rscale>  0 0.77445757E+03</rscale>
<asrwt>0</asrwt>
<pdfrwt beam="1">  1        2 0.29377622E+00 0.77445757E+03</pdfrwt>
<pdfrwt beam="2">  1       -2 0.12080695E-01 0.77445757E+03</pdfrwt>
<totfact> 0.38493795E+02</totfact>
</mgrwt>
</event>
<event>
 6    1  0.1568961E-005  0.2792466E+04  0.7818608E-02  0.8305611E-01
          2   -1    0    0  501    0  0.00000000000E+00  0.00000000000E+00  0.45019569321E+04  0.45019569321E+04  0.00000000000E+00 0. -1.
         -2   -1    0    0    0  501 -0.00000000000E+00 -0.00000000000E+00 -0.43302633699E+03  0.43302633699E+03  0.00000000000E+00 0.  1.
         23    2    1    2    0    0 -0.97028951259E+03  0.89386395037E+03  0.28368992684E+04  0.31298916675E+04  0.88146987668E+02 0.  0.
         11    1    3    3    0    0 -0.59354507688E+03  0.49993227580E+03  0.17284172859E+04  0.18946383171E+04  0.00000000000E+00 0. -1.
        -11    1    3    3    0    0 -0.37674443571E+03  0.39393167457E+03  0.11084819825E+04  0.12352533504E+04  0.00000000000E+00 0.  1.
         22    1    1    2    0    0  0.97028951259E+03 -0.89386395037E+03  0.12320313267E+04  0.18050916016E+04  0.00000000000E+00 0.  1.
<mgrwt>
<rscale>  0 0.27924655E+04</rscale>
<asrwt>0</asrwt>
<pdfrwt beam="1">  1        2 0.69260873E+00 0.27924655E+04</pdfrwt>
<pdfrwt beam="2">  1       -2 0.66619440E-01 0.27924655E+04</pdfrwt>
<totfact> 0.22122263E-01</totfact>
</mgrwt>
</event>
<event>
 6    1  0.1568961E-005  0.1570500E+04  0.7818608E-02  0.8838879E-01
         -2   -1    0    0    0  501 -0.00000000000E+00  0.00000000000E+00  0.18967062799E+03  0.18967062799E+03  0.00000000000E+00 0.  1.
          2   -1    0    0  501    0  0.00000000000E+00 -0.00000000000E+00 -0.32509911177E+04  0.32509911177E+04  0.00000000000E+00 0. -1.
         23    2    1    2    0    0 -0.69330727986E+03 -0.32767169034E+03 -0.18712701499E+04  0.20249415995E+04  0.10340593121E+03 0.  0.
         11    1    3    3    0    0 -0.12738608092E+03 -0.67364231783E+02 -0.25680809557E+03  0.29447504357E+03  0.00000000000E+00 0. -1.
        -11    1    3    3    0    0 -0.56592119894E+03 -0.26030745856E+03 -0.16144620543E+04  0.17304665560E+04  0.00000000000E+00 0.  1.
         22    1    1    2    0    0  0.69330727986E+03  0.32767169034E+03 -0.11900503398E+04  0.14157201461E+04  0.00000000000E+00 0. -1.
<mgrwt>
<rscale>  0 0.15705000E+04</rscale>
<asrwt>0</asrwt>
<pdfrwt beam="1">  1        2 0.50015245E+00 0.15705000E+04</pdfrwt>
<pdfrwt beam="2">  1       -2 0.29180098E-01 0.15705000E+04</pdfrwt>
<totfact> 0.12573498E+01</totfact>
</mgrwt>
</event>
<event>
 6    1  0.1568961E-005  0.1343356E+04  0.7818608E-02  0.8995873E-01
         -1   -1    0    0    0  501 -0.00000000000E+00  0.00000000000E+00  0.29087312092E+03  0.29087312092E+03  0.00000000000E+00 0.  1.
          1   -1    0    0  501    0  0.00000000000E+00 -0.00000000000E+00 -0.15510245344E+04  0.15510245344E+04  0.00000000000E+00 0. -1.
         23    2    1    2    0    0  0.13385558368E+03  0.61675343151E+03 -0.33025044587E+03  0.71805695391E+03  0.90765188829E+02 0.  0.
         11    1    3    3    0    0  0.65169657129E+02  0.43449885338E+03 -0.26270935576E+03  0.51191067913E+03  0.00000000000E+00 0. -1.
        -11    1    3    3    0    0  0.68685926548E+02  0.18225457813E+03 -0.67541090109E+02  0.20614627478E+03  0.00000000000E+00 0.  1.
         22    1    1    2    0    0 -0.13385558368E+03 -0.61675343151E+03 -0.92990096759E+03  0.11238407014E+04  0.00000000000E+00 0. -1.
<mgrwt>
<rscale>  0 0.13433560E+04</rscale>
<asrwt>0</asrwt>
<pdfrwt beam="1">  1        1 0.23861917E+00 0.13433560E+04</pdfrwt>
<pdfrwt beam="2">  1       -1 0.44749710E-01 0.13433560E+04</pdfrwt>
<totfact> 0.29226056E+01</totfact>
</mgrwt>
</event>
<event>
 6    1  0.1568961E-005  0.1961732E+04  0.7818608E-02  0.8624724E-01
          2   -1    0    0  501    0  0.00000000000E+00  0.00000000000E+00  0.18978268743E+04  0.18978268743E+04  0.00000000000E+00 0.  1.
         -2   -1    0    0    0  501 -0.00000000000E+00 -0.00000000000E+00 -0.50694706788E+03  0.50694706788E+03  0.00000000000E+00 0. -1.
         23    2    1    2    0    0 -0.32678467152E+03  0.67068094806E+03 -0.79714370159E+02  0.75575957360E+03  0.90647651008E+02 0.  0.
         13    1    3    3    0    0 -0.19915186574E+03  0.49715702786E+03 -0.70179385112E+02  0.54014046513E+03  0.00000000000E+00 0. -1.
        -13    1    3    3    0    0 -0.12763280578E+03  0.17352392020E+03 -0.95349850468E+01  0.21561910846E+03  0.00000000000E+00 0.  1.
         22    1    1    2    0    0  0.32678467152E+03 -0.67068094806E+03  0.14705941766E+04  0.16490143686E+04  0.00000000000E+00 0.  1.
<mgrwt>
<rscale>  0 0.19617317E+04</rscale>
<asrwt>0</asrwt>
<pdfrwt beam="1">  1        2 0.29197336E+00 0.19617317E+04</pdfrwt>
<pdfrwt beam="2">  1       -2 0.77991858E-01 0.19617317E+04</pdfrwt>
<totfact> 0.10384337E+01</totfact>
</mgrwt>
</event>
<event>
 6    1  0.1568961E-005  0.2586380E+04  0.7818608E-02  0.8372842E-01
         -1   -1    0    0    0  501 -0.00000000000E+00  0.00000000000E+00  0.68236071008E+03  0.68236071008E+03  0.00000000000E+00 0.  1.
          1   -1    0    0  501    0  0.00000000000E+00 -0.00000000000E+00 -0.24508153466E+04  0.24508153466E+04  0.00000000000E+00 0. -1.
         23    2    1    2    0    0  0.11030999677E+04  0.56087079054E+03 -0.43740080877E+03  0.13157300809E+04  0.91763804202E+02 0.  0.
         11    1    3    3    0    0  0.62597070361E+03  0.27366978668E+03 -0.21717676016E+03  0.71686834152E+03  0.00000000000E+00 0. -1.
        -11    1    3    3    0    0  0.47712926414E+03  0.28720100386E+03 -0.22022404861E+03  0.59886173938E+03  0.00000000000E+00 0.  1.
         22    1    1    2    0    0 -0.11030999677E+04 -0.56087079054E+03 -0.13310538277E+04  0.18174459758E+04  0.00000000000E+00 0.  1.
<mgrwt>
<rscale>  0 0.25863798E+04</rscale>
<asrwt>0</asrwt>
<pdfrwt beam="1">  1        1 0.37704851E+00 0.25863798E+04</pdfrwt>
<pdfrwt beam="2">  1       -1 0.10497857E+00 0.25863798E+04</pdfrwt>
<totfact> 0.11001786E+00</totfact>
</mgrwt>
</event>
<event>
 6    1  0.1725067E-005  0.4544315E+04  0.7818608E-02  0.7902924E-01
          1   -1    0    0  501    0  0.00000000000E+00  0.00000000000E+00  0.21815554600E+04  0.21815554600E+04  0.00000000000E+00 0. -1.
         -1   -1    0    0    0  501 -0.00000000000E+00 -0.00000000000E+00 -0.23665221990E+04  0.23665221990E+04  0.00000000000E+00 0.  1.
         23    2    1    2    0    0 -0.11771262098E+04 -0.17824514102E+04 -0.86503315175E+03  0.23063708384E+04  0.91131482109E+02 0.  0.
         13    1    3    3    0    0 -0.50117916253E+03 -0.76721013511E+03 -0.41962465105E+03  0.10079071347E+04  0.00000000000E+00 0.  1.
        -13    1    3    3    0    0 -0.67594704726E+03 -0.10152412751E+04 -0.44540850070E+03  0.12984637037E+04  0.00000000000E+00 0. -1.
         22    1    1    2    0    0  0.11771262098E+04  0.17824514102E+04  0.68006641282E+03  0.22417068206E+04  0.00000000000E+00 0. -1.
<mgrwt>
<rscale>  0 0.45443149E+04</rscale>
<asrwt>0</asrwt>
<pdfrwt beam="1">  1        1 0.33562392E+00 0.45443149E+04</pdfrwt>
<pdfrwt beam="2">  1       -1 0.36408034E+00 0.45443149E+04</pdfrwt>
<totfact> 0.21019143E-02</totfact>
</mgrwt>
</event>
<event>
 6    1  0.1568961E-005  0.1311632E+04  0.7818608E-02  0.9020392E-01
         -4   -1    0    0    0  501 -0.00000000000E+00  0.00000000000E+00  0.22423678721E+03  0.22423678721E+03  0.00000000000E+00 0.  1.
          4   -1    0    0  501    0  0.00000000000E+00 -0.00000000000E+00 -0.19180369181E+04  0.19180369181E+04  0.00000000000E+00 0. -1.
         23    2    1    2    0    0 -0.35555956746E+02 -0.19156828367E+03 -0.18683021257E+04  0.18807138085E+04  0.92568694798E+02 0.  0.
         11    1    3    3    0    0 -0.27713970842E+02 -0.14810212033E+03 -0.99983625165E+03  0.10111255275E+04  0.00000000000E+00 0.  1.
        -11    1    3    3    0    0 -0.78419859041E+01 -0.43466163331E+02 -0.86846587409E+03  0.86958828106E+03  0.00000000000E+00 0. -1.
         22    1    1    2    0    0  0.35555956746E+02  0.19156828367E+03  0.17450199487E+03  0.26155989674E+03  0.00000000000E+00 0.  1.
<mgrwt>
<rscale>  0 0.13116317E+04</rscale>
<asrwt>0</asrwt>
<pdfrwt beam="1">  1        4 0.29508259E+00 0.13116317E+04</pdfrwt>
<pdfrwt beam="2">  1       -4 0.34497968E-01 0.13116317E+04</pdfrwt>
<totfact> 0.53634078E-01</totfact>
</mgrwt>
</event>
<event>
 6    1  0.1568961E-005  0.8894593E+03  0.7818608E-02  0.9438855E-01
         -2   -1    0    0    0  501 -0.00000000000E+00  0.00000000000E+00  0.79852993710E+02  0.79852993710E+02  0.00000000000E+00 0.  1.
          2   -1    0    0  501    0  0.00000000000E+00 -0.00000000000E+00 -0.24768571348E+04  0.24768571348E+04  0.00000000000E+00 0. -1.
         23    2    1    2    0    0  0.14675585097E+03  0.32452572437E+03 -0.19540476812E+04  0.19883223639E+04  0.90935455093E+02 0.  0.
         13    1    3    3    0    0  0.15277198282E+03  0.27607835576E+03 -0.17703347033E+04  0.17982334384E+04  0.00000000000E+00 0.  1.
        -13    1    3    3    0    0 -0.60161318564E+01  0.48447368606E+02 -0.18371297783E+03  0.19008892549E+03  0.00000000000E+00 0. -1.
         22    1    1    2    0    0 -0.14675585097E+03 -0.32452572437E+03 -0.44295645997E+03  0.56838776465E+03  0.00000000000E+00 0.  1.
<mgrwt>
<rscale>  0 0.88945929E+03</rscale>
<asrwt>0</asrwt>
<pdfrwt beam="1">  1        2 0.38105486E+00 0.88945929E+03</pdfrwt>
<pdfrwt beam="2">  1       -2 0.12285079E-01 0.88945929E+03</pdfrwt>
<totfact> 0.17988052E+02</totfact>
</mgrwt>
</event>
<event>
 6    1  0.1568961E-005  0.7559361E+03  0.7818608E-02  0.9626083E-01
          2   -1    0    0  501    0  0.00000000000E+00  0.00000000000E+00  0.47672239775E+03  0.47672239775E+03  0.00000000000E+00 0. -1.
         -2   -1    0    0    0  501 -0.00000000000E+00 -0.00000000000E+00 -0.29967090180E+03  0.29967090180E+03  0.00000000000E+00 0.  1.
         23    2    1    2    0    0  0.26708264566E+03  0.23468820524E+03  0.20428857144E+03  0.41980733295E+03  0.89959341317E+02 0.  0.
         11    1    3    3    0    0  0.47632369454E+02  0.57158365176E+02  0.55830141657E+01  0.74612943760E+02  0.00000000000E+00 0.  1.
        -11    1    3    3    0    0  0.21945027620E+03  0.17752984007E+03  0.19870555727E+03  0.34519438919E+03  0.00000000000E+00 0. -1.
         22    1    1    2    0    0 -0.26708264566E+03 -0.23468820524E+03 -0.27237075489E+02  0.35658596660E+03  0.00000000000E+00 0. -1.
<mgrwt>
<rscale>  0 0.75593606E+03</rscale>
<asrwt>0</asrwt>
<pdfrwt beam="1">  1        2 0.73341907E-01 0.75593606E+03</pdfrwt>
<pdfrwt beam="2">  1       -2 0.46103216E-01 0.75593606E+03</pdfrwt>
<totfact> 0.29261296E+02</totfact>
</mgrwt>
</event>
<event>
 6    1  0.1568961E-005  0.2264655E+04  0.7818608E-02  0.8491989E-01
          2   -1    0    0  501    0  0.00000000000E+00  0.00000000000E+00  0.14608803599E+04  0.14608803599E+04  0.00000000000E+00 0. -1.
         -2   -1    0    0    0  501 -0.00000000000E+00 -0.00000000000E+00 -0.87766630172E+03  0.87766630172E+03  0.00000000000E+00 0.  1.
         23    2    1    2    0    0  0.86707910732E+03 -0.64987165018E+03  0.62490833964E+03  0.12541584686E+04  0.90794775763E+02 0.  0.
         11    1    3    3    0    0  0.67544453722E+03 -0.45836600583E+03  0.45939448308E+03  0.93667924566E+03  0.00000000000E+00 0.  1.
        -11    1    3    3    0    0  0.19163457010E+03 -0.19150564435E+03  0.16551385656E+03  0.31747922293E+03  0.00000000000E+00 0. -1.
         22    1    1    2    0    0 -0.86707910732E+03  0.64987165018E+03 -0.41694281467E+02  0.10843881930E+04  0.00000000000E+00 0.  1.
<mgrwt>
<rscale>  0 0.22646549E+04</rscale>
<asrwt>0</asrwt>
<pdfrwt beam="1">  1        2 0.22475082E+00 0.22646549E+04</pdfrwt>
<pdfrwt beam="2">  1       -2 0.13502558E+00 0.22646549E+04</pdfrwt>
<totfact> 0.47902861E+00</totfact>
</mgrwt>
</event>
<event>
 6    1  0.1568961E-005  0.3172539E+04  0.7818608E-02  0.8196107E-01
         -2   -1    0    0    0  501 -0.00000000000E+00  0.00000000000E+00  0.18594322761E+04  0.18594322761E+04  0.00000000000E+00 0.  1.
          2   -1    0    0  501    0  0.00000000000E+00 -0.00000000000E+00 -0.13532362490E+04  0.13532362490E+04  0.00000000000E+00 0. -1.
         23    2    1    2    0    0 -0.10550491922E+04  0.11385450263E+04  0.57752750656E+03  0.16588018144E+04  0.93122841973E+02 0.  0.
         13    1    3    3    0    0 -0.77755795676E+03  0.86348484502E+03  0.39244069471E+03  0.12264632700E+04  0.00000000000E+00 0. -1.
        -13    1    3    3    0    0 -0.27749123545E+03  0.27506018126E+03  0.18508681185E+03  0.43233854441E+03  0.00000000000E+00 0.  1.
         22    1    1    2    0    0  0.10550491922E+04 -0.11385450263E+04 -0.71331479405E+02  0.15538667108E+04  0.00000000000E+00 0.  1.
<mgrwt>
<rscale>  0 0.31725391E+04</rscale>
<asrwt>0</asrwt>
<pdfrwt beam="1">  1        2 0.20819019E+00 0.31725391E+04</pdfrwt>
<pdfrwt beam="2">  1       -2 0.28606651E+00 0.31725391E+04</pdfrwt>
<totfact> 0.50243580E-01</totfact>
</mgrwt>
</event>
<event>
 6    1  0.1568961E-005  0.3795522E+04  0.7818608E-02  0.8047116E-01
         -2   -1    0    0    0  501 -0.00000000000E+00  0.00000000000E+00  0.86733718606E+03  0.86733718606E+03  0.00000000000E+00 0.  1.
          2   -1    0    0  501    0  0.00000000000E+00 -0.00000000000E+00 -0.41523611812E+04  0.41523611812E+04  0.00000000000E+00 0. -1.
         23    2    1    2    0    0  0.30858194253E+03 -0.15247213600E+04 -0.30783908215E+04  0.34504006551E+04  0.93683456724E+02 0.  0.
         11    1    3    3    0    0  0.96743252095E+02 -0.40792939464E+03 -0.74497637519E+03  0.85484235239E+03  0.00000000000E+00 0.  1.
        -11    1    3    3    0    0  0.21183869044E+03 -0.11167919653E+04 -0.23334144463E+04  0.25955583027E+04  0.00000000000E+00 0. -1.
         22    1    1    2    0    0 -0.30858194253E+03  0.15247213600E+04 -0.20663317363E+03  0.15692977121E+04  0.00000000000E+00 0. -1.
<mgrwt>
<rscale>  0 0.37955222E+04</rscale>
<asrwt>0</asrwt>
<pdfrwt beam="1">  1        2 0.63882479E+00 0.37955222E+04</pdfrwt>
<pdfrwt beam="2">  1       -2 0.13343649E+00 0.37955222E+04</pdfrwt>
<totfact> 0.82974192E-02</totfact>
</mgrwt>
</event>
<event>
 6    1  0.1568961E-005  0.3607742E+04  0.7818608E-02  0.8088721E-01
         -2   -1    0    0    0  501 -0.00000000000E+00  0.00000000000E+00  0.80179826054E+03  0.80179826054E+03  0.00000000000E+00 0.  1.
          2   -1    0    0  501    0  0.00000000000E+00 -0.00000000000E+00 -0.40583158777E+04  0.40583158777E+04  0.00000000000E+00 0. -1.
         23    2    1    2    0    0 -0.57282894874E+03 -0.10571293716E+04 -0.34386390082E+04  0.36440451789E+04  0.95768078503E+02 0.  0.
         13    1    3    3    0    0 -0.54892192708E+03 -0.96618503821E+03 -0.32060012047E+04  0.33931213558E+04  0.00000000000E+00 0.  1.
        -13    1    3    3    0    0 -0.23907021659E+02 -0.90944333342E+02 -0.23263780344E+03  0.25092382318E+03  0.00000000000E+00 0. -1.
         22    1    1    2    0    0  0.57282894874E+03  0.10571293716E+04  0.18212139102E+03  0.12160689593E+04  0.00000000000E+00 0.  1.
<mgrwt>
<rscale>  0 0.36077420E+04</rscale>
<asrwt>0</asrwt>
<pdfrwt beam="1">  1        2 0.62435627E+00 0.36077420E+04</pdfrwt>
<pdfrwt beam="2">  1       -2 0.12335358E+00 0.36077420E+04</pdfrwt>
<totfact> 0.12337079E-01</totfact>
</mgrwt>
</event>
<event>
 6    1  0.1568961E-005  0.3518417E+04  0.7818608E-02  0.8109439E-01
         -1   -1    0    0    0  501 -0.00000000000E+00  0.00000000000E+00  0.13339374440E+04  0.13339374440E+04  0.00000000000E+00 0.  1.
          1   -1    0    0  501    0  0.00000000000E+00 -0.00000000000E+00 -0.23200591341E+04  0.23200591341E+04  0.00000000000E+00 0. -1.
         23    2    1    2    0    0  0.16707197546E+04  0.25032226647E+03 -0.99888537490E+03  0.19645799193E+04  0.88524186834E+02 0.  0.
         13    1    3    3    0    0  0.11811737559E+04  0.17536770782E+03 -0.65871604138E+03  0.13637566124E+04  0.00000000000E+00 0. -1.
        -13    1    3    3    0    0  0.48954599865E+03  0.74954558646E+02 -0.34016933352E+03  0.60082330690E+03  0.00000000000E+00 0.  1.
         22    1    1    2    0    0 -0.16707197546E+04 -0.25032226647E+03  0.12763684736E+02  0.16894166588E+04  0.00000000000E+00 0.  1.
<mgrwt>
<rscale>  0 0.35184165E+04</rscale>
<asrwt>0</asrwt>
<pdfrwt beam="1">  1        1 0.35693217E+00 0.35184165E+04</pdfrwt>
<pdfrwt beam="2">  1       -1 0.20522115E+00 0.35184165E+04</pdfrwt>
<totfact> 0.20352720E-01</totfact>
</mgrwt>
</event>
<event>
 6    1  0.1568961E-005  0.2145824E+04  0.7818608E-02  0.8541322E-01
          1   -1    0    0  501    0  0.00000000000E+00  0.00000000000E+00  0.16385837825E+04  0.16385837825E+04  0.00000000000E+00 0. -1.
         -1   -1    0    0    0  501 -0.00000000000E+00 -0.00000000000E+00 -0.70252108551E+03  0.70252108551E+03  0.00000000000E+00 0.  1.
         23    2    1    2    0    0 -0.10224226132E+04 -0.20626694574E+03  0.20485065034E+03  0.10673053901E+04  0.96348087046E+02 0.  0.
         13    1    3    3    0    0 -0.49057234986E+03 -0.66512480658E+02  0.60307208938E+02  0.49872046277E+03  0.00000000000E+00 0. -1.
        -13    1    3    3    0    0 -0.53185026331E+03 -0.13975446508E+03  0.14454344140E+03  0.56858492730E+03  0.00000000000E+00 0.  1.
         22    1    1    2    0    0  0.10224226132E+04  0.20626694574E+03  0.73121204661E+03  0.12737994779E+04  0.00000000000E+00 0. -1.
<mgrwt>
<rscale>  0 0.21458235E+04</rscale>
<asrwt>0</asrwt>
<pdfrwt beam="1">  1        1 0.25208981E+00 0.21458235E+04</pdfrwt>
<pdfrwt beam="2">  1       -1 0.10808017E+00 0.21458235E+04</pdfrwt>
<totfact> 0.38258120E+00</totfact>
</mgrwt>
</event>
<event>
 6    1  0.1568961E-005  0.3443262E+04  0.7818608E-02  0.8127369E-01
          2   -1    0    0  501    0  0.00000000000E+00  0.00000000000E+00  0.25593400221E+04  0.25593400221E+04  0.00000000000E+00 0. -1.
         -2   -1    0    0    0  501 -0.00000000000E+00 -0.00000000000E+00 -0.11581160891E+04  0.11581160891E+04  0.00000000000E+00 0.  1.
         23    2    1    2    0    0 -0.13452476571E+04 -0.10887639335E+03 -0.45082949829E+03  0.14258088345E+04  0.90212350285E+02 0.  0.
         13    1    3    3    0    0 -0.12504608521E+04 -0.87959992339E+02 -0.43814799598E+03  0.13279167780E+04  0.00000000000E+00 0.  1.
        -13    1    3    3    0    0 -0.94786805004E+02 -0.20916401010E+02 -0.12681502308E+02  0.97892056547E+02  0.00000000000E+00 0. -1.
         22    1    1    2    0    0  0.13452476571E+04  0.10887639335E+03  0.18520534314E+04  0.22916472767E+04  0.00000000000E+00 0. -1.
<mgrwt>
<rscale>  0 0.34432617E+04</rscale>
<asrwt>0</asrwt>
<pdfrwt beam="1">  1        2 0.39374462E+00 0.34432617E+04</pdfrwt>
<pdfrwt beam="2">  1       -2 0.17817171E+00 0.34432617E+04</pdfrwt>
<totfact> 0.49540371E-01</totfact>
</mgrwt>
</event>
<event>
 6    1  0.1568961E-005  0.1366729E+04  0.7818608E-02  0.8978260E-01
         -2   -1    0    0    0  501 -0.00000000000E+00  0.00000000000E+00  0.10399037042E+04  0.10399037042E+04  0.00000000000E+00 0. -1.
          2   -1    0    0  501    0  0.00000000000E+00 -0.00000000000E+00 -0.44906759658E+03  0.44906759658E+03  0.00000000000E+00 0.  1.
         23    2    1    2    0    0  0.44066256885E+03  0.28328741870E+03 -0.17660517478E+03  0.55977735811E+03  0.87897905088E+02 0.  0.
         11    1    3    3    0    0  0.22831769555E+03  0.16081819664E+03 -0.49394099191E+02  0.28360401885E+03  0.00000000000E+00 0. -1.
        -11    1    3    3    0    0  0.21234487330E+03  0.12246922205E+03 -0.12721107559E+03  0.27617333926E+03  0.00000000000E+00 0.  1.
         22    1    1    2    0    0 -0.44066256885E+03 -0.28328741870E+03  0.76744128237E+03  0.92919394265E+03  0.00000000000E+00 0. -1.
<mgrwt>
<rscale>  0 0.13667290E+04</rscale>
<asrwt>0</asrwt>
<pdfrwt beam="1">  1        2 0.69087323E-01 0.13667290E+04</pdfrwt>
<pdfrwt beam="2">  1       -2 0.15998518E+00 0.13667290E+04</pdfrwt>
<totfact> 0.17117989E+01</totfact>
</mgrwt>
</event>
<event>
 6    1  0.1568961E-005  0.3500531E+04  0.7818608E-02  0.8113664E-01
         -2   -1    0    0    0  501 -0.00000000000E+00  0.00000000000E+00  0.18496489472E+04  0.18496489472E+04  0.00000000000E+00 0.  1.
          2   -1    0    0  501    0  0.00000000000E+00 -0.00000000000E+00 -0.16562221374E+04  0.16562221374E+04  0.00000000000E+00 0. -1.
         23    2    1    2    0    0  0.85546273957E+03 -0.10880656130E+04  0.11678263155E+04  0.18131934208E+04  0.90270709603E+02 0.  0.
         13    1    3    3    0    0  0.44305036646E+03 -0.60798866168E+03  0.58758626400E+03  0.95456872858E+03  0.00000000000E+00 0.  1.
        -13    1    3    3    0    0  0.41241237311E+03 -0.48007695129E+03  0.58024005154E+03  0.85862469221E+03  0.00000000000E+00 0. -1.
         22    1    1    2    0    0 -0.85546273957E+03  0.10880656130E+04 -0.97439950570E+03  0.16926776638E+04  0.00000000000E+00 0. -1.
<mgrwt>
<rscale>  0 0.35005311E+04</rscale>
<asrwt>0</asrwt>
<pdfrwt beam="1">  1        2 0.25480340E+00 0.35005311E+04</pdfrwt>
<pdfrwt beam="2">  1       -2 0.28456138E+00 0.35005311E+04</pdfrwt>
<totfact> 0.33666437E-01</totfact>
</mgrwt>
</event>
<event>
 6    1  0.1568961E-005  0.2497756E+04  0.7818608E-02  0.8403785E-01
         -1   -1    0    0    0  501 -0.00000000000E+00  0.00000000000E+00  0.83310574003E+03  0.83310574003E+03  0.00000000000E+00 0.  1.
          1   -1    0    0  501    0  0.00000000000E+00 -0.00000000000E+00 -0.18721470723E+04  0.18721470723E+04  0.00000000000E+00 0. -1.
         23    2    1    2    0    0  0.88837730645E+03 -0.46185855911E+03 -0.13256111464E+04  0.16637875822E+04  0.91742247260E+02 0.  0.
         13    1    3    3    0    0  0.22924589406E+03 -0.16126556629E+03 -0.39872740931E+03  0.48738466302E+03  0.00000000000E+00 0. -1.
        -13    1    3    3    0    0  0.65913141240E+03 -0.30059299282E+03 -0.92688373713E+03  0.11764029192E+04  0.00000000000E+00 0.  1.
         22    1    1    2    0    0 -0.88837730645E+03  0.46185855911E+03  0.28656981413E+03  0.10414652302E+04  0.00000000000E+00 0.  1.
<mgrwt>
<rscale>  0 0.24977562E+04</rscale>
<asrwt>0</asrwt>
<pdfrwt beam="1">  1        1 0.28802262E+00 0.24977562E+04</pdfrwt>
<pdfrwt beam="2">  1       -1 0.12817011E+00 0.24977562E+04</pdfrwt>
<totfact> 0.16994572E+00</totfact>
</mgrwt>
</event>
<event>
 6    1  0.1568961E-005  0.1700395E+04  0.7818608E-02  0.8761139E-01
         -2   -1    0    0    0  501 -0.00000000000E+00  0.00000000000E+00  0.56145259734E+03  0.56145259734E+03  0.00000000000E+00 0.  1.
          2   -1    0    0  501    0  0.00000000000E+00 -0.00000000000E+00 -0.12874382688E+04  0.12874382688E+04  0.00000000000E+00 0. -1.
         23    2    1    2    0    0 -0.16568445736E+02  0.30768608521E+03 -0.12228381844E+04  0.12642476757E+04  0.89686788495E+02 0.  0.
         13    1    3    3    0    0  0.27683166346E+02  0.16921861204E+03 -0.76071089620E+03  0.77979636057E+03  0.00000000000E+00 0.  1.
        -13    1    3    3    0    0 -0.44251612082E+02  0.13846747316E+03 -0.46212728817E+03  0.48445131517E+03  0.00000000000E+00 0. -1.
         22    1    1    2    0    0  0.16568445736E+02 -0.30768608521E+03  0.49685251295E+03  0.58464319037E+03  0.00000000000E+00 0.  1.
<mgrwt>
<rscale>  0 0.17003947E+04</rscale>
<asrwt>0</asrwt>
<pdfrwt beam="1">  1        2 0.19806742E+00 0.17003947E+04</pdfrwt>
<pdfrwt beam="2">  1       -2 0.86377324E-01 0.17003947E+04</pdfrwt>
<totfact> 0.18583804E+01</totfact>
</mgrwt>
</event>
<event>
 6    1  0.1568961E-005  0.2455314E+04  0.7818608E-02  0.8419081E-01
         -2   -1    0    0    0  501 -0.00000000000E+00  0.00000000000E+00  0.66888797707E+03  0.66888797707E+03  0.00000000000E+00 0.  1.
          2   -1    0    0  501    0  0.00000000000E+00 -0.00000000000E+00 -0.22532040517E+04  0.22532040517E+04  0.00000000000E+00 0. -1.
         23    2    1    2    0    0 -0.67186632413E+03  0.14539925281E+03 -0.20014049946E+04  0.21180345263E+04  0.88898829398E+02 0.  0.
         13    1    3    3    0    0 -0.25872368769E+03  0.17002454454E+02 -0.81187101697E+03  0.85226848952E+03  0.00000000000E+00 0. -1.
        -13    1    3    3    0    0 -0.41314263644E+03  0.12839679836E+03 -0.11895339776E+04  0.12657660368E+04  0.00000000000E+00 0.  1.
         22    1    1    2    0    0  0.67186632413E+03 -0.14539925281E+03  0.41708891994E+03  0.80405750252E+03  0.00000000000E+00 0.  1.
<mgrwt>
<rscale>  0 0.24553135E+04</rscale>
<asrwt>0</asrwt>
<pdfrwt beam="1">  1        2 0.34664677E+00 0.24553135E+04</pdfrwt>
<pdfrwt beam="2">  1       -2 0.10290584E+00 0.24553135E+04</pdfrwt>
<totfact> 0.33274461E+00</totfact>
</mgrwt>
</event>
<event>
 6    1  0.1568961E-005  0.1528425E+04  0.7818608E-02  0.8865768E-01
          2   -1    0    0  501    0  0.00000000000E+00  0.00000000000E+00  0.12500745883E+04  0.12500745883E+04  0.00000000000E+00 0. -1.
         -2   -1    0    0    0  501 -0.00000000000E+00 -0.00000000000E+00 -0.46718844599E+03  0.46718844599E+03  0.00000000000E+00 0.  1.
         23    2    1    2    0    0  0.38647683720E+03  0.64174791627E+03  0.23874756525E+03  0.79136264830E+03  0.89720162027E+02 0.  0.
         13    1    3    3    0    0  0.52711137538E+02  0.11872565062E+03  0.10722137868E+02  0.13034265755E+03  0.00000000000E+00 0.  1.
        -13    1    3    3    0    0  0.33376569966E+03  0.52302226565E+03  0.22802542739E+03  0.66101999075E+03  0.00000000000E+00 0. -1.
         22    1    1    2    0    0 -0.38647683720E+03 -0.64174791627E+03  0.54413857704E+03  0.92590038598E+03  0.00000000000E+00 0. -1.
<mgrwt>
<rscale>  0 0.15284246E+04</rscale>
<asrwt>0</asrwt>
<pdfrwt beam="1">  1        2 0.19231917E+00 0.15284246E+04</pdfrwt>
<pdfrwt beam="2">  1       -2 0.71875146E-01 0.15284246E+04</pdfrwt>
<totfact> 0.29914259E+01</totfact>
</mgrwt>
</event>
<event>
 6    1  0.1568961E-005  0.9339690E+03  0.7818608E-02  0.9384087E-01
         -2   -1    0    0    0  501 -0.00000000000E+00  0.00000000000E+00  0.11907142227E+03  0.11907142227E+03  0.00000000000E+00 0.  1.
          2   -1    0    0  501    0  0.00000000000E+00 -0.00000000000E+00 -0.18314599021E+04  0.18314599021E+04  0.00000000000E+00 0. -1.
         23    2    1    2    0    0 -0.29964271975E+03  0.15139240574E+03 -0.20034299147E+03  0.40166497156E+03  0.92152130382E+02 0.  0.
         11    1    3    3    0    0 -0.27676856866E+03  0.16205927473E+03 -0.17282281939E+03  0.36432372422E+03  0.00000000000E+00 0.  1.
        -11    1    3    3    0    0 -0.22874151090E+02 -0.10666868992E+02 -0.27520172074E+02  0.37341247344E+02  0.00000000000E+00 0. -1.
         22    1    1    2    0    0  0.29964271975E+03 -0.15139240574E+03 -0.15120454884E+04  0.15488663528E+04  0.00000000000E+00 0. -1.
<mgrwt>
<rscale>  0 0.93396903E+03</rscale>
<asrwt>0</asrwt>
<pdfrwt beam="1">  1        2 0.28176306E+00 0.93396903E+03</pdfrwt>
<pdfrwt beam="2">  1       -2 0.18318681E-01 0.93396903E+03</pdfrwt>
<totfact> 0.20747416E+02</totfact>
</mgrwt>
</event>
<event>
 6    1  0.1568961E-005  0.1346670E+04  0.7818608E-02  0.8993352E-01
          1   -1    0    0  501    0  0.00000000000E+00  0.00000000000E+00  0.17638519838E+04  0.17638519838E+04  0.00000000000E+00 0. -1.
         -1   -1    0    0    0  501 -0.00000000000E+00 -0.00000000000E+00 -0.25703985052E+03  0.25703985052E+03  0.00000000000E+00 0.  1.
         23    2    1    2    0    0 -0.32228914492E+02 -0.46296225849E+03  0.31182631609E+02  0.47400619474E+03  0.91305861932E+02 0.  0.
         13    1    3    3    0    0  0.25743723139E+02 -0.14254458240E+03 -0.12864056590E+02  0.14542070418E+03  0.00000000000E+00 0. -1.
        -13    1    3    3    0    0 -0.57972637632E+02 -0.32041767609E+03  0.44046688199E+02  0.32858549056E+03  0.00000000000E+00 0.  1.
         22    1    1    2    0    0  0.32228914492E+02  0.46296225849E+03  0.14756295016E+04  0.15468856395E+04  0.00000000000E+00 0. -1.
<mgrwt>
<rscale>  0 0.13466703E+04</rscale>
<asrwt>0</asrwt>
<pdfrwt beam="1">  1        1 0.27136184E+00 0.13466703E+04</pdfrwt>
<pdfrwt beam="2">  1       -1 0.39544594E-01 0.13466703E+04</pdfrwt>
<totfact> 0.26264354E+01</totfact>
</mgrwt>
</event>
<event>
 6    1  0.1568961E-005  0.5207363E+04  0.7818608E-02  0.7797292E-01
          2   -1    0    0  501    0  0.00000000000E+00  0.00000000000E+00  0.31096920365E+04  0.31096920365E+04  0.00000000000E+00 0.  1.
         -2   -1    0    0    0  501 -0.00000000000E+00 -0.00000000000E+00 -0.21800093280E+04  0.21800093280E+04  0.00000000000E+00 0. -1.
         23    2    1    2    0    0 -0.20940032159E+04  0.97634795379E+03 -0.75264498000E+03  0.24316721052E+04  0.91923696942E+02 0.  0.
         11    1    3    3    0    0 -0.11886995382E+04  0.57335316973E+03 -0.38555811626E+03  0.13749165467E+04  0.00000000000E+00 0. -1.
        -11    1    3    3    0    0 -0.90530367775E+03  0.40299478406E+03 -0.36708686373E+03  0.10567555585E+04  0.00000000000E+00 0.  1.
         22    1    1    2    0    0  0.20940032159E+04 -0.97634795379E+03  0.16823276885E+04  0.28580292592E+04  0.00000000000E+00 0.  1.
<mgrwt>
<rscale>  0 0.52073631E+04</rscale>
<asrwt>0</asrwt>
<pdfrwt beam="1">  1        2 0.47841416E+00 0.52073631E+04</pdfrwt>
<pdfrwt beam="2">  1       -2 0.33538605E+00 0.52073631E+04</pdfrwt>
<totfact> 0.20401328E-02</totfact>
</mgrwt>
</event>
<event>
 6    1  0.1568961E-005  0.3164811E+04  0.7818608E-02  0.8198173E-01
          2   -1    0    0  501    0  0.00000000000E+00  0.00000000000E+00  0.22286495212E+04  0.22286495212E+04  0.00000000000E+00 0. -1.
         -2   -1    0    0    0  501 -0.00000000000E+00 -0.00000000000E+00 -0.11235537825E+04  0.11235537825E+04  0.00000000000E+00 0.  1.
         23    2    1    2    0    0 -0.54314858755E+03  0.10750753917E+04 -0.53183801017E+03  0.13198771526E+04  0.91796204048E+02 0.  0.
         11    1    3    3    0    0 -0.51191988418E+02  0.10835867919E+03 -0.84100416073E+02  0.14640731887E+03  0.00000000000E+00 0. -1.
        -11    1    3    3    0    0 -0.49195659913E+03  0.96671671247E+03 -0.44773759409E+03  0.11734698338E+04  0.00000000000E+00 0.  1.
         22    1    1    2    0    0  0.54314858755E+03 -0.10750753917E+04  0.16369337489E+04  0.20323261510E+04  0.00000000000E+00 0. -1.
<mgrwt>
<rscale>  0 0.31648113E+04</rscale>
<asrwt>0</asrwt>
<pdfrwt beam="1">  1        2 0.34286916E+00 0.31648113E+04</pdfrwt>
<pdfrwt beam="2">  1       -2 0.17285443E+00 0.31648113E+04</pdfrwt>
<totfact> 0.85476600E-01</totfact>
</mgrwt>
</event>
<event>
 6    1  0.1568961E-005  0.2443598E+04  0.7818608E-02  0.8423359E-01
          2   -1    0    0  501    0  0.00000000000E+00  0.00000000000E+00  0.86779648389E+03  0.86779648389E+03  0.00000000000E+00 0. -1.
         -2   -1    0    0    0  501 -0.00000000000E+00 -0.00000000000E+00 -0.17202105443E+04  0.17202105443E+04  0.00000000000E+00 0.  1.
         23    2    1    2    0    0  0.51317828778E+03  0.68044915581E+03  0.49774757100E+03  0.99135445495E+03  0.93102106465E+02 0.  0.
         11    1    3    3    0    0  0.44746607649E+03  0.53644001168E+03  0.41850724282E+03  0.81433536582E+03  0.00000000000E+00 0. -1.
        -11    1    3    3    0    0  0.65712211292E+02  0.14400914413E+03  0.79240328179E+02  0.17701908913E+03  0.00000000000E+00 0.  1.
         22    1    1    2    0    0 -0.51317828778E+03 -0.68044915581E+03 -0.13501616314E+04  0.15966525732E+04  0.00000000000E+00 0.  1.
<mgrwt>
<rscale>  0 0.24435979E+04</rscale>
<asrwt>0</asrwt>
<pdfrwt beam="1">  1        2 0.13350715E+00 0.24435979E+04</pdfrwt>
<pdfrwt beam="2">  1       -2 0.26464777E+00 0.24435979E+04</pdfrwt>
<totfact> 0.14443391E+00</totfact>
</mgrwt>
</event>
<event>
 6    1  0.1568961E-005  0.3382893E+04  0.7818608E-02  0.8142118E-01
         -2   -1    0    0    0  501 -0.00000000000E+00  0.00000000000E+00  0.92619874543E+03  0.92619874543E+03  0.00000000000E+00 0.  1.
          2   -1    0    0  501    0  0.00000000000E+00 -0.00000000000E+00 -0.30889596570E+04  0.30889596570E+04  0.00000000000E+00 0. -1.
         23    2    1    2    0    0 -0.14590873620E+03 -0.12078499173E+04 -0.24747345202E+04  0.27591654428E+04  0.92153204487E+02 0.  0.
         11    1    3    3    0    0 -0.19196459661E+02 -0.53993428311E+03 -0.10898452680E+04  0.12164128585E+04  0.00000000000E+00 0.  1.
        -11    1    3    3    0    0 -0.12671227653E+03 -0.66791563419E+03 -0.13848892522E+04  0.15427525843E+04  0.00000000000E+00 0. -1.
         22    1    1    2    0    0  0.14590873620E+03  0.12078499173E+04  0.31197360871E+03  0.12559929596E+04  0.00000000000E+00 0.  1.
<mgrwt>
<rscale>  0 0.33828926E+04</rscale>
<asrwt>0</asrwt>
<pdfrwt beam="1">  1        2 0.47522457E+00 0.33828926E+04</pdfrwt>
<pdfrwt beam="2">  1       -2 0.14249211E+00 0.33828926E+04</pdfrwt>
<totfact> 0.43485822E-01</totfact>
</mgrwt>
</event>
<event>
 6    1  0.1568961E-005  0.1578639E+04  0.7818608E-02  0.8833780E-01
         -2   -1    0    0    0  501 -0.00000000000E+00  0.00000000000E+00  0.28337052764E+03  0.28337052764E+03  0.00000000000E+00 0.  1.
          2   -1    0    0  501    0  0.00000000000E+00 -0.00000000000E+00 -0.21986233713E+04  0.21986233713E+04  0.00000000000E+00 0. -1.
         23    2    1    2    0    0  0.52736899613E+03 -0.56436798995E+03 -0.72627158524E+03  0.10641413964E+04  0.91089021257E+02 0.  0.
         13    1    3    3    0    0  0.26485086128E+03 -0.28465418434E+03 -0.42784995332E+03  0.57812590838E+03  0.00000000000E+00 0. -1.
        -13    1    3    3    0    0  0.26251813485E+03 -0.27971380561E+03 -0.29842163191E+03  0.48601548799E+03  0.00000000000E+00 0.  1.
         22    1    1    2    0    0 -0.52736899613E+03  0.56436798995E+03 -0.11889812584E+04  0.14178525026E+04  0.00000000000E+00 0.  1.
<mgrwt>
<rscale>  0 0.15786387E+04</rscale>
<asrwt>0</asrwt>
<pdfrwt beam="1">  1        2 0.33824975E+00 0.15786387E+04</pdfrwt>
<pdfrwt beam="2">  1       -2 0.43595465E-01 0.15786387E+04</pdfrwt>
<totfact> 0.24810775E+01</totfact>
</mgrwt>
</event>
<event>
 6    1  0.1568961E-005  0.1152956E+04  0.7818608E-02  0.9155060E-01
          2   -1    0    0  501    0  0.00000000000E+00  0.00000000000E+00  0.20431621172E+04  0.20431621172E+04  0.00000000000E+00 0. -1.
         -2   -1    0    0    0  501 -0.00000000000E+00 -0.00000000000E+00 -0.16265334768E+03  0.16265334768E+03  0.00000000000E+00 0.  1.
         23    2    1    2    0    0  0.40934200197E+03 -0.78596515216E+02  0.20279267407E+03  0.47709640623E+03  0.11295054408E+03 0.  0.
         11    1    3    3    0    0  0.16408868960E+03 -0.25081514637E+01  0.28033376150E+02  0.16648501151E+03  0.00000000000E+00 0.  1.
        -11    1    3    3    0    0  0.24525331237E+03 -0.76088363752E+02  0.17475929792E+03  0.31061139473E+03  0.00000000000E+00 0. -1.
         22    1    1    2    0    0 -0.40934200197E+03  0.78596515216E+02  0.16777160954E+04  0.17287190586E+04  0.00000000000E+00 0. -1.
<mgrwt>
<rscale>  0 0.11529565E+04</rscale>
<asrwt>0</asrwt>
<pdfrwt beam="1">  1        2 0.31433262E+00 0.11529565E+04</pdfrwt>
<pdfrwt beam="2">  1       -2 0.25023593E-01 0.11529565E+04</pdfrwt>
<totfact> 0.89782164E+01</totfact>
</mgrwt>
</event>
<event>
 6    1  0.1568961E-005  0.1227370E+04  0.7818608E-02  0.9089231E-01
          1   -1    0    0  501    0  0.00000000000E+00  0.00000000000E+00  0.88428640502E+03  0.88428640502E+03  0.00000000000E+00 0. -1.
         -1   -1    0    0    0  501 -0.00000000000E+00 -0.00000000000E+00 -0.42589049656E+03  0.42589049656E+03  0.00000000000E+00 0.  1.
         23    2    1    2    0    0  0.21494948325E+03 -0.24653521133E+03  0.78050539483E+03  0.85111545472E+03  0.90697051434E+02 0.  0.
         11    1    3    3    0    0  0.94586092288E+02 -0.12454897759E+03  0.48409835355E+03  0.50873391138E+03  0.00000000000E+00 0.  1.
        -11    1    3    3    0    0  0.12036339096E+03 -0.12198623375E+03  0.29640704127E+03  0.34238154334E+03  0.00000000000E+00 0. -1.
         22    1    1    2    0    0 -0.21494948325E+03  0.24653521133E+03 -0.32210948637E+03  0.45906144685E+03  0.00000000000E+00 0.  1.
<mgrwt>
<rscale>  0 0.12273698E+04</rscale>
<asrwt>0</asrwt>
<pdfrwt beam="1">  1        1 0.13604406E+00 0.12273698E+04</pdfrwt>
<pdfrwt beam="2">  1       -1 0.65521615E-01 0.12273698E+04</pdfrwt>
<totfact> 0.43734710E+01</totfact>
</mgrwt>
</event>
<event>
 6    1  0.1568961E-005  0.2313245E+04  0.7818608E-02  0.8472717E-01
         -2   -1    0    0    0  501 -0.00000000000E+00  0.00000000000E+00  0.80618281312E+03  0.80618281312E+03  0.00000000000E+00 0.  1.
          2   -1    0    0  501    0  0.00000000000E+00 -0.00000000000E+00 -0.16593942674E+04  0.16593942674E+04  0.00000000000E+00 0. -1.
         23    2    1    2    0    0 -0.57798623036E+03 -0.35577370339E+02  0.63778301171E+03  0.86607768090E+03  0.89384269067E+02 0.  0.
         13    1    3    3    0    0 -0.55277037798E+03 -0.33343822012E+02  0.57462624673E+03  0.79803648079E+03  0.00000000000E+00 0.  1.
        -13    1    3    3    0    0 -0.25215852376E+02 -0.22335483267E+01  0.63156764979E+02  0.68041200106E+02  0.00000000000E+00 0. -1.
         22    1    1    2    0    0  0.57798623036E+03  0.35577370339E+02 -0.14909944660E+04  0.15994993996E+04  0.00000000000E+00 0. -1.
<mgrwt>
<rscale>  0 0.23132446E+04</rscale>
<asrwt>0</asrwt>
<pdfrwt beam="1">  1        2 0.25529142E+00 0.23132446E+04</pdfrwt>
<pdfrwt beam="2">  1       -2 0.12402813E+00 0.23132446E+04</pdfrwt>
<totfact> 0.45756219E+00</totfact>
</mgrwt>
</event>
<event>
 6    1  0.1568961E-005  0.2147153E+04  0.7818608E-02  0.8540752E-01
          2   -1    0    0  501    0  0.00000000000E+00  0.00000000000E+00  0.38358550122E+04  0.38358550122E+04  0.00000000000E+00 0. -1.
         -2   -1    0    0    0  501 -0.00000000000E+00 -0.00000000000E+00 -0.30047193775E+03  0.30047193775E+03  0.00000000000E+00 0.  1.
         23    2    1    2    0    0 -0.10474548774E+04  0.22563271119E+03  0.18019818210E+04  0.20984967937E+04  0.92078602963E+02 0.  0.
         13    1    3    3    0    0 -0.68638104354E+03  0.10701565357E+03  0.12005586925E+04  0.13870517154E+04  0.00000000000E+00 0. -1.
        -13    1    3    3    0    0 -0.36107383386E+03  0.11861705761E+03  0.60142312855E+03  0.71144507828E+03  0.00000000000E+00 0.  1.
         22    1    1    2    0    0  0.10474548774E+04 -0.22563271119E+03  0.17334012535E+04  0.20378301563E+04  0.00000000000E+00 0.  1.
<mgrwt>
<rscale>  0 0.21471533E+04</rscale>
<asrwt>0</asrwt>
<pdfrwt beam="1">  1        2 0.59013150E+00 0.21471533E+04</pdfrwt>
<pdfrwt beam="2">  1       -2 0.46226455E-01 0.21471533E+04</pdfrwt>
<totfact> 0.18903369E+00</totfact>
</mgrwt>
</event>
<event>
 6    1  0.1568961E-005  0.6400315E+03  0.7818608E-02  0.9825666E-01
          1   -1    0    0  501    0  0.00000000000E+00  0.00000000000E+00  0.14202307493E+03  0.14202307493E+03  0.00000000000E+00 0. -1.
         -1   -1    0    0    0  501 -0.00000000000E+00 -0.00000000000E+00 -0.72108067017E+03  0.72108067017E+03  0.00000000000E+00 0.  1.
         23    2    1    2    0    0  0.39982042136E+01 -0.28640368049E+03 -0.12987760366E+03  0.33036955371E+03  0.10115728472E+03 0.  0.
         11    1    3    3    0    0  0.30925313970E+02 -0.16869545181E+03 -0.30964370652E+02  0.17427943871E+03  0.00000000000E+00 0.  1.
        -11    1    3    3    0    0 -0.26927109756E+02 -0.11770822868E+03 -0.98913233009E+02  0.15609011501E+03  0.00000000000E+00 0. -1.
         22    1    1    2    0    0 -0.39982042136E+01  0.28640368049E+03 -0.44917999159E+03  0.53273419139E+03  0.00000000000E+00 0.  1.
<mgrwt>
<rscale>  0 0.64003154E+03</rscale>
<asrwt>0</asrwt>
<pdfrwt beam="1">  1        1 0.21849704E-01 0.64003154E+03</pdfrwt>
<pdfrwt beam="2">  1       -1 0.11093549E+00 0.64003154E+03</pdfrwt>
<totfact> 0.17763582E+02</totfact>
</mgrwt>
</event>
<event>
 6    1  0.1568961E-005  0.2796889E+04  0.7818608E-02  0.8304235E-01
         -2   -1    0    0    0  501 -0.00000000000E+00  0.00000000000E+00  0.10583224725E+04  0.10583224725E+04  0.00000000000E+00 0.  1.
          2   -1    0    0  501    0  0.00000000000E+00 -0.00000000000E+00 -0.18478746091E+04  0.18478746091E+04  0.00000000000E+00 0. -1.
         23    2    1    2    0    0 -0.20776222683E+03  0.65128587576E+03 -0.16610883163E+04  0.17985356950E+04  0.90431282545E+02 0.  0.
         11    1    3    3    0    0 -0.20182338017E+03  0.55665097079E+03 -0.14817241814E+04  0.15956501903E+04  0.00000000000E+00 0. -1.
        -11    1    3    3    0    0 -0.59388466643E+01  0.94634904973E+02 -0.17936413493E+03  0.20288550475E+03  0.00000000000E+00 0.  1.
         22    1    1    2    0    0  0.20776222683E+03 -0.65128587576E+03  0.87153617966E+03  0.11076613866E+04  0.00000000000E+00 0.  1.
<mgrwt>
<rscale>  0 0.27968891E+04</rscale>
<asrwt>0</asrwt>
<pdfrwt beam="1">  1        2 0.28428840E+00 0.27968891E+04</pdfrwt>
<pdfrwt beam="2">  1       -2 0.16281884E+00 0.27968891E+04</pdfrwt>
<totfact> 0.16967363E+00</totfact>
</mgrwt>
</event>
<event>
 6    1  0.1568961E-005  0.3925821E+04  0.7818608E-02  0.8019680E-01
         -2   -1    0    0    0  501 -0.00000000000E+00  0.00000000000E+00  0.23995473146E+04  0.23995473146E+04  0.00000000000E+00 0.  1.
          2   -1    0    0  501    0  0.00000000000E+00 -0.00000000000E+00 -0.16057267272E+04  0.16057267272E+04  0.00000000000E+00 0. -1.
         23    2    1    2    0    0 -0.23738539739E+03 -0.81012570910E+03 -0.14096482727E+04  0.16456277740E+04  0.91252542004E+02 0.  0.
         11    1    3    3    0    0 -0.23390349383E+03 -0.68480464436E+03 -0.11929748710E+04  0.13952982793E+04  0.00000000000E+00 0.  1.
        -11    1    3    3    0    0 -0.34819035627E+01 -0.12532106474E+03 -0.21667340169E+03  0.25032949470E+03  0.00000000000E+00 0. -1.
         22    1    1    2    0    0  0.23738539739E+03  0.81012570910E+03  0.22034688601E+04  0.23596462678E+04  0.00000000000E+00 0.  1.
<mgrwt>
<rscale>  0 0.39258208E+04</rscale>
<asrwt>0</asrwt>
<pdfrwt beam="1">  1        2 0.24703488E+00 0.39258208E+04</pdfrwt>
<pdfrwt beam="2">  1       -2 0.36916112E+00 0.39258208E+04</pdfrwt>
<totfact> 0.10322115E-01</totfact>
</mgrwt>
</event>
<event>
 6    1  0.1568961E-005  0.3538204E+04  0.7818608E-02  0.8104795E-01
          2   -1    0    0  501    0  0.00000000000E+00  0.00000000000E+00  0.37378329057E+04  0.37378329057E+04  0.00000000000E+00 0. -1.
         -2   -1    0    0    0  501 -0.00000000000E+00 -0.00000000000E+00 -0.83730928690E+03  0.83730928690E+03  0.00000000000E+00 0.  1.
         23    2    1    2    0    0  0.12587742558E+04  0.10020332917E+04  0.23987293681E+04  0.28897992558E+04  0.91944616545E+02 0.  0.
         11    1    3    3    0    0  0.84823563681E+02  0.49053611041E+02  0.17766563153E+03  0.20289497367E+03  0.00000000000E+00 0.  1.
        -11    1    3    3    0    0  0.11739506921E+04  0.95297968065E+03  0.22210637366E+04  0.26869042821E+04  0.00000000000E+00 0. -1.
         22    1    1    2    0    0 -0.12587742558E+04 -0.10020332917E+04  0.50179425061E+03  0.16853429368E+04  0.00000000000E+00 0.  1.
<mgrwt>
<rscale>  0 0.35382042E+04</rscale>
<asrwt>0</asrwt>
<pdfrwt beam="1">  1        2 0.57505121E+00 0.35382042E+04</pdfrwt>
<pdfrwt beam="2">  1       -2 0.12881682E+00 0.35382042E+04</pdfrwt>
<totfact> 0.19876851E-01</totfact>
</mgrwt>
</event>
<event>
 6    1  0.1568961E-005  0.1901932E+04  0.7818608E-02  0.8653895E-01
         -2   -1    0    0    0  501 -0.00000000000E+00  0.00000000000E+00  0.67235137915E+03  0.67235137915E+03  0.00000000000E+00 0.  1.
          2   -1    0    0  501    0  0.00000000000E+00 -0.00000000000E+00 -0.13450355261E+04  0.13450355261E+04  0.00000000000E+00 0. -1.
         23    2    1    2    0    0 -0.51945818852E+03 -0.75301888682E+03 -0.60380266484E+03  0.10999890025E+04  0.92324936700E+02 0.  0.
         11    1    3    3    0    0 -0.21992985146E+03 -0.30913491899E+03 -0.19687414496E+03  0.42742597799E+03  0.00000000000E+00 0. -1.
        -11    1    3    3    0    0 -0.29952833705E+03 -0.44388396782E+03 -0.40692851988E+03  0.67256302447E+03  0.00000000000E+00 0.  1.
         22    1    1    2    0    0  0.51945818852E+03  0.75301888682E+03 -0.68881482127E+02  0.91739790282E+03  0.00000000000E+00 0.  1.
<mgrwt>
<rscale>  0 0.19019322E+04</rscale>
<asrwt>0</asrwt>
<pdfrwt beam="1">  1        2 0.20692854E+00 0.19019322E+04</pdfrwt>
<pdfrwt beam="2">  1       -2 0.10343867E+00 0.19019322E+04</pdfrwt>
<totfact> 0.11107582E+01</totfact>
</mgrwt>
</event>
<event>
 6    1  0.1568961E-005  0.3753635E+04  0.7818608E-02  0.8056178E-01
         -1   -1    0    0    0  501 -0.00000000000E+00  0.00000000000E+00  0.87971873054E+03  0.87971873054E+03  0.00000000000E+00 0.  1.
          1   -1    0    0  501    0  0.00000000000E+00 -0.00000000000E+00 -0.40040579811E+04  0.40040579811E+04  0.00000000000E+00 0. -1.
         23    2    1    2    0    0  0.88271394403E+02  0.15193116535E+04 -0.13653766439E+03  0.15307097487E+04  0.91269169659E+02 0.  0.
         13    1    3    3    0    0  0.30439654556E+02  0.72682024606E+03 -0.21045947051E+02  0.72776175672E+03  0.00000000000E+00 0.  1.
        -13    1    3    3    0    0  0.57831739847E+02  0.79249140747E+03 -0.11549171734E+03  0.80294799198E+03  0.00000000000E+00 0. -1.
         22    1    1    2    0    0 -0.88271394403E+02 -0.15193116535E+04 -0.29878015862E+04  0.33530669629E+04  0.00000000000E+00 0. -1.
<mgrwt>
<rscale>  0 0.37536355E+04</rscale>
<asrwt>0</asrwt>
<pdfrwt beam="1">  1        1 0.61600892E+00 0.37536355E+04</pdfrwt>
<pdfrwt beam="2">  1       -1 0.13534134E+00 0.37536355E+04</pdfrwt>
<totfact> 0.34684052E-02</totfact>
</mgrwt>
</event>
<event>
 6    1  0.1568961E-005  0.1326854E+04  0.7818608E-02  0.9008536E-01
         -2   -1    0    0    0  501 -0.00000000000E+00  0.00000000000E+00  0.89048362657E+03  0.89048362657E+03  0.00000000000E+00 0.  1.
          2   -1    0    0  501    0  0.00000000000E+00 -0.00000000000E+00 -0.49426592408E+03  0.49426592408E+03  0.00000000000E+00 0. -1.
         23    2    1    2    0    0 -0.32682108819E+03 -0.88585660206E+02  0.79016794669E+03  0.86527266206E+03  0.98346087136E+02 0.  0.
         13    1    3    3    0    0 -0.85840296427E+02  0.20136068270E+02  0.20488480518E+03  0.22305111775E+03  0.00000000000E+00 0. -1.
        -13    1    3    3    0    0 -0.24098079176E+03 -0.10872172848E+03  0.58528314151E+03  0.64222154431E+03  0.00000000000E+00 0.  1.
         22    1    1    2    0    0  0.32682108819E+03  0.88585660206E+02 -0.39395024419E+03  0.51947688859E+03  0.00000000000E+00 0. -1.
<mgrwt>
<rscale>  0 0.13268545E+04</rscale>
<asrwt>0</asrwt>
<pdfrwt beam="1">  1        2 0.76040911E-01 0.13268545E+04</pdfrwt>
<pdfrwt beam="2">  1       -2 0.13699748E+00 0.13268545E+04</pdfrwt>
<totfact> 0.23182851E+01</totfact>
</mgrwt>
</event>
<event>
 6    1  0.1568961E-005  0.1618576E+04  0.7818608E-02  0.8809217E-01
          2   -1    0    0  501    0  0.00000000000E+00  0.00000000000E+00  0.15391195712E+04  0.15391195712E+04  0.00000000000E+00 0. -1.
         -2   -1    0    0    0  501 -0.00000000000E+00 -0.00000000000E+00 -0.42553342627E+03  0.42553342627E+03  0.00000000000E+00 0.  1.
         23    2    1    2    0    0 -0.23559182605E+03 -0.59319586069E+03 -0.42251238381E+02  0.64429513148E+03  0.77111683032E+02 0.  0.
         13    1    3    3    0    0 -0.78762148186E+02 -0.14577249643E+03  0.16708359396E+02  0.16653007529E+03  0.00000000000E+00 0. -1.
        -13    1    3    3    0    0 -0.15682967787E+03 -0.44742336425E+03 -0.58959597777E+02  0.47776505618E+03  0.00000000000E+00 0.  1.
         22    1    1    2    0    0  0.23559182605E+03  0.59319586069E+03  0.11558373834E+04  0.13203578660E+04  0.00000000000E+00 0. -1.
<mgrwt>
<rscale>  0 0.16185757E+04</rscale>
<asrwt>0</asrwt>
<pdfrwt beam="1">  1        2 0.23678762E+00 0.16185757E+04</pdfrwt>
<pdfrwt beam="2">  1       -2 0.65466682E-01 0.16185757E+04</pdfrwt>
<totfact> 0.24833836E+01</totfact>
</mgrwt>
</event>
<event>
 6    1  0.1568961E-005  0.1982445E+04  0.7818608E-02  0.8614873E-01
         -2   -1    0    0    0  501 -0.00000000000E+00  0.00000000000E+00  0.87463820662E+03  0.87463820662E+03  0.00000000000E+00 0.  1.
          2   -1    0    0  501    0  0.00000000000E+00 -0.00000000000E+00 -0.11233466072E+04  0.11233466072E+04  0.00000000000E+00 0. -1.
         23    2    1    2    0    0  0.84947544156E+03 -0.49464797407E+03 -0.12945230061E+02  0.98710924448E+03  0.89061425381E+02 0.  0.
         11    1    3    3    0    0  0.56756218953E+03 -0.33731428470E+03 -0.50110174809E+02  0.66213200743E+03  0.00000000000E+00 0. -1.
        -11    1    3    3    0    0  0.28191325203E+03 -0.15733368937E+03  0.37164944748E+02  0.32497723705E+03  0.00000000000E+00 0.  1.
         22    1    1    2    0    0 -0.84947544156E+03  0.49464797407E+03 -0.23576317048E+03  0.10108755693E+04  0.00000000000E+00 0.  1.
<mgrwt>
<rscale>  0 0.19824448E+04</rscale>
<asrwt>0</asrwt>
<pdfrwt beam="1">  1        2 0.17282255E+00 0.19824448E+04</pdfrwt>
<pdfrwt beam="2">  1       -2 0.13455972E+00 0.19824448E+04</pdfrwt>
<totfact> 0.78018210E+00</totfact>
</mgrwt>
</event>
<event>
 6    1  0.1568961E-005  0.2157856E+04  0.7818608E-02  0.8536177E-01
          1   -1    0    0  501    0  0.00000000000E+00  0.00000000000E+00  0.26649912177E+04  0.26649912177E+04  0.00000000000E+00 0. -1.
         -1   -1    0    0    0  501 -0.00000000000E+00 -0.00000000000E+00 -0.43680650541E+03  0.43680650541E+03  0.00000000000E+00 0.  1.
         23    2    1    2    0    0 -0.69620701922E+03 -0.11629757421E+03  0.22853835786E+04  0.23936303350E+04  0.90877609257E+02 0.  0.
         11    1    3    3    0    0 -0.58101436278E+03 -0.78904658008E+02  0.17867498221E+04  0.18804995510E+04  0.00000000000E+00 0.  1.
        -11    1    3    3    0    0 -0.11519265644E+03 -0.37392916197E+02  0.49863375651E+03  0.51313078393E+03  0.00000000000E+00 0. -1.
         22    1    1    2    0    0  0.69620701922E+03  0.11629757421E+03 -0.57198866257E+02  0.70816738817E+03  0.00000000000E+00 0.  1.
<mgrwt>
<rscale>  0 0.21578559E+04</rscale>
<asrwt>0</asrwt>
<pdfrwt beam="1">  1        1 0.40999864E+00 0.21578559E+04</pdfrwt>
<pdfrwt beam="2">  1       -1 0.67201003E-01 0.21578559E+04</pdfrwt>
<totfact> 0.21328382E+00</totfact>
</mgrwt>
</event>
<event>
 6    1  0.1568961E-005  0.1001362E+04  0.7818608E-02  0.9307052E-01
         -2   -1    0    0    0  501 -0.00000000000E+00  0.00000000000E+00  0.26584819671E+03  0.26584819671E+03  0.00000000000E+00 0. -1.
          2   -1    0    0  501    0  0.00000000000E+00 -0.00000000000E+00 -0.94295009955E+03  0.94295009955E+03  0.00000000000E+00 0.  1.
         23    2    1    2    0    0 -0.10874103093E+03  0.33044762809E+03 -0.76914257081E+03  0.84894870091E+03  0.90074168450E+02 0.  0.
         13    1    3    3    0    0 -0.10749318082E+03  0.28143350106E+03 -0.58024692327E+03  0.65379361530E+03  0.00000000000E+00 0.  1.
        -13    1    3    3    0    0 -0.12478501033E+01  0.49014127026E+02 -0.18889564754E+03  0.19515508561E+03  0.00000000000E+00 0. -1.
         22    1    1    2    0    0  0.10874103093E+03 -0.33044762809E+03  0.92040667980E+02  0.35984959535E+03  0.00000000000E+00 0. -1.
<mgrwt>
<rscale>  0 0.10013622E+04</rscale>
<asrwt>0</asrwt>
<pdfrwt beam="1">  1        2 0.14506925E+00 0.10013622E+04</pdfrwt>
<pdfrwt beam="2">  1       -2 0.40899723E-01 0.10013622E+04</pdfrwt>
<totfact> 0.15498182E+02</totfact>
</mgrwt>
</event>
<event>
 6    1  0.1568961E-005  0.1129073E+04  0.7818608E-02  0.9177310E-01
          2   -1    0    0  501    0  0.00000000000E+00  0.00000000000E+00  0.59922241738E+03  0.59922241738E+03  0.00000000000E+00 0. -1.
         -2   -1    0    0    0  501 -0.00000000000E+00 -0.00000000000E+00 -0.53185848203E+03  0.53185848203E+03  0.00000000000E+00 0.  1.
         23    2    1    2    0    0  0.40279093775E+03  0.22538652380E+02 -0.35621927574E+03  0.54612682677E+03  0.92810603467E+02 0.  0.
         11    1    3    3    0    0  0.17834087425E+03 -0.31444387624E+02 -0.18353257784E+03  0.25783410184E+03  0.00000000000E+00 0.  1.
        -11    1    3    3    0    0  0.22445006351E+03  0.53983040004E+02 -0.17268669790E+03  0.28829272493E+03  0.00000000000E+00 0. -1.
         22    1    1    2    0    0 -0.40279093775E+03 -0.22538652380E+02  0.42358321108E+03  0.58495407264E+03  0.00000000000E+00 0. -1.
<mgrwt>
<rscale>  0 0.11290731E+04</rscale>
<asrwt>0</asrwt>
<pdfrwt beam="1">  1        2 0.92188064E-01 0.11290731E+04</pdfrwt>
<pdfrwt beam="2">  1       -2 0.81824382E-01 0.11290731E+04</pdfrwt>
<totfact> 0.64717341E+01</totfact>
</mgrwt>
</event>
<event>
 6    1  0.1568961E-005  0.2077214E+04  0.7818608E-02  0.8571348E-01
         -1   -1    0    0    0  501 -0.00000000000E+00  0.00000000000E+00  0.37801725408E+03  0.37801725408E+03  0.00000000000E+00 0.  1.
          1   -1    0    0  501    0  0.00000000000E+00 -0.00000000000E+00 -0.28535841290E+04  0.28535841290E+04  0.00000000000E+00 0. -1.
         23    2    1    2    0    0 -0.17090322725E+03  0.26786031072E+03 -0.27753488797E+04  0.27947646749E+04  0.84800499184E+02 0.  0.
         11    1    3    3    0    0  0.81097241809E+01  0.30512292966E+02 -0.26616518153E+03  0.26803110175E+03  0.00000000000E+00 0.  1.
        -11    1    3    3    0    0 -0.17901295144E+03  0.23734801775E+03 -0.25091836982E+04  0.25267335731E+04  0.00000000000E+00 0. -1.
         22    1    1    2    0    0  0.17090322725E+03 -0.26786031072E+03  0.29978200485E+03  0.43683670814E+03  0.00000000000E+00 0.  1.
<mgrwt>
<rscale>  0 0.20772136E+04</rscale>
<asrwt>0</asrwt>
<pdfrwt beam="1">  1        1 0.43901292E+00 0.20772136E+04</pdfrwt>
<pdfrwt beam="2">  1       -1 0.58156504E-01 0.20772136E+04</pdfrwt>
<totfact> 0.21083507E+00</totfact>
</mgrwt>
</event>
<event>
 6    1  0.1568961E-005  0.3067114E+04  0.7818608E-02  0.8224822E-01
         -1   -1    0    0    0  501 -0.00000000000E+00  0.00000000000E+00  0.12180787493E+04  0.12180787493E+04  0.00000000000E+00 0.  1.
          1   -1    0    0  501    0  0.00000000000E+00 -0.00000000000E+00 -0.19307428841E+04  0.19307428841E+04  0.00000000000E+00 0. -1.
         23    2    1    2    0    0 -0.88733392283E+03 -0.10932696810E+04 -0.97669052851E+03  0.17162330592E+04  0.94506290621E+02 0.  0.
         13    1    3    3    0    0 -0.42543206809E+03 -0.57386901667E+03 -0.53803365788E+03  0.89431443568E+03  0.00000000000E+00 0. -1.
        -13    1    3    3    0    0 -0.46190185474E+03 -0.51940066438E+03 -0.43865687063E+03  0.82191862354E+03  0.00000000000E+00 0.  1.
         22    1    1    2    0    0  0.88733392283E+03  0.10932696810E+04  0.26402639374E+03  0.14325885741E+04  0.00000000000E+00 0.  1.
<mgrwt>
<rscale>  0 0.30671139E+04</rscale>
<asrwt>0</asrwt>
<pdfrwt beam="1">  1        1 0.29703736E+00 0.30671139E+04</pdfrwt>
<pdfrwt beam="2">  1       -1 0.18739673E+00 0.30671139E+04</pdfrwt>
<totfact> 0.51794495E-01</totfact>
</mgrwt>
</event>
<event>
 6    1  0.1568961E-005  0.3460438E+04  0.7818608E-02  0.8123230E-01
          2   -1    0    0  501    0  0.00000000000E+00  0.00000000000E+00  0.12204320548E+04  0.12204320548E+04  0.00000000000E+00 0. -1.
         -2   -1    0    0    0  501 -0.00000000000E+00 -0.00000000000E+00 -0.24529487466E+04  0.24529487466E+04  0.00000000000E+00 0.  1.
         23    2    1    2    0    0  0.16870089546E+04 -0.36122914347E+03 -0.49567508364E+03  0.17973687379E+04  0.91405056169E+02 0.  0.
         13    1    3    3    0    0  0.84432112788E+03 -0.13564013449E+03 -0.25765232918E+03  0.89311876915E+03  0.00000000000E+00 0. -1.
        -13    1    3    3    0    0  0.84268782676E+03 -0.22558900898E+03 -0.23802275446E+03  0.90424996875E+03  0.00000000000E+00 0.  1.
         22    1    1    2    0    0 -0.16870089546E+04  0.36122914347E+03 -0.73684160813E+03  0.18760120636E+04  0.00000000000E+00 0.  1.
<mgrwt>
<rscale>  0 0.34604377E+04</rscale>
<asrwt>0</asrwt>
<pdfrwt beam="1">  1        2 0.18775878E+00 0.34604377E+04</pdfrwt>
<pdfrwt beam="2">  1       -2 0.37737673E+00 0.34604377E+04</pdfrwt>
<totfact> 0.15793544E-01</totfact>
</mgrwt>
</event>
<event>
 6    1  0.1568961E-005  0.1825400E+04  0.7818608E-02  0.8692907E-01
          1   -1    0    0  501    0  0.00000000000E+00  0.00000000000E+00  0.99110435499E+03  0.99110435499E+03  0.00000000000E+00 0. -1.
         -1   -1    0    0    0  501 -0.00000000000E+00 -0.00000000000E+00 -0.84049840123E+03  0.84049840123E+03  0.00000000000E+00 0.  1.
         23    2    1    2    0    0  0.65589262926E+03  0.47150492970E+03 -0.34504593214E+03  0.88387767380E+03  0.98341278768E+02 0.  0.
         11    1    3    3    0    0  0.22996400745E+03  0.18091186568E+03 -0.76077038401E+02  0.30232476517E+03  0.00000000000E+00 0.  1.
        -11    1    3    3    0    0  0.42592862181E+03  0.29059306403E+03 -0.26896889374E+03  0.58155290863E+03  0.00000000000E+00 0. -1.
         22    1    1    2    0    0 -0.65589262926E+03 -0.47150492970E+03  0.49565188590E+03  0.94772508242E+03  0.00000000000E+00 0.  1.
<mgrwt>
<rscale>  0 0.18254004E+04</rscale>
<asrwt>0</asrwt>
<pdfrwt beam="1">  1        1 0.15247759E+00 0.18254004E+04</pdfrwt>
<pdfrwt beam="2">  1       -1 0.12930745E+00 0.18254004E+04</pdfrwt>
<totfact> 0.74431355E+00</totfact>
</mgrwt>
</event>
<event>
 6    1  0.1568961E-005  0.2962596E+04  0.7818608E-02  0.8254493E-01
         -2   -1    0    0    0  501 -0.00000000000E+00  0.00000000000E+00  0.22889449635E+04  0.22889449635E+04  0.00000000000E+00 0. -1.
          2   -1    0    0  501    0  0.00000000000E+00 -0.00000000000E+00 -0.95862647385E+03  0.95862647385E+03  0.00000000000E+00 0.  1.
         23    2    1    2    0    0  0.38455338808E+03  0.88268882488E+03  0.18977478567E+04  0.21299861133E+04  0.91504346420E+02 0.  0.
         11    1    3    3    0    0  0.12813594132E+03  0.40734323102E+03  0.84762258754E+03  0.94911083558E+03  0.00000000000E+00 0. -1.
        -11    1    3    3    0    0  0.25641744676E+03  0.47534559385E+03  0.10501252692E+04  0.11808752778E+04  0.00000000000E+00 0.  1.
         22    1    1    2    0    0 -0.38455338808E+03 -0.88268882488E+03 -0.56742936708E+03  0.11175853240E+04  0.00000000000E+00 0.  1.
<mgrwt>
<rscale>  0 0.29625956E+04</rscale>
<asrwt>0</asrwt>
<pdfrwt beam="1">  1        2 0.14748100E+00 0.29625956E+04</pdfrwt>
<pdfrwt beam="2">  1       -2 0.35214538E+00 0.29625956E+04</pdfrwt>
<totfact> 0.34691265E-01</totfact>
</mgrwt>
</event>
<event>
 6    1  0.1568961E-005  0.3318891E+04  0.7818608E-02  0.8158105E-01
         -1   -1    0    0    0  501 -0.00000000000E+00  0.00000000000E+00  0.99317197175E+03  0.99317197175E+03  0.00000000000E+00 0.  1.
          1   -1    0    0  501    0  0.00000000000E+00 -0.00000000000E+00 -0.27726906944E+04  0.27726906944E+04  0.00000000000E+00 0. -1.
         23    2    1    2    0    0 -0.15033062509E+04 -0.69736365703E+03 -0.95587257523E+03  0.19152847212E+04  0.91528296148E+02 0.  0.
         11    1    3    3    0    0 -0.13092108256E+04 -0.63305413210E+03 -0.81571296426E+03  0.16673866259E+04  0.00000000000E+00 0.  1.
        -11    1    3    3    0    0 -0.19409542532E+03 -0.64309524924E+02 -0.14015961097E+03  0.24789809534E+03  0.00000000000E+00 0. -1.
         22    1    1    2    0    0  0.15033062509E+04  0.69736365703E+03 -0.82364614742E+03  0.18505779449E+04  0.00000000000E+00 0.  1.
<mgrwt>
<rscale>  0 0.33188906E+04</rscale>
<asrwt>0</asrwt>
<pdfrwt beam="1">  1        1 0.42656780E+00 0.33188906E+04</pdfrwt>
<pdfrwt beam="2">  1       -1 0.15279569E+00 0.33188906E+04</pdfrwt>
<totfact> 0.23945083E-01</totfact>
</mgrwt>
</event>
<event>
 6    1  0.1568961E-005  0.4027862E+04  0.7818608E-02  0.7998949E-01
          1   -1    0    0  501    0  0.00000000000E+00  0.00000000000E+00  0.28826656374E+04  0.28826656374E+04  0.00000000000E+00 0. -1.
         -1   -1    0    0    0  501 -0.00000000000E+00 -0.00000000000E+00 -0.14070024396E+04  0.14070024396E+04  0.00000000000E+00 0.  1.
         23    2    1    2    0    0  0.12738448620E+04 -0.13569796790E+04 -0.78180620513E+02  0.18651051899E+04  0.91818179599E+02 0.  0.
         11    1    3    3    0    0  0.69433211111E+03 -0.67566212043E+03 -0.26980540047E+02  0.96919777706E+03  0.00000000000E+00 0.  1.
        -11    1    3    3    0    0  0.57951275091E+03 -0.68131755856E+03 -0.51200080466E+02  0.89590741280E+03  0.00000000000E+00 0. -1.
         22    1    1    2    0    0 -0.12738448620E+04  0.13569796790E+04  0.15538438184E+04  0.24245628871E+04  0.00000000000E+00 0. -1.
<mgrwt>
<rscale>  0 0.40278618E+04</rscale>
<asrwt>0</asrwt>
<pdfrwt beam="1">  1        1 0.44348702E+00 0.40278618E+04</pdfrwt>
<pdfrwt beam="2">  1       -1 0.21646191E+00 0.40278618E+04</pdfrwt>
<totfact> 0.65978686E-02</totfact>
</mgrwt>
</event>
<event>
 6    1  0.1568961E-005  0.3546200E+04  0.7818608E-02  0.8102928E-01
          2   -1    0    0  501    0  0.00000000000E+00  0.00000000000E+00  0.30389441684E+04  0.30389441684E+04  0.00000000000E+00 0. -1.
         -2   -1    0    0    0  501 -0.00000000000E+00 -0.00000000000E+00 -0.10345313610E+04  0.10345313610E+04  0.00000000000E+00 0.  1.
         23    2    1    2    0    0 -0.25985660263E+03 -0.17073455354E+04  0.14582450882E+04  0.22621629090E+04  0.91367711199E+02 0.  0.
         11    1    3    3    0    0 -0.11476648444E+03 -0.82126958403E+03  0.75845364132E+03  0.11237913515E+04  0.00000000000E+00 0. -1.
        -11    1    3    3    0    0 -0.14509011819E+03 -0.88607595133E+03  0.69979144691E+03  0.11383715576E+04  0.00000000000E+00 0.  1.
         22    1    1    2    0    0  0.25985660263E+03  0.17073455354E+04  0.54616771925E+03  0.18113126203E+04  0.00000000000E+00 0. -1.
<mgrwt>
<rscale>  0 0.35461997E+04</rscale>
<asrwt>0</asrwt>
<pdfrwt beam="1">  1        2 0.46752987E+00 0.35461997E+04</pdfrwt>
<pdfrwt beam="2">  1       -2 0.15915867E+00 0.35461997E+04</pdfrwt>
<totfact> 0.34396431E-01</totfact>
</mgrwt>
</event>
<event>
 6    1  0.1568961E-005  0.2608293E+04  0.7818608E-02  0.8365390E-01
          1   -1    0    0  501    0  0.00000000000E+00  0.00000000000E+00  0.73765789160E+03  0.73765789160E+03  0.00000000000E+00 0. -1.
         -1   -1    0    0    0  501 -0.00000000000E+00 -0.00000000000E+00 -0.23056725669E+04  0.23056725669E+04  0.00000000000E+00 0.  1.
         23    2    1    2    0    0 -0.11401743261E+04  0.82660110957E+02 -0.56374723819E+02  0.11481034191E+04  0.90184054408E+02 0.  0.
         13    1    3    3    0    0 -0.97043586856E+03  0.68473134680E+02 -0.80046151807E+02  0.97613612349E+03  0.00000000000E+00 0.  1.
        -13    1    3    3    0    0 -0.16973845755E+03  0.14186976277E+02  0.23671427987E+02  0.17196729564E+03  0.00000000000E+00 0. -1.
         22    1    1    2    0    0  0.11401743261E+04 -0.82660110957E+02 -0.15116399515E+04  0.18952270394E+04  0.00000000000E+00 0.  1.
<mgrwt>
<rscale>  0 0.26082926E+04</rscale>
<asrwt>0</asrwt>
<pdfrwt beam="1">  1        1 0.11348583E+00 0.26082926E+04</pdfrwt>
<pdfrwt beam="2">  1       -1 0.35471885E+00 0.26082926E+04</pdfrwt>
<totfact> 0.31981087E-01</totfact>
</mgrwt>
</event>
<event>
 6    1  0.1568961E-005  0.2169233E+04  0.7818608E-02  0.8531344E-01
          1   -1    0    0  501    0  0.00000000000E+00  0.00000000000E+00  0.12748591232E+04  0.12748591232E+04  0.00000000000E+00 0. -1.
         -1   -1    0    0    0  501 -0.00000000000E+00 -0.00000000000E+00 -0.92276322300E+03  0.92276322300E+03  0.00000000000E+00 0.  1.
         23    2    1    2    0    0  0.52430503351E+03  0.35007263286E+03 -0.71530270940E+03  0.95795045083E+03  0.92544495937E+02 0.  0.
         11    1    3    3    0    0  0.22385819238E+03  0.14783574244E+03 -0.23672669503E+03  0.35778125325E+03  0.00000000000E+00 0. -1.
        -11    1    3    3    0    0  0.30044684113E+03  0.20223689041E+03 -0.47857601437E+03  0.60016919757E+03  0.00000000000E+00 0.  1.
         22    1    1    2    0    0 -0.52430503351E+03 -0.35007263286E+03  0.10673986096E+04  0.12396718954E+04  0.00000000000E+00 0. -1.
<mgrwt>
<rscale>  0 0.21692331E+04</rscale>
<asrwt>0</asrwt>
<pdfrwt beam="1">  1        1 0.19613217E+00 0.21692331E+04</pdfrwt>
<pdfrwt beam="2">  1       -1 0.14196357E+00 0.21692331E+04</pdfrwt>
<totfact> 0.34835859E+00</totfact>
</mgrwt>
</event>
<event>
 6    1  0.1568961E-005  0.7066063E+03  0.7818608E-02  0.9706001E-01
         -1   -1    0    0    0  501 -0.00000000000E+00  0.00000000000E+00  0.25405693876E+03  0.25405693876E+03  0.00000000000E+00 0.  1.
          1   -1    0    0  501    0  0.00000000000E+00 -0.00000000000E+00 -0.49131939668E+03  0.49131939668E+03  0.00000000000E+00 0. -1.
         23    2    1    2    0    0  0.26766645949E+03 -0.45918901034E+02  0.10895056191E+03  0.30535663802E+03  0.87284434100E+02 0.  0.
         11    1    3    3    0    0  0.36364233604E+02 -0.33951875285E+02  0.39596018429E+02  0.63584054576E+02  0.00000000000E+00 0. -1.
        -11    1    3    3    0    0  0.23130222588E+03 -0.11967025749E+02  0.69354543485E+02  0.24177258345E+03  0.00000000000E+00 0.  1.
         22    1    1    2    0    0 -0.26766645949E+03  0.45918901034E+02 -0.34621301984E+03  0.44001969741E+03  0.00000000000E+00 0. -1.
<mgrwt>
<rscale>  0 0.70660626E+03</rscale>
<asrwt>0</asrwt>
<pdfrwt beam="1">  1        1 0.75587598E-01 0.70660626E+03</pdfrwt>
<pdfrwt beam="2">  1       -1 0.39085683E-01 0.70660626E+03</pdfrwt>
<totfact> 0.29212792E+02</totfact>
</mgrwt>
</event>
<event>
 6    1  0.1568961E-005  0.8050804E+04  0.7818608E-02  0.7477815E-01
          2   -1    0    0  501    0  0.00000000000E+00  0.00000000000E+00  0.32382812121E+04  0.32382812121E+04  0.00000000000E+00 0.  1.
         -2   -1    0    0    0  501 -0.00000000000E+00 -0.00000000000E+00 -0.50038462297E+04  0.50038462297E+04  0.00000000000E+00 0. -1.
         23    2    1    2    0    0  0.20036447826E+04 -0.26627699704E+04  0.14279135159E+04  0.36265839772E+04  0.90763457070E+02 0.  0.
         13    1    3    3    0    0  0.80909456460E+03 -0.10473391811E+04  0.61188803892E+03  0.14580673328E+04  0.00000000000E+00 0.  1.
        -13    1    3    3    0    0  0.11945502180E+04 -0.16154307892E+04  0.81602547698E+03  0.21685166444E+04  0.00000000000E+00 0. -1.
         22    1    1    2    0    0 -0.20036447826E+04  0.26627699704E+04 -0.31934785335E+04  0.46155434646E+04  0.00000000000E+00 0. -1.
<mgrwt>
<rscale>  0 0.80508040E+04</rscale>
<asrwt>0</asrwt>
<pdfrwt beam="1">  1        2 0.49819711E+00 0.80508040E+04</pdfrwt>
<pdfrwt beam="2">  1       -2 0.76982250E+00 0.80508040E+04</pdfrwt>
<totfact> 0.82843210E-05</totfact>
</mgrwt>
</event>
<event>
 6    1  0.1568961E-005  0.2066711E+04  0.7818608E-02  0.8576051E-01
          1   -1    0    0  501    0  0.00000000000E+00  0.00000000000E+00  0.16064461348E+04  0.16064461348E+04  0.00000000000E+00 0. -1.
         -1   -1    0    0    0  501 -0.00000000000E+00 -0.00000000000E+00 -0.66471170239E+03  0.66471170239E+03  0.00000000000E+00 0.  1.
         23    2    1    2    0    0 -0.28346715923E+03 -0.96018627120E+03  0.19537263302E+03  0.10224115694E+04  0.69596305578E+02 0.  0.
         11    1    3    3    0    0 -0.15607958111E+03 -0.45512189747E+03  0.12218818754E+03  0.49641387005E+03  0.00000000000E+00 0.  1.
        -11    1    3    3    0    0 -0.12738757812E+03 -0.50506437372E+03  0.73184445477E+02  0.52599769935E+03  0.00000000000E+00 0. -1.
         22    1    1    2    0    0  0.28346715923E+03  0.96018627120E+03  0.74636179942E+03  0.12487462678E+04  0.00000000000E+00 0. -1.
<mgrwt>
<rscale>  0 0.20667110E+04</rscale>
<asrwt>0</asrwt>
<pdfrwt beam="1">  1        1 0.24714556E+00 0.20667110E+04</pdfrwt>
<pdfrwt beam="2">  1       -1 0.10226334E+00 0.20667110E+04</pdfrwt>
<totfact> 0.46113210E+00</totfact>
</mgrwt>
</event>
<event>
 6    1  0.1568961E-005  0.2748289E+04  0.7818608E-02  0.8319505E-01
          2   -1    0    0  501    0  0.00000000000E+00  0.00000000000E+00  0.20276553356E+04  0.20276553356E+04  0.00000000000E+00 0. -1.
         -2   -1    0    0    0  501 -0.00000000000E+00 -0.00000000000E+00 -0.93125929705E+03  0.93125929705E+03  0.00000000000E+00 0.  1.
         23    2    1    2    0    0 -0.67674610409E+03 -0.45444686250E+03  0.17378664489E+04  0.19216145181E+04  0.88968093323E+02 0.  0.
         11    1    3    3    0    0 -0.19093784179E+03 -0.11083430860E+03  0.56070871167E+03  0.60260746986E+03  0.00000000000E+00 0.  1.
        -11    1    3    3    0    0 -0.48580826230E+03 -0.34361255391E+03  0.11771577372E+04  0.13190070482E+04  0.00000000000E+00 0. -1.
         22    1    1    2    0    0  0.67674610409E+03  0.45444686250E+03 -0.64147041038E+03  0.10373001145E+04  0.00000000000E+00 0.  1.
<mgrwt>
<rscale>  0 0.27482888E+04</rscale>
<asrwt>0</asrwt>
<pdfrwt beam="1">  1        2 0.31194698E+00 0.27482888E+04</pdfrwt>
<pdfrwt beam="2">  1       -2 0.14327066E+00 0.27482888E+04</pdfrwt>
<totfact> 0.19055597E+00</totfact>
</mgrwt>
</event>
<event>
 6    1  0.1568961E-005  0.2640402E+04  0.7818608E-02  0.8354606E-01
          2   -1    0    0  501    0  0.00000000000E+00  0.00000000000E+00  0.16974531168E+04  0.16974531168E+04  0.00000000000E+00 0. -1.
         -2   -1    0    0    0  501 -0.00000000000E+00 -0.00000000000E+00 -0.10267918968E+04  0.10267918968E+04  0.00000000000E+00 0.  1.
         23    2    1    2    0    0 -0.12497411153E+04  0.24008048654E+03  0.69261587673E+03  0.14514632169E+04  0.86817176059E+02 0.  0.
         11    1    3    3    0    0 -0.10685737390E+04  0.18816800428E+03  0.55987446969E+03  0.12209489978E+04  0.00000000000E+00 0. -1.
        -11    1    3    3    0    0 -0.18116737626E+03  0.51912482252E+02  0.13274140704E+03  0.23051421904E+03  0.00000000000E+00 0.  1.
         22    1    1    2    0    0  0.12497411153E+04 -0.24008048654E+03 -0.21954656697E+02  0.12727817967E+04  0.00000000000E+00 0.  1.
<mgrwt>
<rscale>  0 0.26404023E+04</rscale>
<asrwt>0</asrwt>
<pdfrwt beam="1">  1        2 0.26114663E+00 0.26404023E+04</pdfrwt>
<pdfrwt beam="2">  1       -2 0.15796798E+00 0.26404023E+04</pdfrwt>
<totfact> 0.22626127E+00</totfact>
</mgrwt>
</event>
<event>
 6    1  0.1568961E-005  0.2691047E+04  0.7818608E-02  0.8337916E-01
          2   -1    0    0  501    0  0.00000000000E+00  0.00000000000E+00  0.20779749653E+04  0.20779749653E+04  0.00000000000E+00 0. -1.
         -2   -1    0    0    0  501 -0.00000000000E+00 -0.00000000000E+00 -0.87124917921E+03  0.87124917921E+03  0.00000000000E+00 0.  1.
         23    2    1    2    0    0 -0.49879484027E+03  0.89042741888E+03  0.15623067366E+04  0.18684396639E+04  0.92774767811E+02 0.  0.
         11    1    3    3    0    0 -0.15878166393E+03  0.24288317906E+03  0.51313787794E+03  0.58950346670E+03  0.00000000000E+00 0. -1.
        -11    1    3    3    0    0 -0.34001317634E+03  0.64754423982E+03  0.10491688587E+04  0.12789361973E+04  0.00000000000E+00 0.  1.
         22    1    1    2    0    0  0.49879484027E+03 -0.89042741888E+03 -0.35558095056E+03  0.10807844805E+04  0.00000000000E+00 0.  1.
<mgrwt>
<rscale>  0 0.26910474E+04</rscale>
<asrwt>0</asrwt>
<pdfrwt beam="1">  1        2 0.31968846E+00 0.26910474E+04</pdfrwt>
<pdfrwt beam="2">  1       -2 0.13403834E+00 0.26910474E+04</pdfrwt>
<totfact> 0.21322790E+00</totfact>
</mgrwt>
</event>
<event>
 6    1  0.1568961E-005  0.1096761E+04  0.7818608E-02  0.9208355E-01
          3   -1    0    0  501    0  0.00000000000E+00  0.00000000000E+00  0.71129912931E+03  0.71129912931E+03  0.00000000000E+00 0. -1.
         -3   -1    0    0    0  501 -0.00000000000E+00 -0.00000000000E+00 -0.42277703446E+03  0.42277703446E+03  0.00000000000E+00 0.  1.
         23    2    1    2    0    0  0.22073280815E+03 -0.68873641867E+02 -0.36446517376E+03  0.44135766098E+03  0.92169251263E+02 0.  0.
         13    1    3    3    0    0  0.43518507185E+02 -0.16498531688E+02 -0.20415432055E+02  0.50821765824E+02  0.00000000000E+00 0. -1.
        -13    1    3    3    0    0  0.17721430096E+03 -0.52375110179E+02 -0.34404974171E+03  0.39053589515E+03  0.00000000000E+00 0.  1.
         22    1    1    2    0    0 -0.22073280815E+03  0.68873641867E+02  0.65298726862E+03  0.69271850279E+03  0.00000000000E+00 0. -1.
<mgrwt>
<rscale>  0 0.10967606E+04</rscale>
<asrwt>0</asrwt>
<pdfrwt beam="1">  1        3 0.10943064E+00 0.10967606E+04</pdfrwt>
<pdfrwt beam="2">  1       -3 0.65042620E-01 0.10967606E+04</pdfrwt>
<totfact> 0.42088390E+00</totfact>
</mgrwt>
</event>
<event>
 6    1  0.1568961E-005  0.5332536E+04  0.7818608E-02  0.7779162E-01
         -1   -1    0    0    0  501 -0.00000000000E+00  0.00000000000E+00  0.18638934370E+04  0.18638934370E+04  0.00000000000E+00 0.  1.
          1   -1    0    0  501    0  0.00000000000E+00 -0.00000000000E+00 -0.38140517608E+04  0.38140517608E+04  0.00000000000E+00 0. -1.
         23    2    1    2    0    0 -0.25916102608E+04 -0.28359852359E+03 -0.38558930035E+03  0.26374274630E+04  0.10233595619E+03 0.  0.
         11    1    3    3    0    0 -0.26176007444E+03 -0.44948754601E+02 -0.66121701010E+02  0.27369838592E+03  0.00000000000E+00 0.  1.
        -11    1    3    3    0    0 -0.23298501863E+04 -0.23864976899E+03 -0.31946759934E+03  0.23637290771E+04  0.00000000000E+00 0. -1.
         22    1    1    2    0    0  0.25916102608E+04  0.28359852359E+03 -0.15645690234E+04  0.30405177348E+04  0.00000000000E+00 0. -1.
<mgrwt>
<rscale>  0 0.53325364E+04</rscale>
<asrwt>0</asrwt>
<pdfrwt beam="1">  1        1 0.58677718E+00 0.53325364E+04</pdfrwt>
<pdfrwt beam="2">  1       -1 0.28675284E+00 0.53325364E+04</pdfrwt>
<totfact> 0.39163108E-03</totfact>
</mgrwt>
</event>
<event>
 6    1  0.1568961E-005  0.3662826E+04  0.7818608E-02  0.8076250E-01
         -2   -1    0    0    0  501 -0.00000000000E+00  0.00000000000E+00  0.24049463947E+04  0.24049463947E+04  0.00000000000E+00 0.  1.
          2   -1    0    0  501    0  0.00000000000E+00 -0.00000000000E+00 -0.13946559535E+04  0.13946559535E+04  0.00000000000E+00 0. -1.
         23    2    1    2    0    0  0.17779734068E+03 -0.18123751934E+04  0.31867430080E+03  0.18516165625E+04  0.10302838640E+03 0.  0.
         11    1    3    3    0    0  0.12568372165E+02 -0.21824353377E+03  0.71471926077E+02  0.22999226124E+03  0.00000000000E+00 0.  1.
        -11    1    3    3    0    0  0.16522896852E+03 -0.15941316596E+04  0.24720237472E+03  0.16216243012E+04  0.00000000000E+00 0. -1.
         22    1    1    2    0    0 -0.17779734068E+03  0.18123751934E+04  0.69161614039E+03  0.19479857858E+04  0.00000000000E+00 0. -1.
<mgrwt>
<rscale>  0 0.36628256E+04</rscale>
<asrwt>0</asrwt>
<pdfrwt beam="1">  1        2 0.21456245E+00 0.36628256E+04</pdfrwt>
<pdfrwt beam="2">  1       -2 0.36999175E+00 0.36628256E+04</pdfrwt>
<totfact> 0.13713107E-01</totfact>
</mgrwt>
</event>
<event>
 6    1  0.1568961E-005  0.1688957E+04  0.7818608E-02  0.8767688E-01
          1   -1    0    0  501    0  0.00000000000E+00  0.00000000000E+00  0.12413156534E+04  0.12413156534E+04  0.00000000000E+00 0. -1.
         -1   -1    0    0    0  501 -0.00000000000E+00 -0.00000000000E+00 -0.57450630910E+03  0.57450630910E+03  0.00000000000E+00 0.  1.
         23    2    1    2    0    0 -0.94893051340E+02 -0.71413891423E+03  0.80243226569E+03  0.10827512586E+04  0.97229969892E+02 0.  0.
         11    1    3    3    0    0 -0.13462103500E+01 -0.32683659170E+03  0.39827086196E+03  0.51521223728E+03  0.00000000000E+00 0.  1.
        -11    1    3    3    0    0 -0.93546840990E+02 -0.38730232253E+03  0.40416140374E+03  0.56753902136E+03  0.00000000000E+00 0. -1.
         22    1    1    2    0    0  0.94893051340E+02  0.71413891423E+03 -0.13562292141E+03  0.73307070384E+03  0.00000000000E+00 0.  1.
<mgrwt>
<rscale>  0 0.16889567E+04</rscale>
<asrwt>0</asrwt>
<pdfrwt beam="1">  1        1 0.19097164E+00 0.16889567E+04</pdfrwt>
<pdfrwt beam="2">  1       -1 0.88385586E-01 0.16889567E+04</pdfrwt>
<totfact> 0.11939099E+01</totfact>
</mgrwt>
</event>
<event>
 6    1  0.1568961E-005  0.2176670E+04  0.7818608E-02  0.8528202E-01
          2   -1    0    0  501    0  0.00000000000E+00  0.00000000000E+00  0.46819630766E+04  0.46819630766E+04  0.00000000000E+00 0. -1.
         -2   -1    0    0    0  501 -0.00000000000E+00 -0.00000000000E+00 -0.25298651212E+03  0.25298651212E+03  0.00000000000E+00 0.  1.
         23    2    1    2    0    0  0.44595919271E+03  0.15336918256E+03  0.44375053771E+04  0.44632776175E+04  0.83614663780E+02 0.  0.
         13    1    3    3    0    0  0.14763023831E+03  0.11528927773E+02  0.12775417984E+04  0.12860951170E+04  0.00000000000E+00 0.  1.
        -13    1    3    3    0    0  0.29832895440E+03  0.14184025479E+03  0.31599635787E+04  0.31771825005E+04  0.00000000000E+00 0. -1.
         22    1    1    2    0    0 -0.44595919271E+03 -0.15336918256E+03 -0.85288126242E+01  0.47167197115E+03  0.00000000000E+00 0.  1.
<mgrwt>
<rscale>  0 0.21766704E+04</rscale>
<asrwt>0</asrwt>
<pdfrwt beam="1">  1        2 0.72030195E+00 0.21766704E+04</pdfrwt>
<pdfrwt beam="2">  1       -2 0.38921005E-01 0.21766704E+04</pdfrwt>
<totfact> 0.46502149E-01</totfact>
</mgrwt>
</event>
<event>
 6    1  0.1568961E-005  0.2276056E+04  0.7818608E-02  0.8487422E-01
          1   -1    0    0  501    0  0.00000000000E+00  0.00000000000E+00  0.10953340271E+04  0.10953340271E+04  0.00000000000E+00 0. -1.
         -1   -1    0    0    0  501 -0.00000000000E+00 -0.00000000000E+00 -0.11823866189E+04  0.11823866189E+04  0.00000000000E+00 0.  1.
         23    2    1    2    0    0 -0.11006923950E+04 -0.16478869817E+03 -0.27243832314E+03  0.11494268310E+04  0.90996354350E+02 0.  0.
         13    1    3    3    0    0 -0.47104588473E+03 -0.48109356293E+02 -0.75619545721E+02  0.47949666462E+03  0.00000000000E+00 0.  1.
        -13    1    3    3    0    0 -0.62964651028E+03 -0.11667934187E+03 -0.19681877742E+03  0.66993016642E+03  0.00000000000E+00 0. -1.
         22    1    1    2    0    0  0.11006923950E+04  0.16478869817E+03  0.18538573141E+03  0.11282938150E+04  0.00000000000E+00 0.  1.
<mgrwt>
<rscale>  0 0.22760565E+04</rscale>
<asrwt>0</asrwt>
<pdfrwt beam="1">  1        1 0.16851293E+00 0.22760565E+04</pdfrwt>
<pdfrwt beam="2">  1       -1 0.18190563E+00 0.22760565E+04</pdfrwt>
<totfact> 0.23347706E+00</totfact>
</mgrwt>
</event>
<event>
 6    1  0.1568961E-005  0.9853772E+03  0.7818608E-02  0.9324730E-01
         -2   -1    0    0    0  501 -0.00000000000E+00  0.00000000000E+00  0.91630481980E+03  0.91630481980E+03  0.00000000000E+00 0.  1.
          2   -1    0    0  501    0  0.00000000000E+00 -0.00000000000E+00 -0.26491407291E+03  0.26491407291E+03  0.00000000000E+00 0. -1.
         23    2    1    2    0    0 -0.39796326159E+03  0.13893650876E+03  0.32413316607E+02  0.43234562556E+03  0.90520747903E+02 0.  0.
         13    1    3    3    0    0 -0.86555775798E+02  0.13485760888E+02  0.40527585582E+02  0.96520740071E+02  0.00000000000E+00 0.  1.
        -13    1    3    3    0    0 -0.31140748580E+03  0.12545074787E+03 -0.81142689753E+01  0.33582488549E+03  0.00000000000E+00 0. -1.
         22    1    1    2    0    0  0.39796326159E+03 -0.13893650876E+03  0.61897743029E+03  0.74887326715E+03  0.00000000000E+00 0.  1.
<mgrwt>
<rscale>  0 0.98537717E+03</rscale>
<asrwt>0</asrwt>
<pdfrwt beam="1">  1        2 0.40756012E-01 0.98537717E+03</pdfrwt>
<pdfrwt beam="2">  1       -2 0.14096997E+00 0.98537717E+03</pdfrwt>
<totfact> 0.44422065E+01</totfact>
</mgrwt>
</event>
<event>
 6    1  0.1568961E-005  0.1325033E+04  0.7818608E-02  0.9009946E-01
          2   -1    0    0  501    0  0.00000000000E+00  0.00000000000E+00  0.20809852320E+04  0.20809852320E+04  0.00000000000E+00 0. -1.
         -2   -1    0    0    0  501 -0.00000000000E+00 -0.00000000000E+00 -0.21092320430E+03  0.21092320430E+03  0.00000000000E+00 0.  1.
         23    2    1    2    0    0  0.55002162347E+03  0.11132323245E+01  0.31014731039E+03  0.63786522318E+03  0.90308710697E+02 0.  0.
         11    1    3    3    0    0  0.48779170226E+03  0.24220067723E+02  0.25178107025E+03  0.54947344232E+03  0.00000000000E+00 0. -1.
        -11    1    3    3    0    0  0.62229921207E+02 -0.23106835399E+02  0.58366240139E+02  0.88391780859E+02  0.00000000000E+00 0.  1.
         22    1    1    2    0    0 -0.55002162347E+03 -0.11132323245E+01  0.15599147173E+04  0.16540432131E+04  0.00000000000E+00 0. -1.
<mgrwt>
<rscale>  0 0.13250329E+04</rscale>
<asrwt>0</asrwt>
<pdfrwt beam="1">  1        2 0.32015156E+00 0.13250329E+04</pdfrwt>
<pdfrwt beam="2">  1       -2 0.32449725E-01 0.13250329E+04</pdfrwt>
<totfact> 0.52192801E+01</totfact>
</mgrwt>
</event>
<event>
 6    1  0.1568961E-005  0.2459180E+04  0.7818608E-02  0.8417674E-01
          1   -1    0    0  501    0  0.00000000000E+00  0.00000000000E+00  0.16980943582E+04  0.16980943582E+04  0.00000000000E+00 0. -1.
         -1   -1    0    0    0  501 -0.00000000000E+00 -0.00000000000E+00 -0.89034604250E+03  0.89034604250E+03  0.00000000000E+00 0.  1.
         23    2    1    2    0    0  0.73892360623E+02  0.12151861745E+04  0.23596131787E+03  0.12434207389E+04  0.90993794765E+02 0.  0.
         11    1    3    3    0    0  0.62721067186E+01  0.66925268677E+03  0.15951855741E+03  0.68802955476E+03  0.00000000000E+00 0.  1.
        -11    1    3    3    0    0  0.67620253905E+02  0.54593348776E+03  0.76442760456E+02  0.55539118414E+03  0.00000000000E+00 0. -1.
         22    1    1    2    0    0 -0.73892360623E+02 -0.12151861745E+04  0.57178699784E+03  0.13450196618E+04  0.00000000000E+00 0. -1.
<mgrwt>
<rscale>  0 0.24591800E+04</rscale>
<asrwt>0</asrwt>
<pdfrwt beam="1">  1        1 0.26124529E+00 0.24591800E+04</pdfrwt>
<pdfrwt beam="2">  1       -1 0.13697631E+00 0.24591800E+04</pdfrwt>
<totfact> 0.18909778E+00</totfact>
</mgrwt>
</event>
<event>
 6    1  0.1568961E-005  0.1342409E+04  0.7818608E-02  0.8996594E-01
          1   -1    0    0  501    0  0.00000000000E+00  0.00000000000E+00  0.16147142266E+04  0.16147142266E+04  0.00000000000E+00 0. -1.
         -1   -1    0    0    0  501 -0.00000000000E+00 -0.00000000000E+00 -0.27900650298E+03  0.27900650298E+03  0.00000000000E+00 0.  1.
         23    2    1    2    0    0 -0.59533000430E+03 -0.27947600966E+03  0.83686380889E+03  0.10682693953E+04  0.91289716624E+02 0.  0.
         11    1    3    3    0    0 -0.39490997856E+03 -0.22318036382E+03  0.53237457409E+03  0.69941836772E+03  0.00000000000E+00 0. -1.
        -11    1    3    3    0    0 -0.20042002574E+03 -0.56295645836E+02  0.30448923480E+03  0.36885102760E+03  0.00000000000E+00 0.  1.
         22    1    1    2    0    0  0.59533000430E+03  0.27947600966E+03  0.49884391476E+03  0.82545133429E+03  0.00000000000E+00 0.  1.
<mgrwt>
<rscale>  0 0.13424094E+04</rscale>
<asrwt>0</asrwt>
<pdfrwt beam="1">  1        1 0.24841757E+00 0.13424094E+04</pdfrwt>
<pdfrwt beam="2">  1       -1 0.42924078E-01 0.13424094E+04</pdfrwt>
<totfact> 0.28554536E+01</totfact>
</mgrwt>
</event>
<event>
 6    1  0.1568961E-005  0.1198555E+04  0.7818608E-02  0.9114123E-01
          2   -1    0    0  501    0  0.00000000000E+00  0.00000000000E+00  0.18475827587E+04  0.18475827587E+04  0.00000000000E+00 0. -1.
         -2   -1    0    0    0  501 -0.00000000000E+00 -0.00000000000E+00 -0.19438011549E+03  0.19438011549E+03  0.00000000000E+00 0.  1.
         23    2    1    2    0    0  0.31000242190E+03 -0.26417188061E+03  0.90012147382E+02  0.42658279187E+03  0.89344320194E+02 0.  0.
         13    1    3    3    0    0  0.79435856449E+02 -0.42535100510E+02  0.53232392421E+02  0.10465647456E+03  0.00000000000E+00 0.  1.
        -13    1    3    3    0    0  0.23056656545E+03 -0.22163678010E+03  0.36779754961E+02  0.32192631731E+03  0.00000000000E+00 0. -1.
         22    1    1    2    0    0 -0.31000242190E+03  0.26417188061E+03  0.15631904958E+04  0.16153800823E+04  0.00000000000E+00 0. -1.
<mgrwt>
<rscale>  0 0.11985547E+04</rscale>
<asrwt>0</asrwt>
<pdfrwt beam="1">  1        2 0.28424349E+00 0.11985547E+04</pdfrwt>
<pdfrwt beam="2">  1       -2 0.29904634E-01 0.11985547E+04</pdfrwt>
<totfact> 0.82694513E+01</totfact>
</mgrwt>
</event>
<event>
 6    1  0.1568961E-005  0.7778629E+03  0.7818608E-02  0.9592624E-01
         -2   -1    0    0    0  501 -0.00000000000E+00  0.00000000000E+00  0.29706472202E+03  0.29706472202E+03  0.00000000000E+00 0.  1.
          2   -1    0    0  501    0  0.00000000000E+00 -0.00000000000E+00 -0.50920781500E+03  0.50920781500E+03  0.00000000000E+00 0. -1.
         23    2    1    2    0    0  0.31814232919E+02  0.35714492623E+03  0.33947822377E+02  0.37138705512E+03  0.90615927503E+02 0.  0.
         13    1    3    3    0    0  0.28066277944E+02  0.19910897721E+03  0.62882143085E+02  0.21068048007E+03  0.00000000000E+00 0.  1.
        -13    1    3    3    0    0  0.37479549746E+01  0.15803594902E+03 -0.28934320708E+02  0.16070657505E+03  0.00000000000E+00 0. -1.
         22    1    1    2    0    0 -0.31814232919E+02 -0.35714492623E+03 -0.24609091535E+03  0.43488548190E+03  0.00000000000E+00 0. -1.
<mgrwt>
<rscale>  0 0.77786291E+03</rscale>
<asrwt>0</asrwt>
<pdfrwt beam="1">  1        2 0.78339663E-01 0.77786291E+03</pdfrwt>
<pdfrwt beam="2">  1       -2 0.45702265E-01 0.77786291E+03</pdfrwt>
<totfact> 0.27567345E+02</totfact>
</mgrwt>
</event>
<event>
 6    1  0.1568961E-005  0.4325014E+03  0.7818608E-02  0.1033073E+00
         -2   -1    0    0    0  501 -0.00000000000E+00  0.00000000000E+00  0.32771089439E+02  0.32771089439E+02  0.00000000000E+00 0.  1.
          2   -1    0    0  501    0  0.00000000000E+00 -0.00000000000E+00 -0.14270008667E+04  0.14270008667E+04  0.00000000000E+00 0. -1.
         23    2    1    2    0    0 -0.19200789265E+03 -0.64490110742E+02 -0.86471252912E+03  0.89283763781E+03  0.91680337287E+02 0.  0.
         11    1    3    3    0    0 -0.13954120054E+03 -0.63323921078E+02 -0.46270925204E+03  0.48742334531E+03  0.00000000000E+00 0.  1.
        -11    1    3    3    0    0 -0.52466692116E+02 -0.11661896640E+01 -0.40200327709E+03  0.40541429251E+03  0.00000000000E+00 0. -1.
         22    1    1    2    0    0  0.19200789265E+03  0.64490110742E+02 -0.52951724816E+03  0.56693431835E+03  0.00000000000E+00 0. -1.
<mgrwt>
<rscale>  0 0.43250144E+03</rscale>
<asrwt>0</asrwt>
<pdfrwt beam="1">  1        2 0.21953864E+00 0.43250144E+03</pdfrwt>
<pdfrwt beam="2">  1       -2 0.50417049E-02 0.43250144E+03</pdfrwt>
<totfact> 0.28879299E+03</totfact>
</mgrwt>
</event>
<event>
 6    1  0.1568961E-005  0.8706934E+03  0.7818608E-02  0.9462976E-01
          1   -1    0    0  501    0  0.00000000000E+00  0.00000000000E+00  0.53444602618E+03  0.53444602618E+03  0.00000000000E+00 0. -1.
         -1   -1    0    0    0  501 -0.00000000000E+00 -0.00000000000E+00 -0.35462279490E+03  0.35462279490E+03  0.00000000000E+00 0.  1.
         23    2    1    2    0    0  0.31808281722E+03 -0.39414231617E+02 -0.20289197092E+03  0.38986837411E+03  0.90011315966E+02 0.  0.
         13    1    3    3    0    0  0.11490497705E+03 -0.60030546321E+01 -0.12454452326E+03  0.16955980859E+03  0.00000000000E+00 0.  1.
        -13    1    3    3    0    0  0.20317784018E+03 -0.33411176985E+02 -0.78347447652E+02  0.22030856552E+03  0.00000000000E+00 0. -1.
         22    1    1    2    0    0 -0.31808281722E+03  0.39414231617E+02  0.38271520220E+03  0.49920044697E+03  0.00000000000E+00 0. -1.
<mgrwt>
<rscale>  0 0.87069339E+03</rscale>
<asrwt>0</asrwt>
<pdfrwt beam="1">  1        1 0.82222465E-01 0.87069339E+03</pdfrwt>
<pdfrwt beam="2">  1       -1 0.54557353E-01 0.87069339E+03</pdfrwt>
<totfact> 0.13834013E+02</totfact>
</mgrwt>
</event>
<event>
 6    1  0.1568961E-005  0.3530960E+04  0.7818608E-02  0.8106492E-01
         -2   -1    0    0    0  501 -0.00000000000E+00  0.00000000000E+00  0.10091434361E+04  0.10091434361E+04  0.00000000000E+00 0.  1.
          2   -1    0    0  501    0  0.00000000000E+00 -0.00000000000E+00 -0.30886784401E+04  0.30886784401E+04  0.00000000000E+00 0. -1.
         23    2    1    2    0    0  0.43539408753E+03  0.11628576812E+04  0.41375945801E+03  0.13124451921E+04  0.97516639271E+02 0.  0.
         11    1    3    3    0    0  0.21374858676E+03  0.46670926822E+03  0.13801418800E+03  0.53155800763E+03  0.00000000000E+00 0. -1.
        -11    1    3    3    0    0  0.22164550077E+03  0.69614841301E+03  0.27574527001E+03  0.78088718448E+03  0.00000000000E+00 0.  1.
         22    1    1    2    0    0 -0.43539408753E+03 -0.11628576812E+04 -0.24932944620E+04  0.27853766842E+04  0.00000000000E+00 0. -1.
<mgrwt>
<rscale>  0 0.35309600E+04</rscale>
<asrwt>0</asrwt>
<pdfrwt beam="1">  1        2 0.47518130E+00 0.35309600E+04</pdfrwt>
<pdfrwt beam="2">  1       -2 0.15525284E+00 0.35309600E+04</pdfrwt>
<totfact> 0.34249826E-01</totfact>
</mgrwt>
</event>
<event>
 6    1  0.1568961E-005  0.2011405E+04  0.7818608E-02  0.8601307E-01
         -1   -1    0    0    0  501 -0.00000000000E+00  0.00000000000E+00  0.34614604370E+03  0.34614604370E+03  0.00000000000E+00 0.  1.
          1   -1    0    0  501    0  0.00000000000E+00 -0.00000000000E+00 -0.29219976663E+04  0.29219976663E+04  0.00000000000E+00 0. -1.
         23    2    1    2    0    0 -0.59127128681E+03  0.81069586086E+03 -0.12565899121E+04  0.16106513347E+04  0.91378341695E+02 0.  0.
         11    1    3    3    0    0 -0.31136172289E+03  0.35829553646E+03 -0.55883032060E+03  0.73322107249E+03  0.00000000000E+00 0. -1.
        -11    1    3    3    0    0 -0.27990956393E+03  0.45240032439E+03 -0.69775959146E+03  0.87743026216E+03  0.00000000000E+00 0.  1.
         22    1    1    2    0    0  0.59127128681E+03 -0.81069586086E+03 -0.13192617106E+04  0.16574923754E+04  0.00000000000E+00 0.  1.
<mgrwt>
<rscale>  0 0.20114054E+04</rscale>
<asrwt>0</asrwt>
<pdfrwt beam="1">  1        1 0.44953810E+00 0.20114054E+04</pdfrwt>
<pdfrwt beam="2">  1       -1 0.53253238E-01 0.20114054E+04</pdfrwt>
<totfact> 0.22484501E+00</totfact>
</mgrwt>
</event>
<event>
 6    1  0.1568961E-005  0.2157976E+04  0.7818608E-02  0.8536126E-01
          2   -1    0    0  501    0  0.00000000000E+00  0.00000000000E+00  0.21456457177E+04  0.21456457177E+04  0.00000000000E+00 0. -1.
         -2   -1    0    0    0  501 -0.00000000000E+00 -0.00000000000E+00 -0.54259445651E+03  0.54259445651E+03  0.00000000000E+00 0.  1.
         23    2    1    2    0    0 -0.17745240970E+03 -0.87986258963E+03  0.15444735669E+04  0.17887520527E+04  0.92670237606E+02 0.  0.
         11    1    3    3    0    0 -0.55147920341E+02 -0.49287079336E+03  0.88021291730E+03  0.10103156397E+04  0.00000000000E+00 0. -1.
        -11    1    3    3    0    0 -0.12230448936E+03 -0.38699179627E+03  0.66426064961E+03  0.77843641302E+03  0.00000000000E+00 0.  1.
         22    1    1    2    0    0  0.17745240970E+03  0.87986258963E+03  0.58577694251E+02  0.89948812144E+03  0.00000000000E+00 0.  1.
<mgrwt>
<rscale>  0 0.21579763E+04</rscale>
<asrwt>0</asrwt>
<pdfrwt beam="1">  1        2 0.33009934E+00 0.21579763E+04</pdfrwt>
<pdfrwt beam="2">  1       -2 0.83476071E-01 0.21579763E+04</pdfrwt>
<totfact> 0.63790353E+00</totfact>
</mgrwt>
</event>
<event>
 6    1  0.1606340E-005  0.1617541E+04  0.7818608E-02  0.8809844E-01
         -1   -1    0    0    0  501 -0.00000000000E+00  0.00000000000E+00  0.89312853521E+03  0.89312853521E+03  0.00000000000E+00 0.  1.
          1   -1    0    0  501    0  0.00000000000E+00 -0.00000000000E+00 -0.73238017212E+03  0.73238017212E+03  0.00000000000E+00 0. -1.
         23    2    1    2    0    0 -0.25844851813E+03 -0.48474262747E+03  0.67364442974E+03  0.87395469954E+03  0.90713547588E+02 0.  0.
         11    1    3    3    0    0 -0.13198337855E+03 -0.21418444272E+03  0.37520431820E+03  0.45174425078E+03  0.00000000000E+00 0. -1.
        -11    1    3    3    0    0 -0.12646513958E+03 -0.27055818476E+03  0.29844011154E+03  0.42221044876E+03  0.00000000000E+00 0.  1.
         22    1    1    2    0    0  0.25844851813E+03  0.48474262747E+03 -0.51289606665E+03  0.75155400778E+03  0.00000000000E+00 0. -1.
<mgrwt>
<rscale>  0 0.16175409E+04</rscale>
<asrwt>0</asrwt>
<pdfrwt beam="1">  1        1 0.11267387E+00 0.16175409E+04</pdfrwt>
<pdfrwt beam="2">  1       -1 0.13740439E+00 0.16175409E+04</pdfrwt>
<totfact> 0.10719916E+01</totfact>
</mgrwt>
</event>
<event>
 6    1  0.1568961E-005  0.1103667E+04  0.7818608E-02  0.9201625E-01
         -2   -1    0    0    0  501 -0.00000000000E+00  0.00000000000E+00  0.46145299666E+03  0.46145299666E+03  0.00000000000E+00 0.  1.
          2   -1    0    0  501    0  0.00000000000E+00 -0.00000000000E+00 -0.65991578623E+03  0.65991578623E+03  0.00000000000E+00 0. -1.
         23    2    1    2    0    0 -0.32216001055E+03 -0.22512989107E+03  0.28793796345E+03  0.49602389181E+03  0.93063903825E+02 0.  0.
         11    1    3    3    0    0 -0.12194406791E+03 -0.74292698797E+02  0.52550987742E+02  0.15215573307E+03  0.00000000000E+00 0. -1.
        -11    1    3    3    0    0 -0.20021594264E+03 -0.15083719227E+03  0.23538697571E+03  0.34386815874E+03  0.00000000000E+00 0.  1.
         22    1    1    2    0    0  0.32216001055E+03  0.22512989107E+03 -0.48640075303E+03  0.62534489108E+03  0.00000000000E+00 0. -1.
<mgrwt>
<rscale>  0 0.11036668E+04</rscale>
<asrwt>0</asrwt>
<pdfrwt beam="1">  1        2 0.10152551E+00 0.11036668E+04</pdfrwt>
<pdfrwt beam="2">  1       -2 0.70992769E-01 0.11036668E+04</pdfrwt>
<totfact> 0.78997635E+01</totfact>
</mgrwt>
</event>
<event>
 6    1  0.1568961E-005  0.3699648E+04  0.7818608E-02  0.8068040E-01
         -2   -1    0    0    0  501 -0.00000000000E+00  0.00000000000E+00  0.88527943779E+03  0.88527943779E+03  0.00000000000E+00 0.  1.
          2   -1    0    0  501    0  0.00000000000E+00 -0.00000000000E+00 -0.38652748414E+04  0.38652748414E+04  0.00000000000E+00 0. -1.
         23    2    1    2    0    0 -0.92730181027E+03  0.15661885270E+04 -0.10752585437E+04  0.21160035291E+04  0.91950257447E+02 0.  0.
         13    1    3    3    0    0 -0.34417656303E+03  0.64396097906E+03 -0.39428322151E+03  0.82982076852E+03  0.00000000000E+00 0. -1.
        -13    1    3    3    0    0 -0.58312524724E+03  0.92222754794E+03 -0.68097532221E+03  0.12861827606E+04  0.00000000000E+00 0.  1.
         22    1    1    2    0    0  0.92730181027E+03 -0.15661885270E+04 -0.19047368599E+04  0.26345507501E+04  0.00000000000E+00 0.  1.
<mgrwt>
<rscale>  0 0.36996477E+04</rscale>
<asrwt>0</asrwt>
<pdfrwt beam="1">  1        2 0.59465767E+00 0.36996477E+04</pdfrwt>
<pdfrwt beam="2">  1       -2 0.13619684E+00 0.36996477E+04</pdfrwt>
<totfact> 0.13605810E-01</totfact>
</mgrwt>
</event>
<event>
 6    1  0.1568961E-005  0.2925885E+04  0.7818608E-02  0.8265217E-01
         -2   -1    0    0    0  501 -0.00000000000E+00  0.00000000000E+00  0.82893984520E+03  0.82893984520E+03  0.00000000000E+00 0.  1.
          2   -1    0    0  501    0  0.00000000000E+00 -0.00000000000E+00 -0.25818521985E+04  0.25818521985E+04  0.00000000000E+00 0. -1.
         23    2    1    2    0    0 -0.37224124100E+03 -0.96364681345E+03  0.32791529234E+03  0.10876427989E+04  0.90882872843E+02 0.  0.
         13    1    3    3    0    0 -0.13427857423E+03 -0.27044206504E+03  0.12801195704E+03  0.32795839246E+03  0.00000000000E+00 0.  1.
        -13    1    3    3    0    0 -0.23796266677E+03 -0.69320474841E+03  0.19990333530E+03  0.75968440648E+03  0.00000000000E+00 0. -1.
         22    1    1    2    0    0  0.37224124100E+03  0.96364681345E+03 -0.20808276457E+04  0.23231492448E+04  0.00000000000E+00 0. -1.
<mgrwt>
<rscale>  0 0.29258846E+04</rscale>
<asrwt>0</asrwt>
<pdfrwt beam="1">  1        2 0.39720803E+00 0.29258846E+04</pdfrwt>
<pdfrwt beam="2">  1       -2 0.12752921E+00 0.29258846E+04</pdfrwt>
<totfact> 0.12242083E+00</totfact>
</mgrwt>
</event>
<event>
 6    1  0.1568961E-005  0.2196624E+04  0.7818608E-02  0.8519834E-01
          2   -1    0    0  501    0  0.00000000000E+00  0.00000000000E+00  0.19885921164E+04  0.19885921164E+04  0.00000000000E+00 0.  1.
         -2   -1    0    0    0  501 -0.00000000000E+00 -0.00000000000E+00 -0.60660487415E+03  0.60660487415E+03  0.00000000000E+00 0. -1.
         23    2    1    2    0    0 -0.40085897421E+03 -0.15212605183E+03 -0.50006998195E+03  0.66491989955E+03  0.90654471066E+02 0.  0.
         13    1    3    3    0    0 -0.52616901383E+02 -0.37226024361E+02 -0.12343812054E+03  0.13925259352E+03  0.00000000000E+00 0. -1.
        -13    1    3    3    0    0 -0.34824207282E+03 -0.11490002747E+03 -0.37663186142E+03  0.52566730603E+03  0.00000000000E+00 0.  1.
         22    1    1    2    0    0  0.40085897421E+03  0.15212605183E+03  0.18820572242E+04  0.19302770910E+04  0.00000000000E+00 0.  1.
<mgrwt>
<rscale>  0 0.21966244E+04</rscale>
<asrwt>0</asrwt>
<pdfrwt beam="1">  1        2 0.30593725E+00 0.21966244E+04</pdfrwt>
<pdfrwt beam="2">  1       -2 0.93323828E-01 0.21966244E+04</pdfrwt>
<totfact> 0.60217168E+00</totfact>
</mgrwt>
</event>
<event>
 6    1  0.1568961E-005  0.1527046E+04  0.7818608E-02  0.8866664E-01
          1   -1    0    0  501    0  0.00000000000E+00  0.00000000000E+00  0.42211426627E+03  0.42211426627E+03  0.00000000000E+00 0. -1.
         -1   -1    0    0    0  501 -0.00000000000E+00 -0.00000000000E+00 -0.13810655404E+04  0.13810655404E+04  0.00000000000E+00 0.  1.
         23    2    1    2    0    0  0.50187654538E+03  0.32019328301E+03 -0.10405729110E+04  0.12022922158E+04  0.91163500507E+02 0.  0.
         13    1    3    3    0    0  0.14855081779E+03  0.56396405101E+02 -0.23002054887E+03  0.27956636578E+03  0.00000000000E+00 0.  1.
        -13    1    3    3    0    0  0.35332572759E+03  0.26379687791E+03 -0.81055236210E+03  0.92272585001E+03  0.00000000000E+00 0. -1.
         22    1    1    2    0    0 -0.50187654538E+03 -0.32019328301E+03  0.81621636842E+02  0.60088759089E+03  0.00000000000E+00 0. -1.
<mgrwt>
<rscale>  0 0.15270461E+04</rscale>
<asrwt>0</asrwt>
<pdfrwt beam="1">  1        1 0.64940657E-01 0.15270461E+04</pdfrwt>
<pdfrwt beam="2">  1       -1 0.21247162E+00 0.15270461E+04</pdfrwt>
<totfact> 0.66641053E+00</totfact>
</mgrwt>
</event>
<event>
 6    1  0.1568961E-005  0.4070232E+04  0.7818608E-02  0.7990526E-01
          1   -1    0    0  501    0  0.00000000000E+00  0.00000000000E+00  0.31252755736E+04  0.31252755736E+04  0.00000000000E+00 0. -1.
         -1   -1    0    0    0  501 -0.00000000000E+00 -0.00000000000E+00 -0.13252264788E+04  0.13252264788E+04  0.00000000000E+00 0.  1.
         23    2    1    2    0    0  0.92214257818E+03 -0.67229694022E+03 -0.94087572255E+03  0.14814956588E+04  0.85159565468E+02 0.  0.
         11    1    3    3    0    0  0.29488457068E+03 -0.22515185842E+03 -0.35727536870E+03  0.51506888709E+03  0.00000000000E+00 0. -1.
        -11    1    3    3    0    0  0.62725800750E+03 -0.44714508180E+03 -0.58360035385E+03  0.96642677175E+03  0.00000000000E+00 0.  1.
         22    1    1    2    0    0 -0.92214257818E+03  0.67229694022E+03  0.27409248174E+04  0.29690063935E+04  0.00000000000E+00 0. -1.
<mgrwt>
<rscale>  0 0.40702324E+04</rscale>
<asrwt>0</asrwt>
<pdfrwt beam="1">  1        1 0.48081163E+00 0.40702324E+04</pdfrwt>
<pdfrwt beam="2">  1       -1 0.20388100E+00 0.40702324E+04</pdfrwt>
<totfact> 0.53196319E-02</totfact>
</mgrwt>
</event>
<event>
 6    1  0.1568961E-005  0.3898483E+04  0.7818608E-02  0.8025345E-01
         -2   -1    0    0    0  501 -0.00000000000E+00  0.00000000000E+00  0.18815114350E+04  0.18815114350E+04  0.00000000000E+00 0.  1.
          2   -1    0    0  501    0  0.00000000000E+00 -0.00000000000E+00 -0.20194100421E+04  0.20194100421E+04  0.00000000000E+00 0. -1.
         23    2    1    2    0    0  0.27297991512E+03 -0.10509453376E+04  0.15495160004E+04  0.18943392599E+04  0.92288999664E+02 0.  0.
         13    1    3    3    0    0  0.22114997653E+03 -0.93997775790E+03  0.13406518000E+04  0.16522144977E+04  0.00000000000E+00 0.  1.
        -13    1    3    3    0    0  0.51829938591E+02 -0.11096757967E+03  0.20886420045E+03  0.24212476226E+03  0.00000000000E+00 0. -1.
         22    1    1    2    0    0 -0.27297991512E+03  0.10509453376E+04 -0.16874146076E+04  0.20065822172E+04  0.00000000000E+00 0. -1.
<mgrwt>
<rscale>  0 0.38984833E+04</rscale>
<asrwt>0</asrwt>
<pdfrwt beam="1">  1        2 0.31067847E+00 0.38984833E+04</pdfrwt>
<pdfrwt beam="2">  1       -2 0.28946330E+00 0.38984833E+04</pdfrwt>
<totfact> 0.19110732E-01</totfact>
</mgrwt>
</event>
<event>
 6    1  0.1568961E-005  0.2481528E+04  0.7818608E-02  0.8409596E-01
         -1   -1    0    0    0  501 -0.00000000000E+00  0.00000000000E+00  0.51259147695E+03  0.51259147695E+03  0.00000000000E+00 0.  1.
          1   -1    0    0  501    0  0.00000000000E+00 -0.00000000000E+00 -0.30033571436E+04  0.30033571436E+04  0.00000000000E+00 0. -1.
         23    2    1    2    0    0 -0.75751719324E+03 -0.47017624110E+03 -0.27966442464E+02  0.89673537714E+03  0.91946826784E+02 0.  0.
         13    1    3    3    0    0 -0.62105791408E+03 -0.39106681763E+03 -0.57833848951E+02  0.73620034134E+03  0.00000000000E+00 0. -1.
        -13    1    3    3    0    0 -0.13645927916E+03 -0.79109423468E+02  0.29867406487E+02  0.16053503580E+03  0.00000000000E+00 0.  1.
         22    1    1    2    0    0  0.75751719324E+03  0.47017624110E+03 -0.24627992242E+04  0.26192132434E+04  0.00000000000E+00 0. -1.
<mgrwt>
<rscale>  0 0.24815280E+04</rscale>
<asrwt>0</asrwt>
<pdfrwt beam="1">  1        1 0.46205494E+00 0.24815280E+04</pdfrwt>
<pdfrwt beam="2">  1       -1 0.78860228E-01 0.24815280E+04</pdfrwt>
<totfact> 0.85063407E-01</totfact>
</mgrwt>
</event>
<event>
 6    1  0.1568961E-005  0.4938281E+04  0.7818608E-02  0.7838099E-01
          2   -1    0    0  501    0  0.00000000000E+00  0.00000000000E+00  0.22939141133E+04  0.22939141133E+04  0.00000000000E+00 0. -1.
         -2   -1    0    0    0  501 -0.00000000000E+00 -0.00000000000E+00 -0.26577516158E+04  0.26577516158E+04  0.00000000000E+00 0.  1.
         23    2    1    2    0    0 -0.11588996114E+03  0.36346492544E+03 -0.26272014082E+04  0.26563763345E+04  0.92794158698E+02 0.  0.
         13    1    3    3    0    0 -0.88528289413E+02  0.24777784291E+03 -0.14977642801E+04  0.15207001533E+04  0.00000000000E+00 0. -1.
        -13    1    3    3    0    0 -0.27361671731E+02  0.11568708254E+03 -0.11294371281E+04  0.11356761811E+04  0.00000000000E+00 0.  1.
         22    1    1    2    0    0  0.11588996114E+03 -0.36346492544E+03  0.22633639057E+04  0.22952893946E+04  0.00000000000E+00 0. -1.
<mgrwt>
<rscale>  0 0.49382806E+04</rscale>
<asrwt>0</asrwt>
<pdfrwt beam="1">  1        2 0.35290986E+00 0.49382806E+04</pdfrwt>
<pdfrwt beam="2">  1       -2 0.40888486E+00 0.49382806E+04</pdfrwt>
<totfact> 0.21717945E-02</totfact>
</mgrwt>
</event>
<event>
 6    1  0.1568961E-005  0.2327643E+04  0.7818608E-02  0.8467101E-01
          1   -1    0    0  501    0  0.00000000000E+00  0.00000000000E+00  0.12302602596E+04  0.12302602596E+04  0.00000000000E+00 0. -1.
         -1   -1    0    0    0  501 -0.00000000000E+00 -0.00000000000E+00 -0.11009704351E+04  0.11009704351E+04  0.00000000000E+00 0.  1.
         23    2    1    2    0    0  0.63363986665E+03 -0.90210329470E+03 -0.30333037620E+03  0.11469798459E+04  0.90904426766E+02 0.  0.
         13    1    3    3    0    0  0.28738604081E+03 -0.47141258553E+03 -0.12254199280E+03  0.56554142399E+03  0.00000000000E+00 0. -1.
        -13    1    3    3    0    0  0.34625382584E+03 -0.43069070917E+03 -0.18078838341E+03  0.58143842189E+03  0.00000000000E+00 0.  1.
         22    1    1    2    0    0 -0.63363986665E+03  0.90210329470E+03  0.43262020061E+03  0.11842508488E+04  0.00000000000E+00 0. -1.
<mgrwt>
<rscale>  0 0.23276427E+04</rscale>
<asrwt>0</asrwt>
<pdfrwt beam="1">  1        1 0.18927081E+00 0.23276427E+04</pdfrwt>
<pdfrwt beam="2">  1       -1 0.16938007E+00 0.23276427E+04</pdfrwt>
<totfact> 0.22774424E+00</totfact>
</mgrwt>
</event>
<event>
 6    1  0.1568961E-005  0.1907584E+04  0.7818608E-02  0.8651090E-01
         -2   -1    0    0    0  501 -0.00000000000E+00  0.00000000000E+00  0.75901257539E+03  0.75901257539E+03  0.00000000000E+00 0.  1.
          2   -1    0    0  501    0  0.00000000000E+00 -0.00000000000E+00 -0.11985564906E+04  0.11985564906E+04  0.00000000000E+00 0. -1.
         23    2    1    2    0    0  0.53650855754E+03  0.37837487860E+03 -0.92769151739E+03  0.11394632889E+04  0.82195219821E+02 0.  0.
         13    1    3    3    0    0  0.35140487951E+03  0.20075429983E+03 -0.54854997309E+03  0.68168522884E+03  0.00000000000E+00 0. -1.
        -13    1    3    3    0    0  0.18510367802E+03  0.17762057877E+03 -0.37914154430E+03  0.45777806002E+03  0.00000000000E+00 0.  1.
         22    1    1    2    0    0 -0.53650855754E+03 -0.37837487860E+03  0.48814760217E+03  0.81810577713E+03  0.00000000000E+00 0.  1.
<mgrwt>
<rscale>  0 0.19075843E+04</rscale>
<asrwt>0</asrwt>
<pdfrwt beam="1">  1        2 0.18439331E+00 0.19075843E+04</pdfrwt>
<pdfrwt beam="2">  1       -2 0.11677117E+00 0.19075843E+04</pdfrwt>
<totfact> 0.10091507E+01</totfact>
</mgrwt>
</event>
<event>
 6    1  0.1568961E-005  0.8534442E+03  0.7818608E-02  0.9485726E-01
         -2   -1    0    0    0  501 -0.00000000000E+00  0.00000000000E+00  0.13581431962E+03  0.13581431962E+03  0.00000000000E+00 0.  1.
          2   -1    0    0  501    0  0.00000000000E+00 -0.00000000000E+00 -0.13407403605E+04  0.13407403605E+04  0.00000000000E+00 0. -1.
         23    2    1    2    0    0  0.86630569960E+02  0.31549533541E+03 -0.14893568349E+03  0.37104222102E+03  0.91914795576E+02 0.  0.
         13    1    3    3    0    0  0.19374739067E+02  0.33811248745E+02 -0.53363929886E+02  0.66077909081E+02  0.00000000000E+00 0. -1.
        -13    1    3    3    0    0  0.67255830894E+02  0.28168408667E+03 -0.95571753600E+02  0.30496431194E+03  0.00000000000E+00 0.  1.
         22    1    1    2    0    0 -0.86630569960E+02 -0.31549533541E+03 -0.10559903574E+04  0.11055124591E+04  0.00000000000E+00 0. -1.
<mgrwt>
<rscale>  0 0.85344417E+03</rscale>
<asrwt>0</asrwt>
<pdfrwt beam="1">  1        2 0.20626774E+00 0.85344417E+03</pdfrwt>
<pdfrwt beam="2">  1       -2 0.20894512E-01 0.85344417E+03</pdfrwt>
<totfact> 0.31081350E+02</totfact>
</mgrwt>
</event>
<event>
 6    1  0.1568961E-005  0.3517974E+04  0.7818608E-02  0.8109543E-01
         -1   -1    0    0    0  501 -0.00000000000E+00  0.00000000000E+00  0.11711017799E+04  0.11711017799E+04  0.00000000000E+00 0.  1.
          1   -1    0    0  501    0  0.00000000000E+00 -0.00000000000E+00 -0.26419869329E+04  0.26419869329E+04  0.00000000000E+00 0. -1.
         23    2    1    2    0    0 -0.67538896081E+03  0.13197153962E+04 -0.17597218208E+04  0.23027160449E+04  0.89896168329E+02 0.  0.
         11    1    3    3    0    0 -0.25668212209E+03  0.40915353281E+03 -0.57313600848E+03  0.74951798472E+03  0.00000000000E+00 0.  1.
        -11    1    3    3    0    0 -0.41870683872E+03  0.91056186344E+03 -0.11865858123E+04  0.15531980601E+04  0.00000000000E+00 0. -1.
         22    1    1    2    0    0  0.67538896081E+03 -0.13197153962E+04  0.28883666774E+03  0.15103726680E+04  0.00000000000E+00 0.  1.
<mgrwt>
<rscale>  0 0.35179742E+04</rscale>
<asrwt>0</asrwt>
<pdfrwt beam="1">  1        1 0.40645952E+00 0.35179742E+04</pdfrwt>
<pdfrwt beam="2">  1       -1 0.18016951E+00 0.35179742E+04</pdfrwt>
<totfact> 0.18222325E-01</totfact>
</mgrwt>
</event>
<event>
 6    1  0.1568961E-005  0.3692597E+04  0.7818608E-02  0.8069604E-01
         -2   -1    0    0    0  501 -0.00000000000E+00  0.00000000000E+00  0.11604121971E+04  0.11604121971E+04  0.00000000000E+00 0.  1.
          2   -1    0    0  501    0  0.00000000000E+00 -0.00000000000E+00 -0.29375925964E+04  0.29375925964E+04  0.00000000000E+00 0. -1.
         23    2    1    2    0    0 -0.12790681591E+04 -0.55517108522E+03  0.45172533568E+03  0.14688887700E+04  0.96685833504E+02 0.  0.
         11    1    3    3    0    0 -0.51702400355E+03 -0.20179302876E+03  0.13519717045E+03  0.57123771023E+03  0.00000000000E+00 0. -1.
        -11    1    3    3    0    0 -0.76204415555E+03 -0.35337805647E+03  0.31652816523E+03  0.89765105981E+03  0.00000000000E+00 0.  1.
         22    1    1    2    0    0  0.12790681591E+04  0.55517108522E+03 -0.22289057350E+04  0.26291160235E+04  0.00000000000E+00 0. -1.
<mgrwt>
<rscale>  0 0.36925971E+04</rscale>
<asrwt>0</asrwt>
<pdfrwt beam="1">  1        2 0.45193731E+00 0.36925971E+04</pdfrwt>
<pdfrwt beam="2">  1       -2 0.17852496E+00 0.36925971E+04</pdfrwt>
<totfact> 0.28581836E-01</totfact>
</mgrwt>
</event>
<event>
 6    1  0.1568961E-005  0.2095205E+04  0.7818608E-02  0.8563359E-01
         -1   -1    0    0    0  501 -0.00000000000E+00  0.00000000000E+00  0.93929844742E+03  0.93929844742E+03  0.00000000000E+00 0.  1.
          1   -1    0    0  501    0  0.00000000000E+00 -0.00000000000E+00 -0.11683938408E+04  0.11683938408E+04  0.00000000000E+00 0. -1.
         23    2    1    2    0    0  0.10263160136E+04  0.15084802648E+03  0.18955778170E+02  0.10411047059E+04  0.86371293136E+02 0.  0.
         13    1    3    3    0    0  0.59234940022E+03  0.10096656225E+03 -0.29405719672E+02  0.60161179757E+03  0.00000000000E+00 0.  1.
        -13    1    3    3    0    0  0.43396661341E+03  0.49881464230E+02  0.48361497843E+02  0.43949290837E+03  0.00000000000E+00 0. -1.
         22    1    1    2    0    0 -0.10263160136E+04 -0.15084802648E+03 -0.24805117152E+03  0.10665875823E+04  0.00000000000E+00 0. -1.
<mgrwt>
<rscale>  0 0.20952045E+04</rscale>
<asrwt>0</asrwt>
<pdfrwt beam="1">  1        1 0.17975290E+00 0.20952045E+04</pdfrwt>
<pdfrwt beam="2">  1       -1 0.14450745E+00 0.20952045E+04</pdfrwt>
<totfact> 0.39992819E+00</totfact>
</mgrwt>
</event>
<event>
 6    1  0.1568961E-005  0.8347326E+03  0.7818608E-02  0.9511061E-01
          1   -1    0    0  501    0  0.00000000000E+00  0.00000000000E+00  0.65886956818E+03  0.65886956818E+03  0.00000000000E+00 0. -1.
         -1   -1    0    0    0  501 -0.00000000000E+00 -0.00000000000E+00 -0.26438406748E+03  0.26438406748E+03  0.00000000000E+00 0.  1.
         23    2    1    2    0    0 -0.38325392336E+03 -0.14661848783E+03  0.24351435397E+03  0.48602047373E+03  0.92391068572E+02 0.  0.
         13    1    3    3    0    0 -0.19972770653E+03 -0.70273681810E+02  0.17835915696E+03  0.27684207770E+03  0.00000000000E+00 0. -1.
        -13    1    3    3    0    0 -0.18352621683E+03 -0.76344806025E+02  0.65155197005E+02  0.20917839603E+03  0.00000000000E+00 0.  1.
         22    1    1    2    0    0  0.38325392336E+03  0.14661848783E+03  0.15097114673E+03  0.43723316193E+03  0.00000000000E+00 0.  1.
<mgrwt>
<rscale>  0 0.83473257E+03</rscale>
<asrwt>0</asrwt>
<pdfrwt beam="1">  1        1 0.10136455E+00 0.83473257E+03</pdfrwt>
<pdfrwt beam="2">  1       -1 0.40674472E-01 0.83473257E+03</pdfrwt>
<totfact> 0.17798336E+02</totfact>
</mgrwt>
</event>
<event>
 6    1  0.1568961E-005  0.3173661E+04  0.7818608E-02  0.8195808E-01
         -2   -1    0    0    0  501 -0.00000000000E+00  0.00000000000E+00  0.13459139016E+04  0.13459139016E+04  0.00000000000E+00 0.  1.
          2   -1    0    0  501    0  0.00000000000E+00 -0.00000000000E+00 -0.18708708801E+04  0.18708708801E+04  0.00000000000E+00 0. -1.
         23    2    1    2    0    0 -0.15760372398E+04  0.32963712200E+02 -0.42697299561E+03  0.16373605676E+04  0.11689183792E+03 0.  0.
         13    1    3    3    0    0 -0.45408327949E+03 -0.91552898604E+01 -0.72066830261E+02  0.45985766501E+03  0.00000000000E+00 0. -1.
        -13    1    3    3    0    0 -0.11219539603E+04  0.42119002061E+02 -0.35490616535E+03  0.11775029026E+04  0.00000000000E+00 0.  1.
         22    1    1    2    0    0  0.15760372398E+04 -0.32963712200E+02 -0.97983982880E+02  0.15794242142E+04  0.00000000000E+00 0. -1.
<mgrwt>
<rscale>  0 0.31736611E+04</rscale>
<asrwt>0</asrwt>
<pdfrwt beam="1">  1        2 0.28782629E+00 0.31736611E+04</pdfrwt>
<pdfrwt beam="2">  1       -2 0.20706368E+00 0.31736611E+04</pdfrwt>
<totfact> 0.79565728E-01</totfact>
</mgrwt>
</event>
<event>
 6    1  0.1568961E-005  0.2972073E+04  0.7818608E-02  0.8251751E-01
         -2   -1    0    0    0  501 -0.00000000000E+00  0.00000000000E+00  0.74244735308E+03  0.74244735308E+03  0.00000000000E+00 0.  1.
          2   -1    0    0  501    0  0.00000000000E+00 -0.00000000000E+00 -0.29743587636E+04  0.29743587636E+04  0.00000000000E+00 0. -1.
         23    2    1    2    0    0  0.20910378638E+03  0.68331654724E+03 -0.27443964087E+04  0.28374388609E+04  0.93283138270E+02 0.  0.
         13    1    3    3    0    0  0.78911697511E+02  0.21974485957E+03 -0.73693366685E+03  0.77303692580E+03  0.00000000000E+00 0. -1.
        -13    1    3    3    0    0  0.13019208887E+03  0.46357168767E+03 -0.20074627419E+04  0.20644019351E+04  0.00000000000E+00 0.  1.
         22    1    1    2    0    0 -0.20910378638E+03 -0.68331654724E+03  0.51248499819E+03  0.87936725580E+03  0.00000000000E+00 0.  1.
<mgrwt>
<rscale>  0 0.29720732E+04</rscale>
<asrwt>0</asrwt>
<pdfrwt beam="1">  1        2 0.45759365E+00 0.29720732E+04</pdfrwt>
<pdfrwt beam="2">  1       -2 0.11422267E+00 0.29720732E+04</pdfrwt>
<totfact> 0.92875873E-01</totfact>
</mgrwt>
</event>
<event>
 6    1  0.1568961E-005  0.4007210E+04  0.7818608E-02  0.8003094E-01
          2   -1    0    0  501    0  0.00000000000E+00  0.00000000000E+00  0.35303327662E+04  0.35303327662E+04  0.00000000000E+00 0. -1.
         -2   -1    0    0    0  501 -0.00000000000E+00 -0.00000000000E+00 -0.11371257608E+04  0.11371257608E+04  0.00000000000E+00 0.  1.
         23    2    1    2    0    0  0.29946251170E+03 -0.79966579655E+03  0.33070769632E+04  0.34167381419E+04  0.90544507535E+02 0.  0.
         11    1    3    3    0    0  0.25829887846E+03 -0.57747138471E+03  0.24598705935E+04  0.25399123701E+04  0.00000000000E+00 0.  1.
        -11    1    3    3    0    0  0.41163633236E+02 -0.22219441184E+03  0.84720636962E+03  0.87682577179E+03  0.00000000000E+00 0. -1.
         22    1    1    2    0    0 -0.29946251170E+03  0.79966579655E+03 -0.91386995779E+03  0.12507203852E+04  0.00000000000E+00 0.  1.
<mgrwt>
<rscale>  0 0.40072097E+04</rscale>
<asrwt>0</asrwt>
<pdfrwt beam="1">  1        2 0.54312811E+00 0.40072097E+04</pdfrwt>
<pdfrwt beam="2">  1       -2 0.17494243E+00 0.40072097E+04</pdfrwt>
<totfact> 0.11978168E-01</totfact>
</mgrwt>
</event>
<event>
 6    1  0.1568961E-005  0.2422370E+04  0.7818608E-02  0.8431176E-01
          2   -1    0    0  501    0  0.00000000000E+00  0.00000000000E+00  0.18594377024E+04  0.18594377024E+04  0.00000000000E+00 0. -1.
         -2   -1    0    0    0  501 -0.00000000000E+00 -0.00000000000E+00 -0.78893178603E+03  0.78893178603E+03  0.00000000000E+00 0.  1.
         23    2    1    2    0    0 -0.93171521548E+03 -0.60348592750E+03  0.11115249930E+02  0.11138998434E+04  0.91437436740E+02 0.  0.
         13    1    3    3    0    0 -0.64607918585E+03 -0.36774938610E+03  0.97407886123E+00  0.74341030003E+03  0.00000000000E+00 0. -1.
        -13    1    3    3    0    0 -0.28563602964E+03 -0.23573654140E+03  0.10141171069E+02  0.37048954334E+03  0.00000000000E+00 0.  1.
         22    1    1    2    0    0  0.93171521548E+03  0.60348592750E+03  0.10593906664E+04  0.15344696451E+04  0.00000000000E+00 0. -1.
<mgrwt>
<rscale>  0 0.24223703E+04</rscale>
<asrwt>0</asrwt>
<pdfrwt beam="1">  1        2 0.28606734E+00 0.24223703E+04</pdfrwt>
<pdfrwt beam="2">  1       -2 0.12137412E+00 0.24223703E+04</pdfrwt>
<totfact> 0.37054001E+00</totfact>
</mgrwt>
</event>
<event>
 6    1  0.1568961E-005  0.2976343E+04  0.7818608E-02  0.8250519E-01
          2   -1    0    0  501    0  0.00000000000E+00  0.00000000000E+00  0.94346913765E+03  0.94346913765E+03  0.00000000000E+00 0. -1.
         -2   -1    0    0    0  501 -0.00000000000E+00 -0.00000000000E+00 -0.23473517976E+04  0.23473517976E+04  0.00000000000E+00 0.  1.
         23    2    1    2    0    0  0.12796511591E+04  0.50666632069E+03 -0.13244950402E+04  0.19122273607E+04  0.90047309794E+02 0.  0.
         11    1    3    3    0    0  0.65827324921E+03  0.27149996937E+03 -0.74588516395E+03  0.10312034628E+04  0.00000000000E+00 0. -1.
        -11    1    3    3    0    0  0.62137790992E+03  0.23516635132E+03 -0.57860987624E+03  0.88102389787E+03  0.00000000000E+00 0.  1.
         22    1    1    2    0    0 -0.12796511591E+04 -0.50666632069E+03 -0.79387619751E+02  0.13785935745E+04  0.00000000000E+00 0. -1.
<mgrwt>
<rscale>  0 0.29763427E+04</rscale>
<asrwt>0</asrwt>
<pdfrwt beam="1">  1        2 0.14514910E+00 0.29763427E+04</pdfrwt>
<pdfrwt beam="2">  1       -2 0.36113105E+00 0.29763427E+04</pdfrwt>
<totfact> 0.31097288E-01</totfact>
</mgrwt>
</event>
<event>
 6    1  0.1568961E-005  0.2402837E+04  0.7818608E-02  0.8438442E-01
          2   -1    0    0  501    0  0.00000000000E+00  0.00000000000E+00  0.25580288974E+04  0.25580288974E+04  0.00000000000E+00 0. -1.
         -2   -1    0    0    0  501 -0.00000000000E+00 -0.00000000000E+00 -0.56426490412E+03  0.56426490412E+03  0.00000000000E+00 0.  1.
         23    2    1    2    0    0  0.11612320557E+04  0.17399388151E+02  0.60712993931E+03  0.13135603702E+04  0.89841287809E+02 0.  0.
         11    1    3    3    0    0  0.60599355564E+03 -0.33866493533E+00  0.26719911881E+03  0.66228670020E+03  0.00000000000E+00 0.  1.
        -11    1    3    3    0    0  0.55523850009E+03  0.17738053087E+02  0.33993082050E+03  0.65127367000E+03  0.00000000000E+00 0. -1.
         22    1    1    2    0    0 -0.11612320557E+04 -0.17399388151E+02  0.13866340540E+04  0.18087334313E+04  0.00000000000E+00 0. -1.
<mgrwt>
<rscale>  0 0.24028366E+04</rscale>
<asrwt>0</asrwt>
<pdfrwt beam="1">  1        2 0.39354290E+00 0.24028366E+04</pdfrwt>
<pdfrwt beam="2">  1       -2 0.86809986E-01 0.24028366E+04</pdfrwt>
<totfact> 0.33243700E+00</totfact>
</mgrwt>
</event>
<event>
 6    1  0.1568961E-005  0.3226590E+03  0.7818608E-02  0.1074432E+00
         -1   -1    0    0    0  501 -0.00000000000E+00  0.00000000000E+00  0.16279435068E+04  0.16279435068E+04  0.00000000000E+00 0.  1.
          1   -1    0    0  501    0  0.00000000000E+00 -0.00000000000E+00 -0.15987779875E+02  0.15987779875E+02  0.00000000000E+00 0. -1.
         23    2    1    2    0    0 -0.53077170145E+02 -0.53633729743E+02  0.15230659253E+04  0.15273330028E+04  0.85571758672E+02 0.  0.
         13    1    3    3    0    0 -0.46251510489E+02  0.38024503954E+01  0.38309107845E+03  0.38589174031E+03  0.00000000000E+00 0.  1.
        -13    1    3    3    0    0 -0.68256596557E+01 -0.57436180138E+02  0.11399748468E+04  0.11414412625E+04  0.00000000000E+00 0. -1.
         22    1    1    2    0    0  0.53077170145E+02  0.53633729743E+02  0.88889801679E+02  0.11659828386E+03  0.00000000000E+00 0. -1.
<mgrwt>
<rscale>  0 0.32265897E+03</rscale>
<asrwt>0</asrwt>
<pdfrwt beam="1">  1        1 0.24596597E-02 0.32265897E+03</pdfrwt>
<pdfrwt beam="2">  1       -1 0.25045272E+00 0.32265897E+03</pdfrwt>
<totfact> 0.35522677E+02</totfact>
</mgrwt>
</event>
<event>
 6    1  0.1568961E-005  0.1673435E+04  0.7818608E-02  0.8776662E-01
         -1   -1    0    0    0  501 -0.00000000000E+00  0.00000000000E+00  0.13907208544E+04  0.13907208544E+04  0.00000000000E+00 0.  1.
          1   -1    0    0  501    0  0.00000000000E+00 -0.00000000000E+00 -0.50340551314E+03  0.50340551314E+03  0.00000000000E+00 0. -1.
         23    2    1    2    0    0 -0.43421054915E+03  0.45916116997E+03 -0.17154665202E+03  0.66101789632E+03  0.90269731564E+02 0.  0.
         11    1    3    3    0    0 -0.12627796237E+03  0.10158885952E+03 -0.10521696395E+02  0.16241036376E+03  0.00000000000E+00 0.  1.
        -11    1    3    3    0    0 -0.30793258678E+03  0.35757231044E+03 -0.16102495562E+03  0.49860753256E+03  0.00000000000E+00 0. -1.
         22    1    1    2    0    0  0.43421054915E+03 -0.45916116997E+03  0.10588619933E+04  0.12331084712E+04  0.00000000000E+00 0.  1.
<mgrwt>
<rscale>  0 0.16734354E+04</rscale>
<asrwt>0</asrwt>
<pdfrwt beam="1">  1        1 0.77447002E-01 0.16734354E+04</pdfrwt>
<pdfrwt beam="2">  1       -1 0.21395705E+00 0.16734354E+04</pdfrwt>
<totfact> 0.50602784E+00</totfact>
</mgrwt>
</event>
<event>
 6    1  0.1568961E-005  0.1133906E+04  0.7818608E-02  0.9172761E-01
          1   -1    0    0  501    0  0.00000000000E+00  0.00000000000E+00  0.10553957035E+04  0.10553957035E+04  0.00000000000E+00 0. -1.
         -1   -1    0    0    0  501 -0.00000000000E+00 -0.00000000000E+00 -0.30456420006E+03  0.30456420006E+03  0.00000000000E+00 0.  1.
         23    2    1    2    0    0  0.37280234200E+03  0.42237919284E+03  0.37793099355E+03  0.68435605584E+03  0.90142146318E+02 0.  0.
         11    1    3    3    0    0  0.28382770281E+03  0.27221745255E+03  0.29191265763E+03  0.48976882918E+03  0.00000000000E+00 0. -1.
        -11    1    3    3    0    0  0.88974639189E+02  0.15016174029E+03  0.86018335919E+02  0.19458722666E+03  0.00000000000E+00 0.  1.
         22    1    1    2    0    0 -0.37280234200E+03 -0.42237919284E+03  0.37290050986E+03  0.67560384768E+03  0.00000000000E+00 0.  1.
<mgrwt>
<rscale>  0 0.11339061E+04</rscale>
<asrwt>0</asrwt>
<pdfrwt beam="1">  1        1 0.16236857E+00 0.11339061E+04</pdfrwt>
<pdfrwt beam="2">  1       -1 0.46856031E-01 0.11339061E+04</pdfrwt>
<totfact> 0.61843483E+01</totfact>
</mgrwt>
</event>
<event>
 6    1  0.1568961E-005  0.2453837E+04  0.7818608E-02  0.8419618E-01
         -2   -1    0    0    0  501 -0.00000000000E+00  0.00000000000E+00  0.93809582972E+03  0.93809582972E+03  0.00000000000E+00 0.  1.
          2   -1    0    0  501    0  0.00000000000E+00 -0.00000000000E+00 -0.16046649856E+04  0.16046649856E+04  0.00000000000E+00 0. -1.
         23    2    1    2    0    0  0.98717217242E+03  0.63459985499E+03 -0.69853300809E+03  0.13687729271E+04  0.91460857763E+02 0.  0.
         11    1    3    3    0    0  0.48530300367E+03  0.33866299302E+03 -0.30565273780E+03  0.66605947508E+03  0.00000000000E+00 0. -1.
        -11    1    3    3    0    0  0.50186916875E+03  0.29593686197E+03 -0.39288027029E+03  0.70271345198E+03  0.00000000000E+00 0.  1.
         22    1    1    2    0    0 -0.98717217242E+03 -0.63459985499E+03  0.31963852191E+02  0.11739878883E+04  0.00000000000E+00 0. -1.
<mgrwt>
<rscale>  0 0.24538374E+04</rscale>
<asrwt>0</asrwt>
<pdfrwt beam="1">  1        2 0.24687153E+00 0.24538374E+04</pdfrwt>
<pdfrwt beam="2">  1       -2 0.14432244E+00 0.24538374E+04</pdfrwt>
<totfact> 0.32926911E+00</totfact>
</mgrwt>
</event>
<event>
 6    1  0.1568961E-005  0.7257894E+03  0.7818608E-02  0.9674118E-01
          1   -1    0    0  501    0  0.00000000000E+00  0.00000000000E+00  0.19439398844E+04  0.19439398844E+04  0.00000000000E+00 0. -1.
         -1   -1    0    0    0  501 -0.00000000000E+00 -0.00000000000E+00 -0.67745183845E+02  0.67745183845E+02  0.00000000000E+00 0.  1.
         23    2    1    2    0    0  0.16296810980E+02  0.34580210306E+03  0.11973797013E+04  0.12496913126E+04  0.90363416249E+02 0.  0.
         11    1    3    3    0    0 -0.17357827329E+02  0.18798736859E+03  0.51558261597E+03  0.54905917605E+03  0.00000000000E+00 0. -1.
        -11    1    3    3    0    0  0.33654638309E+02  0.15781473447E+03  0.68179708537E+03  0.70063213652E+03  0.00000000000E+00 0.  1.
         22    1    1    2    0    0 -0.16296810980E+02 -0.34580210306E+03  0.67881499917E+03  0.76199375564E+03  0.00000000000E+00 0.  1.
<mgrwt>
<rscale>  0 0.72578940E+03</rscale>
<asrwt>0</asrwt>
<pdfrwt beam="1">  1        1 0.29906763E+00 0.72578940E+03</pdfrwt>
<pdfrwt beam="2">  1       -1 0.10422337E-01 0.72578940E+03</pdfrwt>
<totfact> 0.19798298E+02</totfact>
</mgrwt>
</event>
<event>
 6    1  0.1568961E-005  0.2141559E+04  0.7818608E-02  0.8543154E-01
         -1   -1    0    0    0  501 -0.00000000000E+00  0.00000000000E+00  0.85819569551E+03  0.85819569551E+03  0.00000000000E+00 0.  1.
          1   -1    0    0  501    0  0.00000000000E+00 -0.00000000000E+00 -0.13360229953E+04  0.13360229953E+04  0.00000000000E+00 0. -1.
         23    2    1    2    0    0 -0.68606860211E+03  0.50936981377E+03 -0.89718168262E+03  0.12423753044E+04  0.91726175947E+02 0.  0.
         11    1    3    3    0    0 -0.25500659643E+03  0.16202272438E+03 -0.26299216171E+03  0.40055537016E+03  0.00000000000E+00 0. -1.
        -11    1    3    3    0    0 -0.43106200568E+03  0.34734708939E+03 -0.63418952091E+03  0.84181993424E+03  0.00000000000E+00 0.  1.
         22    1    1    2    0    0  0.68606860211E+03 -0.50936981377E+03  0.41935438279E+03  0.95184338646E+03  0.00000000000E+00 0. -1.
<mgrwt>
<rscale>  0 0.21415594E+04</rscale>
<asrwt>0</asrwt>
<pdfrwt beam="1">  1        1 0.20554200E+00 0.21415594E+04</pdfrwt>
<pdfrwt beam="2">  1       -1 0.13203011E+00 0.21415594E+04</pdfrwt>
<totfact> 0.38097836E+00</totfact>
</mgrwt>
</event>
<event>
 6    1  0.1568961E-005  0.4487850E+03  0.7818608E-02  0.1028085E+00
         -4   -1    0    0    0  501 -0.00000000000E+00  0.00000000000E+00  0.46166437387E+02  0.46166437387E+02  0.00000000000E+00 0.  1.
          4   -1    0    0  501    0  0.00000000000E+00 -0.00000000000E+00 -0.10906621894E+04  0.10906621894E+04  0.00000000000E+00 0. -1.
         23    2    1    2    0    0  0.59410793301E+02 -0.16090252154E+03 -0.21529011075E+03  0.29006935799E+03  0.91493917048E+02 0.  0.
         13    1    3    3    0    0  0.71995525271E+02 -0.62937259622E+02 -0.10626859185E+03  0.14295967236E+03  0.00000000000E+00 0.  1.
        -13    1    3    3    0    0 -0.12584731969E+02 -0.97965261918E+02 -0.10902151890E+03  0.14710968562E+03  0.00000000000E+00 0. -1.
         22    1    1    2    0    0 -0.59410793301E+02  0.16090252154E+03 -0.82920564127E+03  0.84675926881E+03  0.00000000000E+00 0. -1.
<mgrwt>
<rscale>  0 0.44878497E+03</rscale>
<asrwt>0</asrwt>
<pdfrwt beam="1">  1        4 0.16779416E+00 0.44878497E+03</pdfrwt>
<pdfrwt beam="2">  1       -4 0.71025297E-02 0.44878497E+03</pdfrwt>
<totfact> 0.60987276E+01</totfact>
</mgrwt>
</event>
<event>
 6    1  0.1568961E-005  0.1748442E+04  0.7818608E-02  0.8734208E-01
         -2   -1    0    0    0  501 -0.00000000000E+00  0.00000000000E+00  0.36162766992E+03  0.36162766992E+03  0.00000000000E+00 0. -1.
          2   -1    0    0  501    0  0.00000000000E+00 -0.00000000000E+00 -0.21133968696E+04  0.21133968696E+04  0.00000000000E+00 0.  1.
         23    2    1    2    0    0 -0.17484712876E+03 -0.45136993024E+03  0.14753376698E+03  0.51500972031E+03  0.95720777535E+02 0.  0.
         13    1    3    3    0    0 -0.11616008467E+03 -0.28913274124E+03  0.14192252270E+03  0.34239291724E+03  0.00000000000E+00 0.  1.
        -13    1    3    3    0    0 -0.58687044086E+02 -0.16223718900E+03  0.56112442811E+01  0.17261680307E+03  0.00000000000E+00 0. -1.
         22    1    1    2    0    0  0.17484712876E+03  0.45136993024E+03 -0.18993029667E+04  0.19600148193E+04  0.00000000000E+00 0.  1.
<mgrwt>
<rscale>  0 0.17484425E+04</rscale>
<asrwt>0</asrwt>
<pdfrwt beam="1">  1        2 0.32513798E+00 0.17484425E+04</pdfrwt>
<pdfrwt beam="2">  1       -2 0.55635027E-01 0.17484425E+04</pdfrwt>
<totfact> 0.16621889E+01</totfact>
</mgrwt>
</event>
<event>
 6    1  0.1568961E-005  0.3606299E+04  0.7818608E-02  0.8089050E-01
         -2   -1    0    0    0  501 -0.00000000000E+00  0.00000000000E+00  0.97181800395E+03  0.97181800395E+03  0.00000000000E+00 0. -1.
          2   -1    0    0  501    0  0.00000000000E+00 -0.00000000000E+00 -0.33456345877E+04  0.33456345877E+04  0.00000000000E+00 0.  1.
         23    2    1    2    0    0 -0.46019406039E+03 -0.11241941692E+04  0.40593336819E+03  0.12838736989E+04  0.89211389089E+02 0.  0.
         11    1    3    3    0    0 -0.47346142316E+02 -0.16179787637E+03  0.83632384327E+02  0.18818763429E+03  0.00000000000E+00 0. -1.
        -11    1    3    3    0    0 -0.41284791808E+03 -0.96239629285E+03  0.32230098386E+03  0.10956860646E+04  0.00000000000E+00 0.  1.
         22    1    1    2    0    0  0.46019406039E+03  0.11241941692E+04 -0.27797499519E+04  0.30335788927E+04  0.00000000000E+00 0.  1.
<mgrwt>
<rscale>  0 0.36062989E+04</rscale>
<asrwt>0</asrwt>
<pdfrwt beam="1">  1        2 0.51471301E+00 0.36062989E+04</pdfrwt>
<pdfrwt beam="2">  1       -2 0.14951046E+00 0.36062989E+04</pdfrwt>
<totfact> 0.25521053E-01</totfact>
</mgrwt>
</event>
<event>
 6    1  0.1568961E-005  0.3344996E+04  0.7818608E-02  0.8151540E-01
         -1   -1    0    0    0  501 -0.00000000000E+00  0.00000000000E+00  0.19264221327E+04  0.19264221327E+04  0.00000000000E+00 0.  1.
          1   -1    0    0  501    0  0.00000000000E+00 -0.00000000000E+00 -0.14520441828E+04  0.14520441828E+04  0.00000000000E+00 0. -1.
         23    2    1    2    0    0 -0.70729680951E+02 -0.81574505935E+03 -0.12341693883E+04  0.14838484921E+04  0.90496291909E+02 0.  0.
         11    1    3    3    0    0  0.74536425616E+01 -0.31275664110E+03 -0.51960631549E+03  0.60651710316E+03  0.00000000000E+00 0. -1.
        -11    1    3    3    0    0 -0.78183323513E+02 -0.50298841825E+03 -0.71456307285E+03  0.87733138895E+03  0.00000000000E+00 0.  1.
         22    1    1    2    0    0  0.70729680951E+02  0.81574505935E+03  0.17085473383E+04  0.18946178234E+04  0.00000000000E+00 0.  1.
<mgrwt>
<rscale>  0 0.33449963E+04</rscale>
<asrwt>0</asrwt>
<pdfrwt beam="1">  1        1 0.22339141E+00 0.33449963E+04</pdfrwt>
<pdfrwt beam="2">  1       -1 0.29637264E+00 0.33449963E+04</pdfrwt>
<totfact> 0.20351998E-01</totfact>
</mgrwt>
</event>
<event>
 6    1  0.1568961E-005  0.4944598E+04  0.7818608E-02  0.7837111E-01
          1   -1    0    0  501    0  0.00000000000E+00  0.00000000000E+00  0.41673354084E+04  0.41673354084E+04  0.00000000000E+00 0. -1.
         -1   -1    0    0    0  501 -0.00000000000E+00 -0.00000000000E+00 -0.14667077497E+04  0.14667077497E+04  0.00000000000E+00 0.  1.
         23    2    1    2    0    0  0.10626598456E+04 -0.11126101730E+04  0.35545976975E+04  0.38743806417E+04  0.92267118349E+02 0.  0.
         11    1    3    3    0    0  0.57202059843E+03 -0.66492018612E+03  0.20153668851E+04  0.21979604411E+04  0.00000000000E+00 0. -1.
        -11    1    3    3    0    0  0.49063924720E+03 -0.44768998684E+03  0.15392308123E+04  0.16764202006E+04  0.00000000000E+00 0.  1.
         22    1    1    2    0    0 -0.10626598456E+04  0.11126101730E+04 -0.85397003880E+03  0.17596625164E+04  0.00000000000E+00 0.  1.
<mgrwt>
<rscale>  0 0.49445983E+04</rscale>
<asrwt>0</asrwt>
<pdfrwt beam="1">  1        1 0.64112852E+00 0.49445983E+04</pdfrwt>
<pdfrwt beam="2">  1       -1 0.22564735E+00 0.49445983E+04</pdfrwt>
<totfact> 0.49383218E-03</totfact>
</mgrwt>
</event>
<event>
 6    1  0.1568961E-005  0.1863148E+04  0.7818608E-02  0.8673421E-01
         -2   -1    0    0    0  501 -0.00000000000E+00  0.00000000000E+00  0.86708626851E+03  0.86708626851E+03  0.00000000000E+00 0.  1.
          2   -1    0    0  501    0  0.00000000000E+00 -0.00000000000E+00 -0.10008579559E+04  0.10008579559E+04  0.00000000000E+00 0. -1.
         23    2    1    2    0    0 -0.52404152618E+03  0.12967048841E+03  0.69149973287E+03  0.88178659308E+03  0.89116544210E+02 0.  0.
         13    1    3    3    0    0 -0.35124418621E+03  0.84428091783E+02  0.39203772450E+03  0.53309863859E+03  0.00000000000E+00 0. -1.
        -13    1    3    3    0    0 -0.17279733996E+03  0.45242396627E+02  0.29946200838E+03  0.34868795450E+03  0.00000000000E+00 0.  1.
         22    1    1    2    0    0  0.52404152618E+03 -0.12967048841E+03 -0.82527142023E+03  0.98615763130E+03  0.00000000000E+00 0. -1.
<mgrwt>
<rscale>  0 0.18631481E+04</rscale>
<asrwt>0</asrwt>
<pdfrwt beam="1">  1        2 0.15397815E+00 0.18631481E+04</pdfrwt>
<pdfrwt beam="2">  1       -2 0.13339789E+00 0.18631481E+04</pdfrwt>
<totfact> 0.96108662E+00</totfact>
</mgrwt>
</event>
<event>
 6    1  0.1568961E-005  0.2952592E+04  0.7818608E-02  0.8257400E-01
          1   -1    0    0  501    0  0.00000000000E+00  0.00000000000E+00  0.80658793985E+03  0.80658793985E+03  0.00000000000E+00 0. -1.
         -1   -1    0    0    0  501 -0.00000000000E+00 -0.00000000000E+00 -0.27020614476E+04  0.27020614476E+04  0.00000000000E+00 0.  1.
         23    2    1    2    0    0  0.49657880504E+03 -0.96596252163E+02 -0.25950555996E+04  0.26453206848E+04  0.86525228575E+02 0.  0.
         11    1    3    3    0    0  0.34178490359E+03 -0.10489533716E+03 -0.18721288897E+04  0.19059607897E+04  0.00000000000E+00 0.  1.
        -11    1    3    3    0    0  0.15479390145E+03  0.82990850006E+01 -0.72292670985E+03  0.73935989515E+03  0.00000000000E+00 0. -1.
         22    1    1    2    0    0 -0.49657880504E+03  0.96596252163E+02  0.69958209182E+03  0.86332870261E+03  0.00000000000E+00 0. -1.
<mgrwt>
<rscale>  0 0.29525922E+04</rscale>
<asrwt>0</asrwt>
<pdfrwt beam="1">  1        1 0.12409045E+00 0.29525922E+04</pdfrwt>
<pdfrwt beam="2">  1       -1 0.41570176E+00 0.29525922E+04</pdfrwt>
<totfact> 0.10398948E-01</totfact>
</mgrwt>
</event>
<event>
 6    1  0.1568961E-005  0.2855679E+04  0.7818608E-02  0.8286188E-01
          1   -1    0    0  501    0  0.00000000000E+00  0.00000000000E+00  0.37718473271E+04  0.37718473271E+04  0.00000000000E+00 0. -1.
         -1   -1    0    0    0  501 -0.00000000000E+00 -0.00000000000E+00 -0.54051099034E+03  0.54051099034E+03  0.00000000000E+00 0.  1.
         23    2    1    2    0    0  0.13206426311E+04 -0.51750759419E+03  0.13906969710E+04  0.19885974984E+04  0.92579027328E+02 0.  0.
         13    1    3    3    0    0  0.25225327187E+03 -0.13727694864E+03  0.29506388434E+03  0.41175158729E+03  0.00000000000E+00 0. -1.
        -13    1    3    3    0    0  0.10683893593E+04 -0.38023064556E+03  0.10956330867E+04  0.15768459111E+04  0.00000000000E+00 0.  1.
         22    1    1    2    0    0 -0.13206426311E+04  0.51750759419E+03  0.18406393658E+04  0.23237608190E+04  0.00000000000E+00 0.  1.
<mgrwt>
<rscale>  0 0.28556785E+04</rscale>
<asrwt>0</asrwt>
<pdfrwt beam="1">  1        1 0.58028419E+00 0.28556785E+04</pdfrwt>
<pdfrwt beam="2">  1       -1 0.83155540E-01 0.28556785E+04</pdfrwt>
<totfact> 0.18608066E-01</totfact>
</mgrwt>
</event>
<event>
 6    1  0.1568961E-005  0.4771565E+04  0.7818608E-02  0.7864745E-01
         -1   -1    0    0    0  501 -0.00000000000E+00  0.00000000000E+00  0.52899493969E+04  0.52899493969E+04  0.00000000000E+00 0.  1.
          1   -1    0    0  501    0  0.00000000000E+00 -0.00000000000E+00 -0.10759948054E+04  0.10759948054E+04  0.00000000000E+00 0. -1.
         23    2    1    2    0    0  0.89370411847E+03 -0.21076889492E+04  0.12168267045E+04  0.25944941724E+04  0.98351532526E+02 0.  0.
         13    1    3    3    0    0  0.26863888494E+03 -0.70443504031E+03  0.44275312141E+03  0.87431453324E+03  0.00000000000E+00 0. -1.
        -13    1    3    3    0    0  0.62506523353E+03 -0.14032539088E+04  0.77407358308E+03  0.17201796391E+04  0.00000000000E+00 0.  1.
         22    1    1    2    0    0 -0.89370411847E+03  0.21076889492E+04  0.29971278870E+04  0.37714500300E+04  0.00000000000E+00 0. -1.
<mgrwt>
<rscale>  0 0.47715650E+04</rscale>
<asrwt>0</asrwt>
<pdfrwt beam="1">  1        1 0.16553767E+00 0.47715650E+04</pdfrwt>
<pdfrwt beam="2">  1       -1 0.81383835E+00 0.47715650E+04</pdfrwt>
<totfact> 0.55201515E-04</totfact>
</mgrwt>
</event>
<event>
 6    1  0.4267522E-005  0.3486808E+04  0.7818608E-02  0.8116923E-01
          1   -1    0    0  501    0  0.00000000000E+00  0.00000000000E+00  0.19420604892E+04  0.19420604892E+04  0.00000000000E+00 0. -1.
         -1   -1    0    0    0  501 -0.00000000000E+00 -0.00000000000E+00 -0.15650686267E+04  0.15650686267E+04  0.00000000000E+00 0.  1.
         23    2    1    2    0    0  0.12677049045E+04 -0.91965111751E+03 -0.57885734437E+03  0.16723316859E+04  0.93720540666E+02 0.  0.
         11    1    3    3    0    0  0.47324081984E+03 -0.32588535811E+03 -0.25832516645E+03  0.62999208869E+03  0.00000000000E+00 0. -1.
        -11    1    3    3    0    0  0.79446408466E+03 -0.59376575940E+03 -0.32053217793E+03  0.10423395972E+04  0.00000000000E+00 0.  1.
         22    1    1    2    0    0 -0.12677049045E+04  0.91965111751E+03  0.95584920690E+03  0.18347974300E+04  0.00000000000E+00 0. -1.
<mgrwt>
<rscale>  0 0.34868082E+04</rscale>
<asrwt>0</asrwt>
<pdfrwt beam="1">  1        1 0.29877854E+00 0.34868082E+04</pdfrwt>
<pdfrwt beam="2">  1       -1 0.24077979E+00 0.34868082E+04</pdfrwt>
<totfact> 0.21350824E-01</totfact>
</mgrwt>
</event>
<event>
 6    1  0.1568961E-005  0.1561588E+04  0.7818608E-02  0.8844500E-01
          1   -1    0    0  501    0  0.00000000000E+00  0.00000000000E+00  0.15441278260E+04  0.15441278260E+04  0.00000000000E+00 0. -1.
         -1   -1    0    0    0  501 -0.00000000000E+00 -0.00000000000E+00 -0.39481160714E+03  0.39481160714E+03  0.00000000000E+00 0.  1.
         23    2    1    2    0    0 -0.29696249895E+03 -0.53650622819E+03  0.11714025638E+04  0.13253325025E+04  0.91085768735E+02 0.  0.
         13    1    3    3    0    0 -0.10690029585E+03 -0.28693359259E+03  0.57175346062E+03  0.64858351778E+03  0.00000000000E+00 0.  1.
        -13    1    3    3    0    0 -0.19006220310E+03 -0.24957263560E+03  0.59964910314E+03  0.67674898476E+03  0.00000000000E+00 0. -1.
         22    1    1    2    0    0  0.29696249895E+03  0.53650622819E+03 -0.22086344879E+02  0.61360693061E+03  0.00000000000E+00 0.  1.
<mgrwt>
<rscale>  0 0.15615884E+04</rscale>
<asrwt>0</asrwt>
<pdfrwt beam="1">  1        1 0.23755812E+00 0.15615884E+04</pdfrwt>
<pdfrwt beam="2">  1       -1 0.60740248E-01 0.15615884E+04</pdfrwt>
<totfact> 0.16131661E+01</totfact>
</mgrwt>
</event>
<event>
 6    1  0.1568961E-005  0.2009007E+04  0.7818608E-02  0.8602421E-01
          1   -1    0    0  501    0  0.00000000000E+00  0.00000000000E+00  0.11959150294E+04  0.11959150294E+04  0.00000000000E+00 0. -1.
         -1   -1    0    0    0  501 -0.00000000000E+00 -0.00000000000E+00 -0.84372785250E+03  0.84372785250E+03  0.00000000000E+00 0.  1.
         23    2    1    2    0    0  0.41623137083E+03  0.17692582284E+03 -0.73189565341E+03  0.86499958122E+03  0.89452373787E+02 0.  0.
         11    1    3    3    0    0  0.17737140403E+03  0.79640931399E+02 -0.39930190034E+03  0.44412306914E+03  0.00000000000E+00 0.  1.
        -11    1    3    3    0    0  0.23885996680E+03  0.97284891442E+02 -0.33259375307E+03  0.42087651208E+03  0.00000000000E+00 0. -1.
         22    1    1    2    0    0 -0.41623137083E+03 -0.17692582284E+03  0.10840828303E+04  0.11746433007E+04  0.00000000000E+00 0. -1.
<mgrwt>
<rscale>  0 0.20090065E+04</rscale>
<asrwt>0</asrwt>
<pdfrwt beam="1">  1        1 0.18398693E+00 0.20090065E+04</pdfrwt>
<pdfrwt beam="2">  1       -1 0.12980428E+00 0.20090065E+04</pdfrwt>
<totfact> 0.50777185E+00</totfact>
</mgrwt>
</event>
<event>
 6    1  0.1568961E-005  0.2677224E+04  0.7818608E-02  0.8342433E-01
         -2   -1    0    0    0  501 -0.00000000000E+00  0.00000000000E+00  0.57317835556E+03  0.57317835556E+03  0.00000000000E+00 0.  1.
          2   -1    0    0  501    0  0.00000000000E+00 -0.00000000000E+00 -0.31262217234E+04  0.31262217234E+04  0.00000000000E+00 0. -1.
         23    2    1    2    0    0  0.86782985075E+03 -0.19560409650E+03 -0.26572053671E+04  0.28037219367E+04  0.93416930377E+02 0.  0.
         11    1    3    3    0    0  0.43838500785E+03 -0.87689171496E+02 -0.11925172511E+04  0.12735651534E+04  0.00000000000E+00 0. -1.
        -11    1    3    3    0    0  0.42944484290E+03 -0.10791492501E+03 -0.14646881160E+04  0.15301567833E+04  0.00000000000E+00 0.  1.
         22    1    1    2    0    0 -0.86782985075E+03  0.19560409650E+03  0.10416199928E+03  0.89567814226E+03  0.00000000000E+00 0.  1.
<mgrwt>
<rscale>  0 0.26772244E+04</rscale>
<asrwt>0</asrwt>
<pdfrwt beam="1">  1        2 0.48095718E+00 0.26772244E+04</pdfrwt>
<pdfrwt beam="2">  1       -2 0.88181287E-01 0.26772244E+04</pdfrwt>
<totfact> 0.14092325E+00</totfact>
</mgrwt>
</event>
<event>
 6    1  0.1568961E-005  0.2304368E+04  0.7818608E-02  0.8476201E-01
         -2   -1    0    0    0  501 -0.00000000000E+00  0.00000000000E+00  0.60774367818E+03  0.60774367818E+03  0.00000000000E+00 0.  1.
          2   -1    0    0  501    0  0.00000000000E+00 -0.00000000000E+00 -0.21843551395E+04  0.21843551395E+04  0.00000000000E+00 0. -1.
         23    2    1    2    0    0 -0.23776989480E+03 -0.10458912719E+04 -0.12931076740E+04  0.16826856967E+04  0.94237051511E+02 0.  0.
         11    1    3    3    0    0 -0.13395465406E+03 -0.39346143593E+03 -0.52272330977E+03  0.66782887740E+03  0.00000000000E+00 0. -1.
        -11    1    3    3    0    0 -0.10381524074E+03 -0.65242983598E+03 -0.77038436418E+03  0.10148568193E+04  0.00000000000E+00 0.  1.
         22    1    1    2    0    0  0.23776989480E+03  0.10458912719E+04 -0.28350378733E+03  0.11094131210E+04  0.00000000000E+00 0.  1.
<mgrwt>
<rscale>  0 0.23043680E+04</rscale>
<asrwt>0</asrwt>
<pdfrwt beam="1">  1        2 0.33605464E+00 0.23043680E+04</pdfrwt>
<pdfrwt beam="2">  1       -2 0.93499025E-01 0.23043680E+04</pdfrwt>
<totfact> 0.46190540E+00</totfact>
</mgrwt>
</event>
<event>
 6    1  0.1568961E-005  0.4033686E+04  0.7818608E-02  0.7997785E-01
         -1   -1    0    0    0  501 -0.00000000000E+00  0.00000000000E+00  0.10621906681E+04  0.10621906681E+04  0.00000000000E+00 0.  1.
          1   -1    0    0  501    0  0.00000000000E+00 -0.00000000000E+00 -0.38294961650E+04  0.38294961650E+04  0.00000000000E+00 0. -1.
         23    2    1    2    0    0  0.19550820599E+04 -0.48486840497E+03 -0.12873756127E+04  0.23921597392E+04  0.87458667660E+02 0.  0.
         11    1    3    3    0    0  0.12995458969E+04 -0.32249693170E+03 -0.80636097919E+03  0.15630233005E+04  0.00000000000E+00 0.  1.
        -11    1    3    3    0    0  0.65553616299E+03 -0.16237147327E+03 -0.48101463355E+03  0.82913643872E+03  0.00000000000E+00 0. -1.
         22    1    1    2    0    0 -0.19550820599E+04  0.48486840497E+03 -0.14799298843E+04  0.24995270939E+04  0.00000000000E+00 0.  1.
<mgrwt>
<rscale>  0 0.40336857E+04</rscale>
<asrwt>0</asrwt>
<pdfrwt beam="1">  1        1 0.58915325E+00 0.40336857E+04</pdfrwt>
<pdfrwt beam="2">  1       -1 0.16341395E+00 0.40336857E+04</pdfrwt>
<totfact> 0.28858554E-02</totfact>
</mgrwt>
</event>
<event>
 6    1  0.1568961E-005  0.8627911E+03  0.7818608E-02  0.9473328E-01
         -1   -1    0    0    0  501 -0.00000000000E+00  0.00000000000E+00  0.59261663446E+03  0.59261663446E+03  0.00000000000E+00 0.  1.
          1   -1    0    0  501    0  0.00000000000E+00 -0.00000000000E+00 -0.31403456960E+03  0.31403456960E+03  0.00000000000E+00 0. -1.
         23    2    1    2    0    0  0.18915980910E+03 -0.25075805844E+02 -0.25942095909E+03  0.33581192442E+03  0.95185004858E+02 0.  0.
         13    1    3    3    0    0  0.11451179317E+03  0.16227087734E+02 -0.20266815937E+03  0.23334663480E+03  0.00000000000E+00 0. -1.
        -13    1    3    3    0    0  0.74648015930E+02 -0.41302893579E+02 -0.56752799719E+02  0.10246528962E+03  0.00000000000E+00 0.  1.
         22    1    1    2    0    0 -0.18915980910E+03  0.25075805844E+02  0.53800302394E+03  0.57083927965E+03  0.00000000000E+00 0.  1.
<mgrwt>
<rscale>  0 0.86279107E+03</rscale>
<asrwt>0</asrwt>
<pdfrwt beam="1">  1        1 0.48313011E-01 0.86279107E+03</pdfrwt>
<pdfrwt beam="2">  1       -1 0.91171790E-01 0.86279107E+03</pdfrwt>
<totfact> 0.97928444E+01</totfact>
</mgrwt>
</event>
<event>
 6    1  0.1568961E-005  0.1646006E+04  0.7818608E-02  0.8792773E-01
         -2   -1    0    0    0  501 -0.00000000000E+00  0.00000000000E+00  0.20717156323E+03  0.20717156323E+03  0.00000000000E+00 0.  1.
          2   -1    0    0  501    0  0.00000000000E+00 -0.00000000000E+00 -0.32694355631E+04  0.32694355631E+04  0.00000000000E+00 0. -1.
         23    2    1    2    0    0 -0.61662979204E+03 -0.40911361818E+03 -0.22845692718E+04  0.24031010280E+04  0.89618861340E+02 0.  0.
         13    1    3    3    0    0 -0.19227582250E+03 -0.17201923781E+03 -0.72528185419E+03  0.76980151865E+03  0.00000000000E+00 0.  1.
        -13    1    3    3    0    0 -0.42435396955E+03 -0.23709438036E+03 -0.15592874176E+04  0.16332995094E+04  0.00000000000E+00 0. -1.
         22    1    1    2    0    0  0.61662979204E+03  0.40911361818E+03 -0.77769472813E+03  0.10735060983E+04  0.00000000000E+00 0.  1.
<mgrwt>
<rscale>  0 0.16460062E+04</rscale>
<asrwt>0</asrwt>
<pdfrwt beam="1">  1        2 0.50299009E+00 0.16460062E+04</pdfrwt>
<pdfrwt beam="2">  1       -2 0.31872548E-01 0.16460062E+04</pdfrwt>
<totfact> 0.10292212E+01</totfact>
</mgrwt>
</event>
<event>
 6    1  0.1568961E-005  0.3104506E+04  0.7818608E-02  0.8214502E-01
         -2   -1    0    0    0  501 -0.00000000000E+00  0.00000000000E+00  0.71239998326E+03  0.71239998326E+03  0.00000000000E+00 0.  1.
          2   -1    0    0  501    0  0.00000000000E+00 -0.00000000000E+00 -0.33822144558E+04  0.33822144558E+04  0.00000000000E+00 0. -1.
         23    2    1    2    0    0  0.96371056999E+03 -0.27092169864E+03  0.22632243864E+03  0.10303452541E+04  0.90845291064E+02 0.  0.
         13    1    3    3    0    0  0.28237029911E+03 -0.10978223927E+03  0.38077395003E+02  0.30534409097E+03  0.00000000000E+00 0. -1.
        -13    1    3    3    0    0  0.68134027088E+03 -0.16113945937E+03  0.18824504364E+03  0.72500116314E+03  0.00000000000E+00 0.  1.
         22    1    1    2    0    0 -0.96371056999E+03  0.27092169864E+03 -0.28961369112E+04  0.30642691849E+04  0.00000000000E+00 0. -1.
<mgrwt>
<rscale>  0 0.31045061E+04</rscale>
<asrwt>0</asrwt>
<pdfrwt beam="1">  1        2 0.52034069E+00 0.31045061E+04</pdfrwt>
<pdfrwt beam="2">  1       -2 0.10960000E+00 0.31045061E+04</pdfrwt>
<totfact> 0.55098571E-01</totfact>
</mgrwt>
</event>
<event>
 6    1  0.1568961E-005  0.3209350E+04  0.7818608E-02  0.8186352E-01
         -2   -1    0    0    0  501 -0.00000000000E+00  0.00000000000E+00  0.19384383294E+04  0.19384383294E+04  0.00000000000E+00 0.  1.
          2   -1    0    0  501    0  0.00000000000E+00 -0.00000000000E+00 -0.13283793461E+04  0.13283793461E+04  0.00000000000E+00 0. -1.
         23    2    1    2    0    0 -0.90113488016E+03  0.11560577100E+04  0.96684219937E+03  0.17582396151E+04  0.90051122674E+02 0.  0.
         11    1    3    3    0    0 -0.70898474952E+03  0.85412301116E+03  0.75275361087E+03  0.13412022562E+04  0.00000000000E+00 0.  1.
        -11    1    3    3    0    0 -0.19215013064E+03  0.30193469880E+03  0.21408858850E+03  0.41703735896E+03  0.00000000000E+00 0. -1.
         22    1    1    2    0    0  0.90113488016E+03 -0.11560577100E+04 -0.35678321615E+03  0.15085780604E+04  0.00000000000E+00 0. -1.
<mgrwt>
<rscale>  0 0.32093497E+04</rscale>
<asrwt>0</asrwt>
<pdfrwt beam="1">  1        2 0.20436605E+00 0.32093497E+04</pdfrwt>
<pdfrwt beam="2">  1       -2 0.29822128E+00 0.32093497E+04</pdfrwt>
<totfact> 0.43635857E-01</totfact>
</mgrwt>
</event>
<event>
 6    1  0.1568961E-005  0.9536535E+03  0.7818608E-02  0.9360890E-01
          2   -1    0    0  501    0  0.00000000000E+00  0.00000000000E+00  0.56297435524E+03  0.56297435524E+03  0.00000000000E+00 0.  1.
         -2   -1    0    0    0  501 -0.00000000000E+00 -0.00000000000E+00 -0.40386161232E+03  0.40386161232E+03  0.00000000000E+00 0. -1.
         23    2    1    2    0    0  0.17853802471E+03  0.26222163273E+03  0.43512531377E+03  0.54633751310E+03  0.92274745167E+02 0.  0.
         11    1    3    3    0    0  0.22167600259E+02  0.86417506470E+02  0.16910423479E+03  0.19119526707E+03  0.00000000000E+00 0.  1.
        -11    1    3    3    0    0  0.15637042445E+03  0.17580412626E+03  0.26602107898E+03  0.35514224603E+03  0.00000000000E+00 0. -1.
         22    1    1    2    0    0 -0.17853802471E+03 -0.26222163273E+03 -0.27601257085E+03  0.42049845447E+03  0.00000000000E+00 0. -1.
<mgrwt>
<rscale>  0 0.95365346E+03</rscale>
<asrwt>0</asrwt>
<pdfrwt beam="1">  1        2 0.86611439E-01 0.95365346E+03</pdfrwt>
<pdfrwt beam="2">  1       -2 0.62132556E-01 0.95365346E+03</pdfrwt>
<totfact> 0.12894279E+02</totfact>
</mgrwt>
</event>
<event>
 6    1  0.1568961E-005  0.1964201E+04  0.7818608E-02  0.8623543E-01
         -2   -1    0    0    0  501 -0.00000000000E+00  0.00000000000E+00  0.44085633541E+03  0.44085633541E+03  0.00000000000E+00 0.  1.
          2   -1    0    0  501    0  0.00000000000E+00 -0.00000000000E+00 -0.21878360731E+04  0.21878360731E+04  0.00000000000E+00 0. -1.
         23    2    1    2    0    0 -0.25858474562E+03  0.60324902093E+03  0.98767676654E+02  0.66972355488E+03  0.89437878347E+02 0.  0.
         13    1    3    3    0    0 -0.87432019371E+02  0.14058637083E+03 -0.49613391909E+01  0.16563061481E+03  0.00000000000E+00 0. -1.
        -13    1    3    3    0    0 -0.17115272625E+03  0.46266265010E+03  0.10372901584E+03  0.50409294007E+03  0.00000000000E+00 0.  1.
         22    1    1    2    0    0  0.25858474562E+03 -0.60324902093E+03 -0.18457474143E+04  0.19589688536E+04  0.00000000000E+00 0. -1.
<mgrwt>
<rscale>  0 0.19642010E+04</rscale>
<asrwt>0</asrwt>
<pdfrwt beam="1">  1        2 0.33659017E+00 0.19642010E+04</pdfrwt>
<pdfrwt beam="2">  1       -2 0.67824051E-01 0.19642010E+04</pdfrwt>
<totfact> 0.97338217E+00</totfact>
</mgrwt>
</event>
<event>
 6    1  0.1568961E-005  0.1964273E+04  0.7818608E-02  0.8623509E-01
          2   -1    0    0  501    0  0.00000000000E+00  0.00000000000E+00  0.11550864934E+04  0.11550864934E+04  0.00000000000E+00 0. -1.
         -2   -1    0    0    0  501 -0.00000000000E+00 -0.00000000000E+00 -0.83508184395E+03  0.83508184395E+03  0.00000000000E+00 0.  1.
         23    2    1    2    0    0  0.57722208335E+03 -0.18877699262E+02  0.96253845225E+03  0.11262288783E+04  0.91485043653E+02 0.  0.
         11    1    3    3    0    0  0.35318854853E+03  0.33101792462E+02  0.58059478037E+03  0.68038825569E+03  0.00000000000E+00 0.  1.
        -11    1    3    3    0    0  0.22403353481E+03 -0.51979491724E+02  0.38194367188E+03  0.44584062261E+03  0.00000000000E+00 0. -1.
         22    1    1    2    0    0 -0.57722208335E+03  0.18877699262E+02 -0.64253380285E+03  0.86393945901E+03  0.00000000000E+00 0.  1.
<mgrwt>
<rscale>  0 0.19642726E+04</rscale>
<asrwt>0</asrwt>
<pdfrwt beam="1">  1        2 0.17770561E+00 0.19642726E+04</pdfrwt>
<pdfrwt beam="2">  1       -2 0.12847413E+00 0.19642726E+04</pdfrwt>
<totfact> 0.84057933E+00</totfact>
</mgrwt>
</event>
<event>
 6    1  0.1568961E-005  0.9657009E+03  0.7818608E-02  0.9346985E-01
         -2   -1    0    0    0  501 -0.00000000000E+00  0.00000000000E+00  0.12981719786E+03  0.12981719786E+03  0.00000000000E+00 0.  1.
          2   -1    0    0  501    0  0.00000000000E+00 -0.00000000000E+00 -0.17959450211E+04  0.17959450211E+04  0.00000000000E+00 0. -1.
         23    2    1    2    0    0  0.31507669305E+03 -0.20413228957E+03 -0.24835809042E+03  0.45912854642E+03  0.90409993430E+02 0.  0.
         11    1    3    3    0    0  0.45930643516E+02 -0.55817081262E+02 -0.83333538411E+02  0.11031613299E+03  0.00000000000E+00 0. -1.
        -11    1    3    3    0    0  0.26914604953E+03 -0.14831520831E+03 -0.16502455201E+03  0.34881241342E+03  0.00000000000E+00 0.  1.
         22    1    1    2    0    0 -0.31507669305E+03  0.20413228957E+03 -0.14177697328E+04  0.14666336725E+04  0.00000000000E+00 0. -1.
<mgrwt>
<rscale>  0 0.96570089E+03</rscale>
<asrwt>0</asrwt>
<pdfrwt beam="1">  1        2 0.27629922E+00 0.96570089E+03</pdfrwt>
<pdfrwt beam="2">  1       -2 0.19971878E-01 0.96570089E+03</pdfrwt>
<totfact> 0.18620704E+02</totfact>
</mgrwt>
</event>
<event>
 6    1  0.1568961E-005  0.1549820E+04  0.7818608E-02  0.8851983E-01
         -4   -1    0    0    0  501 -0.00000000000E+00  0.00000000000E+00  0.11063235592E+04  0.11063235592E+04  0.00000000000E+00 0.  1.
          4   -1    0    0  501    0  0.00000000000E+00 -0.00000000000E+00 -0.54277553193E+03  0.54277553193E+03  0.00000000000E+00 0. -1.
         23    2    1    2    0    0  0.68336837466E+03 -0.26760866473E+03  0.53842023044E+03  0.91477073197E+03  0.91117586645E+02 0.  0.
         11    1    3    3    0    0  0.37384041901E+03 -0.16927702158E+03  0.34957131664E+03  0.53908392143E+03  0.00000000000E+00 0.  1.
        -11    1    3    3    0    0  0.30952795565E+03 -0.98331643151E+02  0.18884891380E+03  0.37568681054E+03  0.00000000000E+00 0. -1.
         22    1    1    2    0    0 -0.68336837466E+03  0.26760866473E+03  0.25127796848E+02  0.73432835918E+03  0.00000000000E+00 0.  1.
<mgrwt>
<rscale>  0 0.15498198E+04</rscale>
<asrwt>0</asrwt>
<pdfrwt beam="1">  1        4 0.83503928E-01 0.15498198E+04</pdfrwt>
<pdfrwt beam="2">  1       -4 0.17020362E+00 0.15498198E+04</pdfrwt>
<totfact> 0.51056994E-01</totfact>
</mgrwt>
</event>
<event>
 6    1  0.1568961E-005  0.3527266E+04  0.7818608E-02  0.8107359E-01
          1   -1    0    0  501    0  0.00000000000E+00  0.00000000000E+00  0.22231122288E+04  0.22231122288E+04  0.00000000000E+00 0. -1.
         -1   -1    0    0    0  501 -0.00000000000E+00 -0.00000000000E+00 -0.13991199022E+04  0.13991199022E+04  0.00000000000E+00 0.  1.
         23    2    1    2    0    0 -0.15812385643E+04  0.30022602670E+02  0.12110210981E+04  0.19940404888E+04  0.91698511102E+02 0.  0.
         11    1    3    3    0    0 -0.23046680572E+03 -0.24553667703E+02  0.19584399080E+03  0.30343483628E+03  0.00000000000E+00 0. -1.
        -11    1    3    3    0    0 -0.13507717586E+04  0.54576270372E+02  0.10151771073E+04  0.16906056525E+04  0.00000000000E+00 0.  1.
         22    1    1    2    0    0  0.15812385643E+04 -0.30022602670E+02 -0.38702877152E+03  0.16281916423E+04  0.00000000000E+00 0.  1.
<mgrwt>
<rscale>  0 0.35272655E+04</rscale>
<asrwt>0</asrwt>
<pdfrwt beam="1">  1        1 0.34201727E+00 0.35272655E+04</pdfrwt>
<pdfrwt beam="2">  1       -1 0.21524921E+00 0.35272655E+04</pdfrwt>
<totfact> 0.20256679E-01</totfact>
</mgrwt>
</event>
<event>
 6    1  0.1568961E-005  0.9891309E+03  0.7818608E-02  0.9320547E-01
          1   -1    0    0  501    0  0.00000000000E+00  0.00000000000E+00  0.30885478462E+03  0.30885478462E+03  0.00000000000E+00 0. -1.
         -1   -1    0    0    0  501 -0.00000000000E+00 -0.00000000000E+00 -0.79194162657E+03  0.79194162657E+03  0.00000000000E+00 0.  1.
         23    2    1    2    0    0 -0.14062434849E+03  0.45778666364E+03 -0.12709255785E+03  0.50407556599E+03  0.92713651496E+02 0.  0.
         13    1    3    3    0    0  0.62491757095E+01  0.41788952668E+02 -0.31423027049E+02  0.52657149477E+02  0.00000000000E+00 0.  1.
        -13    1    3    3    0    0 -0.14687352419E+03  0.41599771097E+03 -0.95669530798E+02  0.45141841651E+03  0.00000000000E+00 0. -1.
         22    1    1    2    0    0  0.14062434849E+03 -0.45778666364E+03 -0.35599428410E+03  0.59672084520E+03  0.00000000000E+00 0.  1.
<mgrwt>
<rscale>  0 0.98913085E+03</rscale>
<asrwt>0</asrwt>
<pdfrwt beam="1">  1        1 0.47516121E-01 0.98913085E+03</pdfrwt>
<pdfrwt beam="2">  1       -1 0.12183717E+00 0.98913085E+03</pdfrwt>
<totfact> 0.50516517E+01</totfact>
</mgrwt>
</event>
<event>
 6    1  0.1568961E-005  0.2406379E+04  0.7818608E-02  0.8437119E-01
         -1   -1    0    0    0  501 -0.00000000000E+00  0.00000000000E+00  0.99217727917E+03  0.99217727917E+03  0.00000000000E+00 0.  1.
          1   -1    0    0  501    0  0.00000000000E+00 -0.00000000000E+00 -0.14590785272E+04  0.14590785272E+04  0.00000000000E+00 0. -1.
         23    2    1    2    0    0  0.70656685008E+03 -0.38558473094E+03  0.67435675860E+03  0.10546949820E+04  0.98550336715E+02 0.  0.
         11    1    3    3    0    0  0.31410136552E+03 -0.13642444649E+03  0.33567062401E+03  0.47952691816E+03  0.00000000000E+00 0.  1.
        -11    1    3    3    0    0  0.39246548456E+03 -0.24916028445E+03  0.33868613460E+03  0.57516806386E+03  0.00000000000E+00 0. -1.
         22    1    1    2    0    0 -0.70656685008E+03  0.38558473094E+03 -0.11412580066E+04  0.13965608243E+04  0.00000000000E+00 0. -1.
<mgrwt>
<rscale>  0 0.24063787E+04</rscale>
<asrwt>0</asrwt>
<pdfrwt beam="1">  1        1 0.22447362E+00 0.24063787E+04</pdfrwt>
<pdfrwt beam="2">  1       -1 0.15264266E+00 0.24063787E+04</pdfrwt>
<totfact> 0.20818325E+00</totfact>
</mgrwt>
</event>
<event>
 6    1  0.1568961E-005  0.2580037E+04  0.7818608E-02  0.8375014E-01
         -2   -1    0    0    0  501 -0.00000000000E+00  0.00000000000E+00  0.11137449845E+04  0.11137449845E+04  0.00000000000E+00 0.  1.
          2   -1    0    0  501    0  0.00000000000E+00 -0.00000000000E+00 -0.14941907348E+04  0.14941907348E+04  0.00000000000E+00 0. -1.
         23    2    1    2    0    0 -0.41884411828E+03  0.59892577674E+02 -0.14205512227E+04  0.14850657759E+04  0.91853504738E+02 0.  0.
         13    1    3    3    0    0 -0.25346619750E+03  0.53670730712E+01 -0.72502695459E+03  0.76807421753E+03  0.00000000000E+00 0. -1.
        -13    1    3    3    0    0 -0.16537792078E+03  0.54525504603E+02 -0.69552426806E+03  0.71699155839E+03  0.00000000000E+00 0.  1.
         22    1    1    2    0    0  0.41884411828E+03 -0.59892577674E+02  0.10401054723E+04  0.11228699434E+04  0.00000000000E+00 0.  1.
<mgrwt>
<rscale>  0 0.25800368E+04</rscale>
<asrwt>0</asrwt>
<pdfrwt beam="1">  1        2 0.22987550E+00 0.25800368E+04</pdfrwt>
<pdfrwt beam="2">  1       -2 0.17134538E+00 0.25800368E+04</pdfrwt>
<totfact> 0.23630836E+00</totfact>
</mgrwt>
</event>
<event>
 6    1  0.1568961E-005  0.2603371E+04  0.7818608E-02  0.8367057E-01
          2   -1    0    0  501    0  0.00000000000E+00  0.00000000000E+00  0.15731458326E+04  0.15731458326E+04  0.00000000000E+00 0.  1.
         -2   -1    0    0    0  501 -0.00000000000E+00 -0.00000000000E+00 -0.10770678264E+04  0.10770678264E+04  0.00000000000E+00 0. -1.
         23    2    1    2    0    0 -0.48341627139E+03 -0.29599694722E+03 -0.94220845101E+03  0.11042597731E+04  0.10162380219E+03 0.  0.
         11    1    3    3    0    0 -0.14672389723E+03 -0.11055237697E+03 -0.22437567470E+03  0.28998995409E+03  0.00000000000E+00 0.  1.
        -11    1    3    3    0    0 -0.33669237416E+03 -0.18544457025E+03 -0.71783277630E+03  0.81426981903E+03  0.00000000000E+00 0. -1.
         22    1    1    2    0    0  0.48341627139E+03  0.29599694722E+03  0.14382864572E+04  0.15459538859E+04  0.00000000000E+00 0.  1.
<mgrwt>
<rscale>  0 0.26033707E+04</rscale>
<asrwt>0</asrwt>
<pdfrwt beam="1">  1        2 0.24202244E+00 0.26033707E+04</pdfrwt>
<pdfrwt beam="2">  1       -2 0.16570274E+00 0.26033707E+04</pdfrwt>
<totfact> 0.23365469E+00</totfact>
</mgrwt>
</event>
<event>
 6    1  0.1568961E-005  0.1573559E+04  0.7818608E-02  0.8836958E-01
         -2   -1    0    0    0  501 -0.00000000000E+00  0.00000000000E+00  0.13097043019E+04  0.13097043019E+04  0.00000000000E+00 0.  1.
          2   -1    0    0  501    0  0.00000000000E+00 -0.00000000000E+00 -0.47264266525E+03  0.47264266525E+03  0.00000000000E+00 0. -1.
         23    2    1    2    0    0 -0.27246420275E+03 -0.69341054286E+03  0.69785275550E+03  0.10244327007E+04  0.86075357724E+02 0.  0.
         11    1    3    3    0    0 -0.13271433411E+03 -0.41497772674E+03  0.44974542165E+03  0.62617134433E+03  0.00000000000E+00 0. -1.
        -11    1    3    3    0    0 -0.13974986864E+03 -0.27843281612E+03  0.24810733385E+03  0.39826135638E+03  0.00000000000E+00 0.  1.
         22    1    1    2    0    0  0.27246420275E+03  0.69341054286E+03  0.13920888118E+03  0.75791426647E+03  0.00000000000E+00 0. -1.
<mgrwt>
<rscale>  0 0.15735592E+04</rscale>
<asrwt>0</asrwt>
<pdfrwt beam="1">  1        2 0.72714256E-01 0.15735592E+04</pdfrwt>
<pdfrwt beam="2">  1       -2 0.20149297E+00 0.15735592E+04</pdfrwt>
<totfact> 0.82046656E+00</totfact>
</mgrwt>
</event>
<event>
 6    1  0.1568961E-005  0.4299089E+03  0.7818608E-02  0.1033889E+00
         -1   -1    0    0    0  501 -0.00000000000E+00  0.00000000000E+00  0.13979001263E+03  0.13979001263E+03  0.00000000000E+00 0.  1.
          1   -1    0    0  501    0  0.00000000000E+00 -0.00000000000E+00 -0.33053444096E+03  0.33053444096E+03  0.00000000000E+00 0. -1.
         23    2    1    2    0    0  0.34842654163E+02  0.60365565523E+02 -0.31098093836E+03  0.33134664818E+03  0.90683213399E+02 0.  0.
         11    1    3    3    0    0 -0.29814268451E+02  0.31899296708E+02 -0.12426789475E+03  0.13171547138E+03  0.00000000000E+00 0. -1.
        -11    1    3    3    0    0  0.64656922613E+02  0.28466268815E+02 -0.18671304360E+03  0.19963117681E+03  0.00000000000E+00 0.  1.
         22    1    1    2    0    0 -0.34842654163E+02 -0.60365565523E+02  0.12023651003E+03  0.13897780540E+03  0.00000000000E+00 0.  1.
<mgrwt>
<rscale>  0 0.42990889E+03</rscale>
<asrwt>0</asrwt>
<pdfrwt beam="1">  1        1 0.50851451E-01 0.42990889E+03</pdfrwt>
<pdfrwt beam="2">  1       -1 0.21506156E-01 0.42990889E+03</pdfrwt>
<totfact> 0.13920127E+03</totfact>
</mgrwt>
</event>
<event>
 6    1  0.1687111E-005  0.5763145E+04  0.7818608E-02  0.7720483E-01
         -2   -1    0    0    0  501 -0.00000000000E+00  0.00000000000E+00  0.44021531620E+04  0.44021531620E+04  0.00000000000E+00 0. -1.
          2   -1    0    0  501    0  0.00000000000E+00 -0.00000000000E+00 -0.18862266700E+04  0.18862266700E+04  0.00000000000E+00 0.  1.
         23    2    1    2    0    0 -0.57017899109E+02  0.24677135701E+04 -0.36238169222E+03  0.24966098880E+04  0.94229173879E+02 0.  0.
         11    1    3    3    0    0 -0.39575884647E+02  0.11453432949E+04 -0.12264405805E+03  0.11525706394E+04  0.00000000000E+00 0.  1.
        -11    1    3    3    0    0 -0.17442014462E+02  0.13223702752E+04 -0.23973763417E+03  0.13440392487E+04  0.00000000000E+00 0. -1.
         22    1    1    2    0    0  0.57017899109E+02 -0.24677135701E+04  0.28783081843E+04  0.37917699440E+04  0.00000000000E+00 0. -1.
<mgrwt>
<rscale>  0 0.57631445E+04</rscale>
<asrwt>0</asrwt>
<pdfrwt beam="1">  1        2 0.29018872E+00 0.57631445E+04</pdfrwt>
<pdfrwt beam="2">  1       -2 0.67725433E+00 0.57631445E+04</pdfrwt>
<totfact> 0.14693126E-03</totfact>
</mgrwt>
</event>
<event>
 6    1  0.1568961E-005  0.5405958E+04  0.7818608E-02  0.7768764E-01
          2   -1    0    0  501    0  0.00000000000E+00  0.00000000000E+00  0.46963554212E+04  0.46963554212E+04  0.00000000000E+00 0. -1.
         -2   -1    0    0    0  501 -0.00000000000E+00 -0.00000000000E+00 -0.15556946702E+04  0.15556946702E+04  0.00000000000E+00 0.  1.
         23    2    1    2    0    0  0.17911605886E+04  0.13493404795E+04 -0.17294055123E+03  0.22509340504E+04  0.88428960461E+02 0.  0.
         13    1    3    3    0    0  0.36685748505E+03  0.30502386219E+03 -0.87151592614E+01  0.47717913287E+03  0.00000000000E+00 0. -1.
        -13    1    3    3    0    0  0.14243031036E+04  0.10443166173E+04 -0.16422539197E+03  0.17737549175E+04  0.00000000000E+00 0.  1.
         22    1    1    2    0    0 -0.17911605886E+04 -0.13493404795E+04  0.33136013022E+04  0.40011160411E+04  0.00000000000E+00 0. -1.
<mgrwt>
<rscale>  0 0.54059579E+04</rscale>
<asrwt>0</asrwt>
<pdfrwt beam="1">  1        2 0.72251621E+00 0.54059579E+04</pdfrwt>
<pdfrwt beam="2">  1       -2 0.23933764E+00 0.54059579E+04</pdfrwt>
<totfact> 0.40273683E-03</totfact>
</mgrwt>
</event>
<event>
 6    1  0.2406499E-005  0.2718142E+04  0.7818608E-02  0.8329142E-01
          2   -1    0    0  501    0  0.00000000000E+00  0.00000000000E+00  0.10818510958E+04  0.10818510958E+04  0.00000000000E+00 0. -1.
         -2   -1    0    0    0  501 -0.00000000000E+00 -0.00000000000E+00 -0.17073272246E+04  0.17073272246E+04  0.00000000000E+00 0.  1.
         23    2    1    2    0    0  0.12383703597E+04 -0.44720643453E+03  0.26381287120E+02  0.13200041192E+04  0.90333600908E+02 0.  0.
         11    1    3    3    0    0  0.45059293376E+03 -0.19883211355E+03 -0.17636564543E+02  0.49282780942E+03  0.00000000000E+00 0. -1.
        -11    1    3    3    0    0  0.78777742592E+03 -0.24837432098E+03  0.44017851663E+02  0.82717630973E+03  0.00000000000E+00 0.  1.
         22    1    1    2    0    0 -0.12383703597E+04  0.44720643453E+03 -0.65185741588E+03  0.14691742012E+04  0.00000000000E+00 0. -1.
<mgrwt>
<rscale>  0 0.27181419E+04</rscale>
<asrwt>0</asrwt>
<pdfrwt beam="1">  1        2 0.16643863E+00 0.27181419E+04</pdfrwt>
<pdfrwt beam="2">  1       -2 0.26266573E+00 0.27181419E+04</pdfrwt>
<totfact> 0.10524197E+00</totfact>
</mgrwt>
</event>
<event>
 6    1  0.1726790E-005  0.2793637E+04  0.7818608E-02  0.8305246E-01
          2   -1    0    0  501    0  0.00000000000E+00  0.00000000000E+00  0.29406220819E+04  0.29406220819E+04  0.00000000000E+00 0.  1.
         -2   -1    0    0    0  501 -0.00000000000E+00 -0.00000000000E+00 -0.66349989721E+03  0.66349989721E+03  0.00000000000E+00 0. -1.
         23    2    1    2    0    0 -0.73974004405E+03 -0.75372819685E+03  0.23161562478E+04  0.25473130155E+04  0.94352039264E+02 0.  0.
         11    1    3    3    0    0 -0.34309311830E+03 -0.41669577759E+03  0.11883691496E+04  0.13052086020E+04  0.00000000000E+00 0.  1.
        -11    1    3    3    0    0 -0.39664692575E+03 -0.33703241926E+03  0.11277870982E+04  0.12421044135E+04  0.00000000000E+00 0. -1.
         22    1    1    2    0    0  0.73974004405E+03  0.75372819685E+03 -0.39034063090E+02  0.10568089636E+04  0.00000000000E+00 0. -1.
<mgrwt>
<rscale>  0 0.27936374E+04</rscale>
<asrwt>0</asrwt>
<pdfrwt beam="1">  1        2 0.45240339E+00 0.27936374E+04</pdfrwt>
<pdfrwt beam="2">  1       -2 0.10207691E+00 0.27936374E+04</pdfrwt>
<totfact> 0.12979042E+00</totfact>
</mgrwt>
</event>
<event>
 6    1  0.1568961E-005  0.2673776E+04  0.7818608E-02  0.8343564E-01
         -2   -1    0    0    0  501 -0.00000000000E+00  0.00000000000E+00  0.35217767571E+03  0.35217767571E+03  0.00000000000E+00 0.  1.
          2   -1    0    0  501    0  0.00000000000E+00 -0.00000000000E+00 -0.50749082269E+04  0.50749082269E+04  0.00000000000E+00 0. -1.
         23    2    1    2    0    0  0.83547281821E+03  0.81472673364E+03 -0.10464971653E+04  0.15700810558E+04  0.90574414003E+02 0.  0.
         11    1    3    3    0    0  0.31388425961E+03  0.30346354683E+03 -0.33355976123E+03  0.54943204038E+03  0.00000000000E+00 0. -1.
        -11    1    3    3    0    0  0.52158855860E+03  0.51126318681E+03 -0.71293740406E+03  0.10206490155E+04  0.00000000000E+00 0.  1.
         22    1    1    2    0    0 -0.83547281821E+03 -0.81472673364E+03 -0.36762333859E+04  0.38570048468E+04  0.00000000000E+00 0.  1.
<mgrwt>
<rscale>  0 0.26737759E+04</rscale>
<asrwt>0</asrwt>
<pdfrwt beam="1">  1        2 0.78075509E+00 0.26737759E+04</pdfrwt>
<pdfrwt beam="2">  1       -2 0.54181183E-01 0.26737759E+04</pdfrwt>
<totfact> 0.77902990E-02</totfact>
</mgrwt>
</event>
<event>
 6    1  0.1568961E-005  0.2111028E+04  0.7818608E-02  0.8556401E-01
          2   -1    0    0  501    0  0.00000000000E+00  0.00000000000E+00  0.27065093258E+04  0.27065093258E+04  0.00000000000E+00 0. -1.
         -2   -1    0    0    0  501 -0.00000000000E+00 -0.00000000000E+00 -0.41164098254E+03  0.41164098254E+03  0.00000000000E+00 0.  1.
         23    2    1    2    0    0  0.64554584160E+03 -0.27054183993E+03 -0.14608922606E+02  0.70493511645E+03  0.82448632623E+02 0.  0.
         13    1    3    3    0    0  0.31583073480E+03 -0.88165123312E+02 -0.12244614656E+02  0.32813422954E+03  0.00000000000E+00 0.  1.
        -13    1    3    3    0    0  0.32971510681E+03 -0.18237671662E+03 -0.23643079499E+01  0.37680088691E+03  0.00000000000E+00 0. -1.
         22    1    1    2    0    0 -0.64554584160E+03  0.27054183993E+03  0.23094772658E+04  0.24132151918E+04  0.00000000000E+00 0. -1.
<mgrwt>
<rscale>  0 0.21110283E+04</rscale>
<asrwt>0</asrwt>
<pdfrwt beam="1">  1        2 0.41638604E+00 0.21110283E+04</pdfrwt>
<pdfrwt beam="2">  1       -2 0.63329384E-01 0.21110283E+04</pdfrwt>
<totfact> 0.55985087E+00</totfact>
</mgrwt>
</event>
<event>
 6    1  0.1568961E-005  0.2589994E+04  0.7818608E-02  0.8371608E-01
         -2   -1    0    0    0  501 -0.00000000000E+00  0.00000000000E+00  0.73192776663E+03  0.73192776663E+03  0.00000000000E+00 0. -1.
          2   -1    0    0  501    0  0.00000000000E+00 -0.00000000000E+00 -0.22912335576E+04  0.22912335576E+04  0.00000000000E+00 0.  1.
         23    2    1    2    0    0  0.97536918773E+03 -0.48628154787E+03  0.32312084704E+02  0.10941558140E+04  0.91203500112E+02 0.  0.
         11    1    3    3    0    0  0.74687828122E+03 -0.34083218650E+03 -0.32231612986E+01  0.82097754846E+03  0.00000000000E+00 0. -1.
        -11    1    3    3    0    0  0.22849090651E+03 -0.14544936138E+03  0.35535246002E+02  0.27317826559E+03  0.00000000000E+00 0.  1.
         22    1    1    2    0    0 -0.97536918773E+03  0.48628154787E+03 -0.15916178757E+04  0.19290055102E+04  0.00000000000E+00 0.  1.
<mgrwt>
<rscale>  0 0.25899942E+04</rscale>
<asrwt>0</asrwt>
<pdfrwt beam="1">  1        2 0.35249747E+00 0.25899942E+04</pdfrwt>
<pdfrwt beam="2">  1       -2 0.11260427E+00 0.25899942E+04</pdfrwt>
<totfact> 0.25196110E+00</totfact>
</mgrwt>
</event>
<event>
 6    1  0.1568961E-005  0.3927962E+04  0.7818608E-02  0.8019239E-01
          2   -1    0    0  501    0  0.00000000000E+00  0.00000000000E+00  0.19032366830E+04  0.19032366830E+04  0.00000000000E+00 0. -1.
         -2   -1    0    0    0  501 -0.00000000000E+00 -0.00000000000E+00 -0.20266636251E+04  0.20266636251E+04  0.00000000000E+00 0.  1.
         23    2    1    2    0    0 -0.51543639537E+03 -0.24315123308E+03 -0.19410793013E+04  0.20249968199E+04  0.89588318410E+02 0.  0.
         13    1    3    3    0    0 -0.21326159804E+03 -0.74522463907E+02 -0.64060919317E+03  0.67927479359E+03  0.00000000000E+00 0. -1.
        -13    1    3    3    0    0 -0.30217479733E+03 -0.16862876917E+03 -0.13004701082E+04  0.13457220263E+04  0.00000000000E+00 0.  1.
         22    1    1    2    0    0  0.51543639537E+03  0.24315123308E+03  0.18176523593E+04  0.19049034882E+04  0.00000000000E+00 0. -1.
<mgrwt>
<rscale>  0 0.39279616E+04</rscale>
<asrwt>0</asrwt>
<pdfrwt beam="1">  1        2 0.29280564E+00 0.39279616E+04</pdfrwt>
<pdfrwt beam="2">  1       -2 0.31179440E+00 0.39279616E+04</pdfrwt>
<totfact> 0.16141850E-01</totfact>
</mgrwt>
</event>
<event>
 6    1  0.1568961E-005  0.2900719E+04  0.7818608E-02  0.8272664E-01
         -2   -1    0    0    0  501 -0.00000000000E+00  0.00000000000E+00  0.21628305364E+04  0.21628305364E+04  0.00000000000E+00 0.  1.
          2   -1    0    0  501    0  0.00000000000E+00 -0.00000000000E+00 -0.97258773224E+03  0.97258773224E+03  0.00000000000E+00 0. -1.
         23    2    1    2    0    0 -0.81000175781E+03  0.79888109526E+03  0.15656060712E+04  0.19374151659E+04  0.90229168171E+02 0.  0.
         13    1    3    3    0    0 -0.28915513490E+03  0.34017295944E+03  0.57887453796E+03  0.73104313489E+03  0.00000000000E+00 0.  1.
        -13    1    3    3    0    0 -0.52084662291E+03  0.45870813582E+03  0.98673153324E+03  0.12063720310E+04  0.00000000000E+00 0. -1.
         22    1    1    2    0    0  0.81000175781E+03 -0.79888109526E+03 -0.37536326702E+03  0.11980031028E+04  0.00000000000E+00 0. -1.
<mgrwt>
<rscale>  0 0.29007188E+04</rscale>
<asrwt>0</asrwt>
<pdfrwt beam="1">  1        2 0.14962888E+00 0.29007188E+04</pdfrwt>
<pdfrwt beam="2">  1       -2 0.33274316E+00 0.29007188E+04</pdfrwt>
<totfact> 0.45191535E-01</totfact>
</mgrwt>
</event>
<event>
 6    1  0.1568961E-005  0.1605269E+04  0.7818608E-02  0.8817318E-01
         -1   -1    0    0    0  501 -0.00000000000E+00  0.00000000000E+00  0.13861713784E+04  0.13861713784E+04  0.00000000000E+00 0.  1.
          1   -1    0    0  501    0  0.00000000000E+00 -0.00000000000E+00 -0.46474916363E+03  0.46474916363E+03  0.00000000000E+00 0. -1.
         23    2    1    2    0    0 -0.53149927702E+03  0.59684433793E+03  0.50086795671E+03  0.94782556966E+03  0.93754761202E+02 0.  0.
         13    1    3    3    0    0 -0.22309820891E+03  0.27064450893E+03  0.16758500439E+03  0.38872354537E+03  0.00000000000E+00 0.  1.
        -13    1    3    3    0    0 -0.30840106812E+03  0.32619982900E+03  0.33328295232E+03  0.55910202428E+03  0.00000000000E+00 0. -1.
         22    1    1    2    0    0  0.53149927702E+03 -0.59684433793E+03  0.42055425810E+03  0.90309497241E+03  0.00000000000E+00 0.  1.
<mgrwt>
<rscale>  0 0.16052688E+04</rscale>
<asrwt>0</asrwt>
<pdfrwt beam="1">  1        1 0.71499872E-01 0.16052688E+04</pdfrwt>
<pdfrwt beam="2">  1       -1 0.21325713E+00 0.16052688E+04</pdfrwt>
<totfact> 0.57420605E+00</totfact>
</mgrwt>
</event>
<event>
 6    1  0.1568961E-005  0.1632913E+04  0.7818608E-02  0.8800580E-01
         -2   -1    0    0    0  501 -0.00000000000E+00  0.00000000000E+00  0.32568263000E+03  0.32568263000E+03  0.00000000000E+00 0.  1.
          2   -1    0    0  501    0  0.00000000000E+00 -0.00000000000E+00 -0.20467817078E+04  0.20467817078E+04  0.00000000000E+00 0. -1.
         23    2    1    2    0    0 -0.35134847372E+03  0.73413557217E+03 -0.85219922651E+03  0.11819233936E+04  0.91096642643E+02 0.  0.
         13    1    3    3    0    0 -0.10416005909E+03  0.23033531061E+03 -0.20624950714E+03  0.32625531784E+03  0.00000000000E+00 0. -1.
        -13    1    3    3    0    0 -0.24718841463E+03  0.50380026156E+03 -0.64594971937E+03  0.85566807573E+03  0.00000000000E+00 0.  1.
         22    1    1    2    0    0  0.35134847372E+03 -0.73413557217E+03 -0.86889985129E+03  0.11905409442E+04  0.00000000000E+00 0. -1.
<mgrwt>
<rscale>  0 0.16329130E+04</rscale>
<asrwt>0</asrwt>
<pdfrwt beam="1">  1        2 0.31488949E+00 0.16329130E+04</pdfrwt>
<pdfrwt beam="2">  1       -2 0.50105020E-01 0.16329130E+04</pdfrwt>
<totfact> 0.22684114E+01</totfact>
</mgrwt>
</event>
<event>
 6    1  0.1568961E-005  0.4618623E+04  0.7818608E-02  0.7890192E-01
          2   -1    0    0  501    0  0.00000000000E+00  0.00000000000E+00  0.21739095521E+04  0.21739095521E+04  0.00000000000E+00 0. -1.
         -2   -1    0    0    0  501 -0.00000000000E+00 -0.00000000000E+00 -0.24531466092E+04  0.24531466092E+04  0.00000000000E+00 0.  1.
         23    2    1    2    0    0 -0.17451593108E+04  0.55030525561E+02 -0.16524724167E+04  0.24057086577E+04  0.90330941007E+02 0.  0.
         13    1    3    3    0    0 -0.76328387817E+03  0.67035384709E+02 -0.74194734564E+03  0.10665748381E+04  0.00000000000E+00 0. -1.
        -13    1    3    3    0    0 -0.98187543265E+03 -0.12004859148E+02 -0.91052507109E+03  0.13391338197E+04  0.00000000000E+00 0.  1.
         22    1    1    2    0    0  0.17451593108E+04 -0.55030525561E+02  0.13732353596E+04  0.22213475036E+04  0.00000000000E+00 0. -1.
<mgrwt>
<rscale>  0 0.46186227E+04</rscale>
<asrwt>0</asrwt>
<pdfrwt beam="1">  1        2 0.33444762E+00 0.46186227E+04</pdfrwt>
<pdfrwt beam="2">  1       -2 0.37740717E+00 0.46186227E+04</pdfrwt>
<totfact> 0.41713756E-02</totfact>
</mgrwt>
</event>
<event>
 6    1  0.1568961E-005  0.1559122E+04  0.7818608E-02  0.8846062E-01
         -1   -1    0    0    0  501 -0.00000000000E+00  0.00000000000E+00  0.81408272588E+03  0.81408272588E+03  0.00000000000E+00 0.  1.
          1   -1    0    0  501    0  0.00000000000E+00 -0.00000000000E+00 -0.74650332631E+03  0.74650332631E+03  0.00000000000E+00 0. -1.
         23    2    1    2    0    0  0.30343611721E+02  0.17573725332E+03 -0.72310002709E+03  0.75004408984E+03  0.88815373417E+02 0.  0.
         11    1    3    3    0    0 -0.15589721221E+02  0.58459397586E+02 -0.12559528308E+03  0.13940844919E+03  0.00000000000E+00 0. -1.
        -11    1    3    3    0    0  0.45933332942E+02  0.11727785573E+03 -0.59750474401E+03  0.61063564065E+03  0.00000000000E+00 0.  1.
         22    1    1    2    0    0 -0.30343611721E+02 -0.17573725332E+03  0.79067942666E+03  0.81054196234E+03  0.00000000000E+00 0.  1.
<mgrwt>
<rscale>  0 0.15591221E+04</rscale>
<asrwt>0</asrwt>
<pdfrwt beam="1">  1        1 0.11484666E+00 0.15591221E+04</pdfrwt>
<pdfrwt beam="2">  1       -1 0.12524350E+00 0.15591221E+04</pdfrwt>
<totfact> 0.13231769E+01</totfact>
</mgrwt>
</event>
<event>
 6    1  0.1568961E-005  0.2200563E+04  0.7818608E-02  0.8518194E-01
          2   -1    0    0  501    0  0.00000000000E+00  0.00000000000E+00  0.16520679276E+04  0.16520679276E+04  0.00000000000E+00 0. -1.
         -2   -1    0    0    0  501 -0.00000000000E+00 -0.00000000000E+00 -0.73279064296E+03  0.73279064296E+03  0.00000000000E+00 0.  1.
         23    2    1    2    0    0  0.62008497083E+03 -0.90654951491E+03  0.45124454466E+03  0.11909607359E+04  0.91806542440E+02 0.  0.
         11    1    3    3    0    0  0.39156308531E+03 -0.50473090477E+03  0.23546257961E+03  0.68082124115E+03  0.00000000000E+00 0.  1.
        -11    1    3    3    0    0  0.22852188552E+03 -0.40181861015E+03  0.21578196505E+03  0.51013949471E+03  0.00000000000E+00 0. -1.
         22    1    1    2    0    0 -0.62008497083E+03  0.90654951491E+03  0.46803274001E+03  0.11938978347E+04  0.00000000000E+00 0.  1.
<mgrwt>
<rscale>  0 0.22005635E+04</rscale>
<asrwt>0</asrwt>
<pdfrwt beam="1">  1        2 0.25416430E+00 0.22005635E+04</pdfrwt>
<pdfrwt beam="2">  1       -2 0.11273702E+00 0.22005635E+04</pdfrwt>
<totfact> 0.59004603E+00</totfact>
</mgrwt>
</event>
<event>
 6    1  0.1568961E-005  0.1985428E+04  0.7818608E-02  0.8613464E-01
          1   -1    0    0  501    0  0.00000000000E+00  0.00000000000E+00  0.19018050539E+04  0.19018050539E+04  0.00000000000E+00 0. -1.
         -1   -1    0    0    0  501 -0.00000000000E+00 -0.00000000000E+00 -0.51818180412E+03  0.51818180412E+03  0.00000000000E+00 0.  1.
         23    2    1    2    0    0  0.33038740240E+02  0.49359332662E+03 -0.35270479924E+03  0.61456141668E+03  0.92515560941E+02 0.  0.
         13    1    3    3    0    0  0.27196609185E+02  0.13796398653E+03 -0.14814056554E+03  0.20425313777E+03  0.00000000000E+00 0.  1.
        -13    1    3    3    0    0  0.58421310551E+01  0.35562934009E+03 -0.20456423370E+03  0.41030827890E+03  0.00000000000E+00 0. -1.
         22    1    1    2    0    0 -0.33038740240E+02 -0.49359332662E+03  0.17363280491E+04  0.18054254414E+04  0.00000000000E+00 0. -1.
<mgrwt>
<rscale>  0 0.19854277E+04</rscale>
<asrwt>0</asrwt>
<pdfrwt beam="1">  1        1 0.29258539E+00 0.19854277E+04</pdfrwt>
<pdfrwt beam="2">  1       -1 0.79720278E-01 0.19854277E+04</pdfrwt>
<totfact> 0.50709736E+00</totfact>
</mgrwt>
</event>
<event>
 6    1  0.1568961E-005  0.2533595E+04  0.7818608E-02  0.8391114E-01
          1   -1    0    0  501    0  0.00000000000E+00  0.00000000000E+00  0.10350704199E+04  0.10350704199E+04  0.00000000000E+00 0. -1.
         -1   -1    0    0    0  501 -0.00000000000E+00 -0.00000000000E+00 -0.15504030727E+04  0.15504030727E+04  0.00000000000E+00 0.  1.
         23    2    1    2    0    0  0.28995791840E+03 -0.30762291694E+03 -0.14748880894E+04  0.15369249294E+04  0.90199274119E+02 0.  0.
         13    1    3    3    0    0  0.14101504293E+03 -0.94206476469E+02 -0.50432201446E+03  0.53207217256E+03  0.00000000000E+00 0. -1.
        -13    1    3    3    0    0  0.14894287547E+03 -0.21341644048E+03 -0.97056607493E+03  0.10048527569E+04  0.00000000000E+00 0.  1.
         22    1    1    2    0    0 -0.28995791840E+03  0.30762291694E+03  0.95955543657E+03  0.10485485632E+04  0.00000000000E+00 0. -1.
<mgrwt>
<rscale>  0 0.25335954E+04</rscale>
<asrwt>0</asrwt>
<pdfrwt beam="1">  1        1 0.15924160E+00 0.25335954E+04</pdfrwt>
<pdfrwt beam="2">  1       -1 0.23852355E+00 0.25335954E+04</pdfrwt>
<totfact> 0.10435854E+00</totfact>
</mgrwt>
</event>
<event>
 6    1  0.1568961E-005  0.3880113E+04  0.7818608E-02  0.8029178E-01
         -2   -1    0    0    0  501 -0.00000000000E+00  0.00000000000E+00  0.16799768208E+04  0.16799768208E+04  0.00000000000E+00 0.  1.
          2   -1    0    0  501    0  0.00000000000E+00 -0.00000000000E+00 -0.22403995384E+04  0.22403995384E+04  0.00000000000E+00 0. -1.
         23    2    1    2    0    0  0.39456835855E+03  0.40236317896E+03  0.15941420337E+04  0.16933313249E+04  0.92205394516E+02 0.  0.
         13    1    3    3    0    0  0.16361712049E+03  0.23146693282E+03  0.81797258896E+03  0.86569432215E+03  0.00000000000E+00 0.  1.
        -13    1    3    3    0    0  0.23095123806E+03  0.17089624614E+03  0.77616944474E+03  0.82763700271E+03  0.00000000000E+00 0. -1.
         22    1    1    2    0    0 -0.39456835855E+03 -0.40236317896E+03 -0.21545647513E+04  0.22270450344E+04  0.00000000000E+00 0. -1.
<mgrwt>
<rscale>  0 0.38801130E+04</rscale>
<asrwt>0</asrwt>
<pdfrwt beam="1">  1        2 0.34467685E+00 0.38801130E+04</pdfrwt>
<pdfrwt beam="2">  1       -2 0.25845797E+00 0.38801130E+04</pdfrwt>
<totfact> 0.22257074E-01</totfact>
</mgrwt>
</event>
<event>
 6    1  0.1568961E-005  0.2686332E+04  0.7818608E-02  0.8339453E-01
         -2   -1    0    0    0  501 -0.00000000000E+00  0.00000000000E+00  0.16252649379E+04  0.16252649379E+04  0.00000000000E+00 0.  1.
          2   -1    0    0  501    0  0.00000000000E+00 -0.00000000000E+00 -0.11100312279E+04  0.11100312279E+04  0.00000000000E+00 0. -1.
         23    2    1    2    0    0  0.63955800837E+03  0.34652327449E+03 -0.88997658014E+03  0.11529786296E+04  0.90490780090E+02 0.  0.
         13    1    3    3    0    0  0.37399816074E+03  0.23961816871E+03 -0.58754829829E+03  0.73654904374E+03  0.00000000000E+00 0. -1.
        -13    1    3    3    0    0  0.26555984763E+03  0.10690510578E+03 -0.30242828185E+03  0.41642958585E+03  0.00000000000E+00 0.  1.
         22    1    1    2    0    0 -0.63955800837E+03 -0.34652327449E+03  0.14052102901E+04  0.15823175362E+04  0.00000000000E+00 0.  1.
<mgrwt>
<rscale>  0 0.26863319E+04</rscale>
<asrwt>0</asrwt>
<pdfrwt beam="1">  1        2 0.17077403E+00 0.26863319E+04</pdfrwt>
<pdfrwt beam="2">  1       -2 0.25004076E+00 0.26863319E+04</pdfrwt>
<totfact> 0.12114420E+00</totfact>
</mgrwt>
</event>
<event>
 6    1  0.1568961E-005  0.1545968E+04  0.7818608E-02  0.8854447E-01
         -2   -1    0    0    0  501 -0.00000000000E+00  0.00000000000E+00  0.11607042940E+04  0.11607042940E+04  0.00000000000E+00 0.  1.
          2   -1    0    0  501    0  0.00000000000E+00 -0.00000000000E+00 -0.51477737196E+03  0.51477737196E+03  0.00000000000E+00 0. -1.
         23    2    1    2    0    0  0.51373937880E+03 -0.43282186560E+03  0.73312707161E+03  0.99808460165E+03  0.86224429577E+02 0.  0.
         11    1    3    3    0    0  0.14696566010E+03 -0.10929533127E+03  0.25648020541E+03  0.31516102305E+03  0.00000000000E+00 0. -1.
        -11    1    3    3    0    0  0.36677371870E+03 -0.32352653433E+03  0.47664686620E+03  0.68292357860E+03  0.00000000000E+00 0.  1.
         22    1    1    2    0    0 -0.51373937880E+03  0.43282186560E+03 -0.87200149568E+02  0.67739706432E+03  0.00000000000E+00 0.  1.
<mgrwt>
<rscale>  0 0.15459681E+04</rscale>
<asrwt>0</asrwt>
<pdfrwt beam="1">  1        2 0.79196519E-01 0.15459681E+04</pdfrwt>
<pdfrwt beam="2">  1       -2 0.17856989E+00 0.15459681E+04</pdfrwt>
<totfact> 0.10620437E+01</totfact>
</mgrwt>
</event>
<event>
 6    1  0.2295865E-005  0.2742709E+04  0.7818608E-02  0.8321279E-01
         -2   -1    0    0    0  501 -0.00000000000E+00  0.00000000000E+00  0.63563884919E+03  0.63563884919E+03  0.00000000000E+00 0.  1.
          2   -1    0    0  501    0  0.00000000000E+00 -0.00000000000E+00 -0.29586199509E+04  0.29586199509E+04  0.00000000000E+00 0. -1.
         23    2    1    2    0    0 -0.87634491804E+03  0.10468014573E+04 -0.10145699390E+04  0.17033030954E+04  0.90086444415E+02 0.  0.
         13    1    3    3    0    0 -0.41478724101E+03  0.48610133122E+03 -0.41955514269E+03  0.76444063032E+03  0.00000000000E+00 0.  1.
        -13    1    3    3    0    0 -0.46155767703E+03  0.56070012604E+03 -0.59501479629E+03  0.93886246509E+03  0.00000000000E+00 0. -1.
         22    1    1    2    0    0  0.87634491804E+03 -0.10468014573E+04 -0.13084111627E+04  0.18909557047E+04  0.00000000000E+00 0. -1.
<mgrwt>
<rscale>  0 0.27427094E+04</rscale>
<asrwt>0</asrwt>
<pdfrwt beam="1">  1        2 0.45517229E+00 0.27427094E+04</pdfrwt>
<pdfrwt beam="2">  1       -2 0.97790594E-01 0.27427094E+04</pdfrwt>
<totfact> 0.14063151E+00</totfact>
</mgrwt>
</event>
<event>
 6    1  0.1568961E-005  0.7381813E+03  0.7818608E-02  0.9654077E-01
         -1   -1    0    0    0  501 -0.00000000000E+00  0.00000000000E+00  0.44539469753E+03  0.44539469753E+03  0.00000000000E+00 0.  1.
          1   -1    0    0  501    0  0.00000000000E+00 -0.00000000000E+00 -0.30585881290E+03  0.30585881290E+03  0.00000000000E+00 0. -1.
         23    2    1    2    0    0  0.35341544054E+03  0.64398284474E+02  0.13206403522E+02  0.37045336540E+03  0.89507955991E+02 0.  0.
         13    1    3    3    0    0  0.64855315694E+02  0.17474815307E+02  0.37793395028E+02  0.77070888483E+02  0.00000000000E+00 0.  1.
        -13    1    3    3    0    0  0.28856012485E+03  0.46923469167E+02 -0.24586991506E+02  0.29338247692E+03  0.00000000000E+00 0. -1.
         22    1    1    2    0    0 -0.35341544054E+03 -0.64398284474E+02  0.12632948111E+03  0.38080014503E+03  0.00000000000E+00 0. -1.
<mgrwt>
<rscale>  0 0.73818126E+03</rscale>
<asrwt>0</asrwt>
<pdfrwt beam="1">  1        1 0.47055202E-01 0.73818126E+03</pdfrwt>
<pdfrwt beam="2">  1       -1 0.68522261E-01 0.73818126E+03</pdfrwt>
<totfact> 0.18684649E+02</totfact>
</mgrwt>
</event>
<event>
 6    1  0.1568961E-005  0.2202082E+04  0.7818608E-02  0.8517562E-01
         -1   -1    0    0    0  501 -0.00000000000E+00  0.00000000000E+00  0.55106836205E+03  0.55106836205E+03  0.00000000000E+00 0.  1.
          1   -1    0    0  501    0  0.00000000000E+00 -0.00000000000E+00 -0.21998921897E+04  0.21998921897E+04  0.00000000000E+00 0. -1.
         23    2    1    2    0    0 -0.69187737721E+03  0.66867843177E+03 -0.14894709978E+04  0.17756562533E+04  0.92769210248E+02 0.  0.
         11    1    3    3    0    0 -0.60776393957E+03  0.58679264755E+03 -0.12464606299E+04  0.15057777789E+04  0.00000000000E+00 0.  1.
        -11    1    3    3    0    0 -0.84113437639E+02  0.81885784223E+02 -0.24301036791E+03  0.26987847443E+03  0.00000000000E+00 0. -1.
         22    1    1    2    0    0  0.69187737721E+03 -0.66867843177E+03 -0.15935282985E+03  0.97530429846E+03  0.00000000000E+00 0.  1.
<mgrwt>
<rscale>  0 0.22020817E+04</rscale>
<asrwt>0</asrwt>
<pdfrwt beam="1">  1        1 0.33844495E+00 0.22020817E+04</pdfrwt>
<pdfrwt beam="2">  1       -1 0.84779750E-01 0.22020817E+04</pdfrwt>
<totfact> 0.27342175E+00</totfact>
</mgrwt>
</event>
<event>
 6    1  0.1568961E-005  0.1991863E+04  0.7818608E-02  0.8610435E-01
          1   -1    0    0  501    0  0.00000000000E+00  0.00000000000E+00  0.71908460189E+03  0.71908460189E+03  0.00000000000E+00 0. -1.
         -1   -1    0    0    0  501 -0.00000000000E+00 -0.00000000000E+00 -0.13793639870E+04  0.13793639870E+04  0.00000000000E+00 0.  1.
         23    2    1    2    0    0  0.74771726889E+02  0.33314438285E+03  0.65149647900E+03  0.74296642057E+03  0.10476377704E+03 0.  0.
         11    1    3    3    0    0 -0.19198361241E+02  0.81441974639E+02  0.21118863511E+03  0.22716076225E+03  0.00000000000E+00 0. -1.
        -11    1    3    3    0    0  0.93970088130E+02  0.25170240821E+03  0.44030784389E+03  0.51580565832E+03  0.00000000000E+00 0.  1.
         22    1    1    2    0    0 -0.74771726889E+02 -0.33314438285E+03 -0.13117758641E+04  0.13554821683E+04  0.00000000000E+00 0.  1.
<mgrwt>
<rscale>  0 0.19918629E+04</rscale>
<asrwt>0</asrwt>
<pdfrwt beam="1">  1        1 0.11062840E+00 0.19918629E+04</pdfrwt>
<pdfrwt beam="2">  1       -1 0.21220984E+00 0.19918629E+04</pdfrwt>
<totfact> 0.30138241E+00</totfact>
</mgrwt>
</event>
<event>
 6    1  0.1568961E-005  0.1751602E+04  0.7818608E-02  0.8732469E-01
          1   -1    0    0  501    0  0.00000000000E+00  0.00000000000E+00  0.25133051002E+04  0.25133051002E+04  0.00000000000E+00 0. -1.
         -1   -1    0    0    0  501 -0.00000000000E+00 -0.00000000000E+00 -0.30518690570E+03  0.30518690570E+03  0.00000000000E+00 0.  1.
         23    2    1    2    0    0 -0.74761931978E+02 -0.43559742943E+03  0.23193449920E+04  0.23627444140E+04  0.88687693496E+02 0.  0.
         13    1    3    3    0    0 -0.60361385305E+02 -0.11528430544E+03  0.66251522259E+03  0.67517433902E+03  0.00000000000E+00 0. -1.
        -13    1    3    3    0    0 -0.14400546673E+02 -0.32031312399E+03  0.16568297694E+04  0.16875700750E+04  0.00000000000E+00 0.  1.
         22    1    1    2    0    0  0.74761931978E+02  0.43559742943E+03 -0.11122679753E+03  0.45574759186E+03  0.00000000000E+00 0.  1.
<mgrwt>
<rscale>  0 0.17516025E+04</rscale>
<asrwt>0</asrwt>
<pdfrwt beam="1">  1        1 0.38666231E+00 0.17516025E+04</pdfrwt>
<pdfrwt beam="2">  1       -1 0.46951833E-01 0.17516025E+04</pdfrwt>
<totfact> 0.56901170E+00</totfact>
</mgrwt>
</event>
<event>
 6    1  0.1568961E-005  0.1869634E+04  0.7818608E-02  0.8670121E-01
         -1   -1    0    0    0  501 -0.00000000000E+00  0.00000000000E+00  0.58891735373E+03  0.58891735373E+03  0.00000000000E+00 0.  1.
          1   -1    0    0  501    0  0.00000000000E+00 -0.00000000000E+00 -0.14838802531E+04  0.14838802531E+04  0.00000000000E+00 0. -1.
         23    2    1    2    0    0 -0.28993994460E+02  0.17665284645E+03 -0.14633691444E+04  0.14768676282E+04  0.87417724606E+02 0.  0.
         11    1    3    3    0    0  0.17526223950E+02  0.47666768087E+02 -0.65370521155E+03  0.65567506656E+03  0.00000000000E+00 0.  1.
        -11    1    3    3    0    0 -0.46520218410E+02  0.12898607836E+03 -0.80966393290E+03  0.82119256168E+03  0.00000000000E+00 0. -1.
         22    1    1    2    0    0  0.28993994460E+02 -0.17665284645E+03  0.56840624510E+03  0.59592997856E+03  0.00000000000E+00 0.  1.
<mgrwt>
<rscale>  0 0.18696340E+04</rscale>
<asrwt>0</asrwt>
<pdfrwt beam="1">  1        1 0.22828927E+00 0.18696340E+04</pdfrwt>
<pdfrwt beam="2">  1       -1 0.90602671E-01 0.18696340E+04</pdfrwt>
<totfact> 0.74941013E+00</totfact>
</mgrwt>
</event>
<event>
 6    1  0.1568961E-005  0.2943193E+04  0.7818608E-02  0.8260141E-01
          2   -1    0    0  501    0  0.00000000000E+00  0.00000000000E+00  0.26327362912E+04  0.26327362912E+04  0.00000000000E+00 0. -1.
         -2   -1    0    0    0  501 -0.00000000000E+00 -0.00000000000E+00 -0.82256483250E+03  0.82256483250E+03  0.00000000000E+00 0.  1.
         23    2    1    2    0    0 -0.93572608272E+03 -0.93206158969E+03  0.16640945661E+04  0.21265195135E+04  0.92479228876E+02 0.  0.
         13    1    3    3    0    0 -0.66828128790E+03 -0.71784222767E+03  0.12594304094E+04  0.15962651095E+04  0.00000000000E+00 0. -1.
        -13    1    3    3    0    0 -0.26744479482E+03 -0.21421936202E+03  0.40466415664E+03  0.53025440405E+03  0.00000000000E+00 0.  1.
         22    1    1    2    0    0  0.93572608272E+03  0.93206158969E+03  0.14607689259E+03  0.13287816101E+04  0.00000000000E+00 0.  1.
<mgrwt>
<rscale>  0 0.29431930E+04</rscale>
<asrwt>0</asrwt>
<pdfrwt beam="1">  1        2 0.40503635E+00 0.29431930E+04</pdfrwt>
<pdfrwt beam="2">  1       -2 0.12654844E+00 0.29431930E+04</pdfrwt>
<totfact> 0.11634357E+00</totfact>
</mgrwt>
</event>
<event>
 6    1  0.1568961E-005  0.3470401E+04  0.7818608E-02  0.8120841E-01
         -1   -1    0    0    0  501 -0.00000000000E+00  0.00000000000E+00  0.26572434938E+04  0.26572434938E+04  0.00000000000E+00 0.  1.
          1   -1    0    0  501    0  0.00000000000E+00 -0.00000000000E+00 -0.11330992448E+04  0.11330992448E+04  0.00000000000E+00 0. -1.
         23    2    1    2    0    0 -0.15558730143E+04  0.39110833462E+03  0.14813229815E+04  0.21854937654E+04  0.91425691030E+02 0.  0.
         13    1    3    3    0    0 -0.17423560531E+03  0.63971604894E+02  0.20183138431E+03  0.27420124012E+03  0.00000000000E+00 0.  1.
        -13    1    3    3    0    0 -0.13816374090E+04  0.32713672973E+03  0.12794915972E+04  0.19112925252E+04  0.00000000000E+00 0. -1.
         22    1    1    2    0    0  0.15558730143E+04 -0.39110833462E+03  0.42821267523E+02  0.16048489733E+04  0.00000000000E+00 0. -1.
<mgrwt>
<rscale>  0 0.34704009E+04</rscale>
<asrwt>0</asrwt>
<pdfrwt beam="1">  1        1 0.17432296E+00 0.34704009E+04</pdfrwt>
<pdfrwt beam="2">  1       -1 0.40880669E+00 0.34704009E+04</pdfrwt>
<totfact> 0.60914419E-02</totfact>
</mgrwt>
</event>
<event>
 6    1  0.1568961E-005  0.3220538E+04  0.7818608E-02  0.8183414E-01
         -2   -1    0    0    0  501 -0.00000000000E+00  0.00000000000E+00  0.93010291905E+03  0.93010291905E+03  0.00000000000E+00 0.  1.
          2   -1    0    0  501    0  0.00000000000E+00 -0.00000000000E+00 -0.27878273559E+04  0.27878273559E+04  0.00000000000E+00 0. -1.
         23    2    1    2    0    0 -0.50857155453E+03  0.96160142946E+03  0.43988412251E+03  0.11758194538E+04  0.75703443737E+02 0.  0.
         11    1    3    3    0    0 -0.10068843645E+03  0.25656511218E+03  0.99273396658E+02  0.29294884418E+03  0.00000000000E+00 0.  1.
        -11    1    3    3    0    0 -0.40788311808E+03  0.70503631728E+03  0.34061072585E+03  0.88287060958E+03  0.00000000000E+00 0. -1.
         22    1    1    2    0    0  0.50857155453E+03 -0.96160142946E+03 -0.22976085594E+04  0.25421108212E+04  0.00000000000E+00 0. -1.
<mgrwt>
<rscale>  0 0.32205381E+04</rscale>
<asrwt>0</asrwt>
<pdfrwt beam="1">  1        2 0.42889651E+00 0.32205381E+04</pdfrwt>
<pdfrwt beam="2">  1       -2 0.14309276E+00 0.32205381E+04</pdfrwt>
<totfact> 0.67044080E-01</totfact>
</mgrwt>
</event>
<event>
 6    1  0.1568961E-005  0.4235257E+04  0.7818608E-02  0.7958699E-01
          2   -1    0    0  501    0  0.00000000000E+00  0.00000000000E+00  0.27644560184E+04  0.27644560184E+04  0.00000000000E+00 0. -1.
         -2   -1    0    0    0  501 -0.00000000000E+00 -0.00000000000E+00 -0.16221456273E+04  0.16221456273E+04  0.00000000000E+00 0.  1.
         23    2    1    2    0    0 -0.14488510562E+04 -0.75168251666E+03 -0.82432792742E+03  0.18308508236E+04  0.91116504447E+02 0.  0.
         13    1    3    3    0    0 -0.98402105776E+03 -0.50583138179E+03 -0.60578280231E+03  0.12614022485E+04  0.00000000000E+00 0. -1.
        -13    1    3    3    0    0 -0.46482999842E+03 -0.24585113488E+03 -0.21854512511E+03  0.56944857508E+03  0.00000000000E+00 0.  1.
         22    1    1    2    0    0  0.14488510562E+04  0.75168251666E+03  0.19666383185E+04  0.25557508221E+04  0.00000000000E+00 0. -1.
<mgrwt>
<rscale>  0 0.42352569E+04</rscale>
<asrwt>0</asrwt>
<pdfrwt beam="1">  1        2 0.42530092E+00 0.42352569E+04</pdfrwt>
<pdfrwt beam="2">  1       -2 0.24956087E+00 0.42352569E+04</pdfrwt>
<totfact> 0.12158326E-01</totfact>
</mgrwt>
</event>
<event>
 6    1  0.1568961E-005  0.1393326E+04  0.7818608E-02  0.8958664E-01
         -1   -1    0    0    0  501 -0.00000000000E+00  0.00000000000E+00  0.31770750844E+03  0.31770750844E+03  0.00000000000E+00 0.  1.
          1   -1    0    0  501    0  0.00000000000E+00 -0.00000000000E+00 -0.15276295359E+04  0.15276295359E+04  0.00000000000E+00 0. -1.
         23    2    1    2    0    0 -0.42501296287E+02  0.51490704626E+03 -0.12208112616E+04  0.13285641717E+04  0.88130557627E+02 0.  0.
         13    1    3    3    0    0 -0.26091722883E+02  0.22331659045E+03 -0.64227683552E+03  0.68049291768E+03  0.00000000000E+00 0. -1.
        -13    1    3    3    0    0 -0.16409573405E+02  0.29159045581E+03 -0.57853442613E+03  0.64807125398E+03  0.00000000000E+00 0.  1.
         22    1    1    2    0    0  0.42501296287E+02 -0.51490704626E+03  0.10889234216E+02  0.51677287264E+03  0.00000000000E+00 0.  1.
<mgrwt>
<rscale>  0 0.13933261E+04</rscale>
<asrwt>0</asrwt>
<pdfrwt beam="1">  1        1 0.23501992E+00 0.13933261E+04</pdfrwt>
<pdfrwt beam="2">  1       -1 0.48878079E-01 0.13933261E+04</pdfrwt>
<totfact> 0.25591166E+01</totfact>
</mgrwt>
</event>
<event>
 6    1  0.1568961E-005  0.4209658E+04  0.7818608E-02  0.7963538E-01
         -1   -1    0    0    0  501 -0.00000000000E+00  0.00000000000E+00  0.28908769073E+04  0.28908769073E+04  0.00000000000E+00 0.  1.
          1   -1    0    0  501    0  0.00000000000E+00 -0.00000000000E+00 -0.15325126666E+04  0.15325126666E+04  0.00000000000E+00 0. -1.
         23    2    1    2    0    0 -0.11436154624E+04  0.42592414746E+03  0.24802323862E+04  0.27657237930E+04  0.91693535842E+02 0.  0.
         11    1    3    3    0    0 -0.11677868045E+03  0.15424792994E+02  0.22611209191E+03  0.25495462842E+03  0.00000000000E+00 0.  1.
        -11    1    3    3    0    0 -0.10268367820E+04  0.41049935446E+03  0.22541202943E+04  0.25107691646E+04  0.00000000000E+00 0. -1.
         22    1    1    2    0    0  0.11436154624E+04 -0.42592414746E+03 -0.11218681455E+04  0.16576657809E+04  0.00000000000E+00 0. -1.
<mgrwt>
<rscale>  0 0.42096582E+04</rscale>
<asrwt>0</asrwt>
<pdfrwt beam="1">  1        1 0.23577118E+00 0.42096582E+04</pdfrwt>
<pdfrwt beam="2">  1       -1 0.44475029E+00 0.42096582E+04</pdfrwt>
<totfact> 0.16810467E-02</totfact>
</mgrwt>
</event>
<event>
 6    1  0.1568961E-005  0.1369010E+04  0.7818608E-02  0.8976561E-01
          2   -1    0    0  501    0  0.00000000000E+00  0.00000000000E+00  0.12187911241E+04  0.12187911241E+04  0.00000000000E+00 0. -1.
         -2   -1    0    0    0  501 -0.00000000000E+00 -0.00000000000E+00 -0.38443581794E+03  0.38443581794E+03  0.00000000000E+00 0.  1.
         23    2    1    2    0    0 -0.53009155183E+02 -0.25113390888E+03 -0.32022951944E+03  0.42045717144E+03  0.91427988985E+02 0.  0.
         13    1    3    3    0    0 -0.32013754660E+02 -0.24847393154E+03 -0.28597018799E+03  0.38018827383E+03  0.00000000000E+00 0.  1.
        -13    1    3    3    0    0 -0.20995400523E+02 -0.26599773375E+01 -0.34259331458E+02  0.40268897607E+02  0.00000000000E+00 0. -1.
         22    1    1    2    0    0  0.53009155183E+02  0.25113390888E+03  0.11545848257E+04  0.11827697706E+04  0.00000000000E+00 0. -1.
<mgrwt>
<rscale>  0 0.13690098E+04</rscale>
<asrwt>0</asrwt>
<pdfrwt beam="1">  1        2 0.18750632E+00 0.13690098E+04</pdfrwt>
<pdfrwt beam="2">  1       -2 0.59143973E-01 0.13690098E+04</pdfrwt>
<totfact> 0.48068379E+01</totfact>
</mgrwt>
</event>
<event>
 6    1  0.1568961E-005  0.1629517E+04  0.7818608E-02  0.8802617E-01
         -2   -1    0    0    0  501 -0.00000000000E+00  0.00000000000E+00  0.25856634645E+03  0.25856634645E+03  0.00000000000E+00 0.  1.
          2   -1    0    0  501    0  0.00000000000E+00 -0.00000000000E+00 -0.25673547580E+04  0.25673547580E+04  0.00000000000E+00 0. -1.
         23    2    1    2    0    0  0.12405778273E+03  0.33428874799E+03 -0.24235867282E+04  0.24513307228E+04  0.90057663870E+02 0.  0.
         11    1    3    3    0    0  0.62184194822E+02  0.24090494497E+03 -0.14339949323E+04  0.14554186794E+04  0.00000000000E+00 0.  1.
        -11    1    3    3    0    0  0.61873587908E+02  0.93383803013E+02 -0.98959179596E+03  0.99591204339E+03  0.00000000000E+00 0. -1.
         22    1    1    2    0    0 -0.12405778273E+03 -0.33428874799E+03  0.11479831671E+03  0.37459038162E+03  0.00000000000E+00 0.  1.
<mgrwt>
<rscale>  0 0.16295172E+04</rscale>
<asrwt>0</asrwt>
<pdfrwt beam="1">  1        2 0.39497766E+00 0.16295172E+04</pdfrwt>
<pdfrwt beam="2">  1       -2 0.39779437E-01 0.16295172E+04</pdfrwt>
<totfact> 0.18235610E+01</totfact>
</mgrwt>
</event>
<event>
 6    1  0.1568961E-005  0.2343800E+04  0.7818608E-02  0.8460849E-01
          1   -1    0    0  501    0  0.00000000000E+00  0.00000000000E+00  0.15320716070E+04  0.15320716070E+04  0.00000000000E+00 0. -1.
         -1   -1    0    0    0  501 -0.00000000000E+00 -0.00000000000E+00 -0.89640051432E+03  0.89640051432E+03  0.00000000000E+00 0.  1.
         23    2    1    2    0    0 -0.61408351196E+03  0.85879131947E+03  0.84104495817E+03  0.13529259742E+04  0.91820367662E+02 0.  0.
         11    1    3    3    0    0 -0.44833253008E+03  0.62593356018E+03  0.55976876678E+03  0.95191173517E+03  0.00000000000E+00 0.  1.
        -11    1    3    3    0    0 -0.16575098188E+03  0.23285775929E+03  0.28127619139E+03  0.40101423902E+03  0.00000000000E+00 0. -1.
         22    1    1    2    0    0  0.61408351196E+03 -0.85879131947E+03 -0.20537386546E+03  0.10755461472E+04  0.00000000000E+00 0.  1.
<mgrwt>
<rscale>  0 0.23438001E+04</rscale>
<asrwt>0</asrwt>
<pdfrwt beam="1">  1        1 0.23570332E+00 0.23438001E+04</pdfrwt>
<pdfrwt beam="2">  1       -1 0.13790777E+00 0.23438001E+04</pdfrwt>
<totfact> 0.24400837E+00</totfact>
</mgrwt>
</event>
<event>
 6    1  0.1568961E-005  0.7923533E+03  0.7818608E-02  0.9571152E-01
          2   -1    0    0  501    0  0.00000000000E+00  0.00000000000E+00  0.24489879386E+03  0.24489879386E+03  0.00000000000E+00 0. -1.
         -2   -1    0    0    0  501 -0.00000000000E+00 -0.00000000000E+00 -0.64090124953E+03  0.64090124953E+03  0.00000000000E+00 0.  1.
         23    2    1    2    0    0  0.23799104278E+03  0.25079869649E+03  0.17744968805E+01  0.35876472524E+03  0.95756235441E+02 0.  0.
         13    1    3    3    0    0  0.60652119534E+02  0.10671589694E+03  0.35543488577E+02  0.12779006942E+03  0.00000000000E+00 0.  1.
        -13    1    3    3    0    0  0.17733892325E+03  0.14408279956E+03 -0.33768991696E+02  0.23097465581E+03  0.00000000000E+00 0. -1.
         22    1    1    2    0    0 -0.23799104278E+03 -0.25079869649E+03 -0.39777695255E+03  0.52703531816E+03  0.00000000000E+00 0.  1.
<mgrwt>
<rscale>  0 0.79235331E+03</rscale>
<asrwt>0</asrwt>
<pdfrwt beam="1">  1        2 0.37676738E-01 0.79235331E+03</pdfrwt>
<pdfrwt beam="2">  1       -2 0.98600190E-01 0.79235331E+03</pdfrwt>
<totfact> 0.11849391E+02</totfact>
</mgrwt>
</event>
<event>
 6    1  0.1757733E-005  0.2894471E+04  0.7818608E-02  0.8274524E-01
         -2   -1    0    0    0  501 -0.00000000000E+00  0.00000000000E+00  0.16316031077E+04  0.16316031077E+04  0.00000000000E+00 0. -1.
          2   -1    0    0  501    0  0.00000000000E+00 -0.00000000000E+00 -0.12837011277E+04  0.12837011277E+04  0.00000000000E+00 0.  1.
         23    2    1    2    0    0 -0.58054983226E+03 -0.87307562641E+03  0.11765960119E+04  0.15788787959E+04  0.95817115186E+02 0.  0.
         13    1    3    3    0    0 -0.30469822552E+03 -0.50462727664E+03  0.60029101662E+03  0.84133168346E+03  0.00000000000E+00 0.  1.
        -13    1    3    3    0    0 -0.27585160674E+03 -0.36844834978E+03  0.57630499530E+03  0.73754711239E+03  0.00000000000E+00 0. -1.
         22    1    1    2    0    0  0.58054983226E+03  0.87307562641E+03 -0.82869403190E+03  0.13364254396E+04  0.00000000000E+00 0.  1.
<mgrwt>
<rscale>  0 0.28944711E+04</rscale>
<asrwt>0</asrwt>
<pdfrwt beam="1">  1        2 0.19749248E+00 0.28944711E+04</pdfrwt>
<pdfrwt beam="2">  1       -2 0.25101586E+00 0.28944711E+04</pdfrwt>
<totfact> 0.92423901E-01</totfact>
</mgrwt>
</event>
<event>
 6    1  0.1568961E-005  0.1330485E+04  0.7818608E-02  0.9005734E-01
          2   -1    0    0  501    0  0.00000000000E+00  0.00000000000E+00  0.17216730011E+04  0.17216730011E+04  0.00000000000E+00 0.  1.
         -2   -1    0    0    0  501 -0.00000000000E+00 -0.00000000000E+00 -0.25704511463E+03  0.25704511463E+03  0.00000000000E+00 0. -1.
         23    2    1    2    0    0 -0.42456555462E+03  0.37708066017E+03  0.22983347042E+03  0.61961437269E+03  0.93020493854E+02 0.  0.
         13    1    3    3    0    0 -0.27690165081E+03  0.18550078120E+03  0.14189085602E+03  0.36224036091E+03  0.00000000000E+00 0. -1.
        -13    1    3    3    0    0 -0.14766390380E+03  0.19157987897E+03  0.87942614402E+02  0.25737401178E+03  0.00000000000E+00 0.  1.
         22    1    1    2    0    0  0.42456555462E+03 -0.37708066017E+03  0.12347944161E+04  0.13591037430E+04  0.00000000000E+00 0.  1.
<mgrwt>
<rscale>  0 0.13304851E+04</rscale>
<asrwt>0</asrwt>
<pdfrwt beam="1">  1        2 0.26487276E+00 0.13304851E+04</pdfrwt>
<pdfrwt beam="2">  1       -2 0.39545403E-01 0.13304851E+04</pdfrwt>
<totfact> 0.56420508E+01</totfact>
</mgrwt>
</event>
<event>
 6    1  0.1568961E-005  0.2679654E+04  0.7818608E-02  0.8341637E-01
         -1   -1    0    0    0  501 -0.00000000000E+00  0.00000000000E+00  0.26457633574E+04  0.26457633574E+04  0.00000000000E+00 0.  1.
          1   -1    0    0  501    0  0.00000000000E+00 -0.00000000000E+00 -0.67849467101E+03  0.67849467101E+03  0.00000000000E+00 0. -1.
         23    2    1    2    0    0 -0.80462017113E+03 -0.55221261701E+03 -0.15105237871E+03  0.99195519022E+03  0.93839672453E+02 0.  0.
         13    1    3    3    0    0 -0.62204904424E+03 -0.42865469356E+03 -0.76795733394E+02  0.75933355281E+03  0.00000000000E+00 0. -1.
        -13    1    3    3    0    0 -0.18257112689E+03 -0.12355792345E+03 -0.74256645320E+02  0.23262163742E+03  0.00000000000E+00 0.  1.
         22    1    1    2    0    0  0.80462017113E+03  0.55221261701E+03  0.21183210651E+04  0.23323028382E+04  0.00000000000E+00 0.  1.
<mgrwt>
<rscale>  0 0.26796540E+04</rscale>
<asrwt>0</asrwt>
<pdfrwt beam="1">  1        1 0.10438380E+00 0.26796540E+04</pdfrwt>
<pdfrwt beam="2">  1       -1 0.40704051E+00 0.26796540E+04</pdfrwt>
<totfact> 0.15987555E-01</totfact>
</mgrwt>
</event>
<event>
 6    1  0.1568961E-005  0.4121317E+04  0.7818608E-02  0.7980510E-01
          1   -1    0    0  501    0  0.00000000000E+00  0.00000000000E+00  0.25892183387E+04  0.25892183387E+04  0.00000000000E+00 0. -1.
         -1   -1    0    0    0  501 -0.00000000000E+00 -0.00000000000E+00 -0.16399980114E+04  0.16399980114E+04  0.00000000000E+00 0.  1.
         23    2    1    2    0    0  0.11261868819E+04 -0.92814368763E+03  0.19663221155E+04  0.24503842485E+04  0.90623978810E+02 0.  0.
         11    1    3    3    0    0  0.91751530597E+03 -0.70880651331E+03  0.15644513104E+04  0.19472413596E+04  0.00000000000E+00 0. -1.
        -11    1    3    3    0    0  0.20867157597E+03 -0.21933717432E+03  0.40187080512E+03  0.50314288892E+03  0.00000000000E+00 0.  1.
         22    1    1    2    0    0 -0.11261868819E+04  0.92814368763E+03 -0.10171017882E+04  0.17788321015E+04  0.00000000000E+00 0.  1.
<mgrwt>
<rscale>  0 0.41213167E+04</rscale>
<asrwt>0</asrwt>
<pdfrwt beam="1">  1        1 0.39834128E+00 0.41213167E+04</pdfrwt>
<pdfrwt beam="2">  1       -1 0.25230739E+00 0.41213167E+04</pdfrwt>
<totfact> 0.61267693E-02</totfact>
</mgrwt>
</event>
<event>
 6    1  0.1568961E-005  0.1755091E+04  0.7818608E-02  0.8730553E-01
          2   -1    0    0  501    0  0.00000000000E+00  0.00000000000E+00  0.71032175295E+03  0.71032175295E+03  0.00000000000E+00 0. -1.
         -2   -1    0    0    0  501 -0.00000000000E+00 -0.00000000000E+00 -0.10841366051E+04  0.10841366051E+04  0.00000000000E+00 0.  1.
         23    2    1    2    0    0 -0.21595289882E+03 -0.46672880825E+03  0.53665193358E+03  0.74879053179E+03  0.90667125974E+02 0.  0.
         11    1    3    3    0    0 -0.95844560445E+02 -0.30527649882E+03  0.35179875444E+03  0.47554419787E+03  0.00000000000E+00 0. -1.
        -11    1    3    3    0    0 -0.12010833837E+03 -0.16145230942E+03  0.18485317914E+03  0.27324633392E+03  0.00000000000E+00 0.  1.
         22    1    1    2    0    0  0.21595289882E+03  0.46672880825E+03 -0.91046678573E+03  0.10456678263E+04  0.00000000000E+00 0.  1.
<mgrwt>
<rscale>  0 0.17550907E+04</rscale>
<asrwt>0</asrwt>
<pdfrwt beam="1">  1        2 0.10928027E+00 0.17550907E+04</pdfrwt>
<pdfrwt beam="2">  1       -2 0.16679025E+00 0.17550907E+04</pdfrwt>
<totfact> 0.85569460E+00</totfact>
</mgrwt>
</event>
<event>
 6    1  0.1568961E-005  0.2924954E+04  0.7818608E-02  0.8265491E-01
          1   -1    0    0  501    0  0.00000000000E+00  0.00000000000E+00  0.26919125948E+04  0.26919125948E+04  0.00000000000E+00 0. -1.
         -1   -1    0    0    0  501 -0.00000000000E+00 -0.00000000000E+00 -0.79454253732E+03  0.79454253732E+03  0.00000000000E+00 0.  1.
         23    2    1    2    0    0 -0.11853269278E+04  0.59789235528E+03  0.16768475697E+04  0.21406819856E+04  0.90699487142E+02 0.  0.
         13    1    3    3    0    0 -0.10161318913E+04  0.47704349817E+03  0.14286186527E+04  0.18168780296E+04  0.00000000000E+00 0.  1.
        -13    1    3    3    0    0 -0.16919503651E+03  0.12084885712E+03  0.24822891705E+03  0.32380395597E+03  0.00000000000E+00 0. -1.
         22    1    1    2    0    0  0.11853269278E+04 -0.59789235528E+03  0.22052248772E+03  0.13457731465E+04  0.00000000000E+00 0. -1.
<mgrwt>
<rscale>  0 0.29249541E+04</rscale>
<asrwt>0</asrwt>
<pdfrwt beam="1">  1        1 0.41414040E+00 0.29249541E+04</pdfrwt>
<pdfrwt beam="2">  1       -1 0.12223731E+00 0.29249541E+04</pdfrwt>
<totfact> 0.50355175E-01</totfact>
</mgrwt>
</event>
<event>
 6    1  0.1568961E-005  0.2838847E+04  0.7818608E-02  0.8291308E-01
         -2   -1    0    0    0  501 -0.00000000000E+00  0.00000000000E+00  0.67558834100E+03  0.67558834100E+03  0.00000000000E+00 0. -1.
          2   -1    0    0  501    0  0.00000000000E+00 -0.00000000000E+00 -0.29822347207E+04  0.29822347207E+04  0.00000000000E+00 0.  1.
         23    2    1    2    0    0 -0.92802068838E+03  0.23367788169E+03 -0.25017713503E+04  0.26811442483E+04  0.11767259959E+03 0.  0.
         11    1    3    3    0    0 -0.40229177244E+03  0.14285749747E+03 -0.99530860418E+03  0.10829986853E+04  0.00000000000E+00 0. -1.
        -11    1    3    3    0    0 -0.52572891594E+03  0.90820384220E+02 -0.15064627461E+04  0.15981455630E+04  0.00000000000E+00 0.  1.
         22    1    1    2    0    0  0.92802068838E+03 -0.23367788169E+03  0.19512497055E+03  0.97667881342E+03  0.00000000000E+00 0. -1.
<mgrwt>
<rscale>  0 0.28388470E+04</rscale>
<asrwt>0</asrwt>
<pdfrwt beam="1">  1        2 0.45880534E+00 0.28388470E+04</pdfrwt>
<pdfrwt beam="2">  1       -2 0.10393667E+00 0.28388470E+04</pdfrwt>
<totfact> 0.11666188E+00</totfact>
</mgrwt>
</event>
<event>
 6    1  0.1568961E-005  0.1772379E+04  0.7818608E-02  0.8721128E-01
          2   -1    0    0  501    0  0.00000000000E+00  0.00000000000E+00  0.17207450129E+04  0.17207450129E+04  0.00000000000E+00 0. -1.
         -2   -1    0    0    0  501 -0.00000000000E+00 -0.00000000000E+00 -0.45639054597E+03  0.45639054597E+03  0.00000000000E+00 0.  1.
         23    2    1    2    0    0 -0.41074256721E+03 -0.61930186404E+03  0.46239132973E+02  0.75023359231E+03  0.92022444472E+02 0.  0.
         13    1    3    3    0    0 -0.26448456931E+03 -0.32201073562E+03  0.42776613081E+02  0.41889478379E+03  0.00000000000E+00 0.  1.
        -13    1    3    3    0    0 -0.14625799789E+03 -0.29729112842E+03  0.34625198921E+01  0.33133880851E+03  0.00000000000E+00 0. -1.
         22    1    1    2    0    0  0.41074256721E+03  0.61930186404E+03  0.12181153339E+04  0.14269019665E+04  0.00000000000E+00 0. -1.
<mgrwt>
<rscale>  0 0.17723789E+04</rscale>
<asrwt>0</asrwt>
<pdfrwt beam="1">  1        2 0.26473000E+00 0.17723789E+04</pdfrwt>
<pdfrwt beam="2">  1       -2 0.70213931E-01 0.17723789E+04</pdfrwt>
<totfact> 0.16682491E+01</totfact>
</mgrwt>
</event>
<event>
 6    1  0.1568961E-005  0.2744410E+04  0.7818608E-02  0.8320738E-01
          2   -1    0    0  501    0  0.00000000000E+00  0.00000000000E+00  0.18852426484E+04  0.18852426484E+04  0.00000000000E+00 0. -1.
         -2   -1    0    0    0  501 -0.00000000000E+00 -0.00000000000E+00 -0.99878239431E+03  0.99878239431E+03  0.00000000000E+00 0.  1.
         23    2    1    2    0    0  0.12289659590E+04 -0.59822887110E+03  0.33449709469E+03  0.14099495901E+04  0.88512314593E+02 0.  0.
         13    1    3    3    0    0  0.60350660052E+03 -0.29787997113E+03  0.21010421700E+03  0.70505069043E+03  0.00000000000E+00 0.  1.
        -13    1    3    3    0    0  0.62545935845E+03 -0.30034889997E+03  0.12439287770E+03  0.70489889971E+03  0.00000000000E+00 0. -1.
         22    1    1    2    0    0 -0.12289659590E+04  0.59822887110E+03  0.55196315939E+03  0.14740754526E+04  0.00000000000E+00 0. -1.
<mgrwt>
<rscale>  0 0.27444104E+04</rscale>
<asrwt>0</asrwt>
<pdfrwt beam="1">  1        2 0.29003733E+00 0.27444104E+04</pdfrwt>
<pdfrwt beam="2">  1       -2 0.15365883E+00 0.27444104E+04</pdfrwt>
<totfact> 0.19008276E+00</totfact>
</mgrwt>
</event>
<event>
 6    1  0.1568961E-005  0.1823477E+04  0.7818608E-02  0.8693914E-01
          1   -1    0    0  501    0  0.00000000000E+00  0.00000000000E+00  0.22823435980E+04  0.22823435980E+04  0.00000000000E+00 0. -1.
         -1   -1    0    0    0  501 -0.00000000000E+00 -0.00000000000E+00 -0.36421633895E+03  0.36421633895E+03  0.00000000000E+00 0.  1.
         23    2    1    2    0    0 -0.62730332345E+02 -0.23407084083E+03  0.22336951519E+04  0.22486813775E+04  0.91921992929E+02 0.  0.
         13    1    3    3    0    0  0.17004976705E+02 -0.90693277605E+02  0.97064065997E+03  0.97501678479E+03  0.00000000000E+00 0. -1.
        -13    1    3    3    0    0 -0.79735309050E+02 -0.14337756323E+03  0.12630544919E+04  0.12736645927E+04  0.00000000000E+00 0.  1.
         22    1    1    2    0    0  0.62730332345E+02  0.23407084083E+03 -0.31556789281E+03  0.39787855948E+03  0.00000000000E+00 0.  1.
<mgrwt>
<rscale>  0 0.18234767E+04</rscale>
<asrwt>0</asrwt>
<pdfrwt beam="1">  1        1 0.35112978E+00 0.18234767E+04</pdfrwt>
<pdfrwt beam="2">  1       -1 0.56033284E-01 0.18234767E+04</pdfrwt>
<totfact> 0.58097952E+00</totfact>
</mgrwt>
</event>
<event>
 6    1  0.1568961E-005  0.3445557E+04  0.7818608E-02  0.8126815E-01
          1   -1    0    0  501    0  0.00000000000E+00  0.00000000000E+00  0.41748465398E+04  0.41748465398E+04  0.00000000000E+00 0. -1.
         -1   -1    0    0    0  501 -0.00000000000E+00 -0.00000000000E+00 -0.71091624895E+03  0.71091624895E+03  0.00000000000E+00 0.  1.
         23    2    1    2    0    0  0.56259798358E+02  0.17178073787E+04  0.15907130994E+04  0.23435255847E+04  0.87844445712E+02 0.  0.
         11    1    3    3    0    0 -0.12198830824E+02  0.93342456951E+03  0.87566302510E+03  0.12799281120E+04  0.00000000000E+00 0.  1.
        -11    1    3    3    0    0  0.68458629181E+02  0.78438280916E+03  0.71505007428E+03  0.10635974727E+04  0.00000000000E+00 0. -1.
         22    1    1    2    0    0 -0.56259798358E+02 -0.17178073787E+04  0.18732171915E+04  0.25422372041E+04  0.00000000000E+00 0. -1.
<mgrwt>
<rscale>  0 0.34455573E+04</rscale>
<asrwt>0</asrwt>
<pdfrwt beam="1">  1        1 0.64228407E+00 0.34455573E+04</pdfrwt>
<pdfrwt beam="2">  1       -1 0.10937173E+00 0.34455573E+04</pdfrwt>
<totfact> 0.42195713E-02</totfact>
</mgrwt>
</event>
<event>
 6    1  0.1568961E-005  0.1893057E+04  0.7818608E-02  0.8658320E-01
          2   -1    0    0  501    0  0.00000000000E+00  0.00000000000E+00  0.95508007997E+03  0.95508007997E+03  0.00000000000E+00 0. -1.
         -2   -1    0    0    0  501 -0.00000000000E+00 -0.00000000000E+00 -0.93805370580E+03  0.93805370580E+03  0.00000000000E+00 0.  1.
         23    2    1    2    0    0  0.80474117487E+03 -0.23635059589E+03 -0.42549863776E+03  0.94482036242E+03  0.90368488916E+02 0.  0.
         13    1    3    3    0    0  0.31170108674E+03 -0.48005408924E+02 -0.17361730903E+03  0.36000702320E+03  0.00000000000E+00 0.  1.
        -13    1    3    3    0    0  0.49304008814E+03 -0.18834518697E+03 -0.25188132873E+03  0.58481333922E+03  0.00000000000E+00 0. -1.
         22    1    1    2    0    0 -0.80474117487E+03  0.23635059589E+03  0.44252501193E+03  0.94831342335E+03  0.00000000000E+00 0. -1.
<mgrwt>
<rscale>  0 0.18930572E+04</rscale>
<asrwt>0</asrwt>
<pdfrwt beam="1">  1        2 0.14693540E+00 0.18930572E+04</pdfrwt>
<pdfrwt beam="2">  1       -2 0.14431595E+00 0.18930572E+04</pdfrwt>
<totfact> 0.83749897E+00</totfact>
</mgrwt>
</event>
<event>
 6    1  0.1568961E-005  0.3672689E+04  0.7818608E-02  0.8074041E-01
         -2   -1    0    0    0  501 -0.00000000000E+00  0.00000000000E+00  0.99675001352E+03  0.99675001352E+03  0.00000000000E+00 0.  1.
          2   -1    0    0  501    0  0.00000000000E+00 -0.00000000000E+00 -0.33831571009E+04  0.33831571009E+04  0.00000000000E+00 0. -1.
         23    2    1    2    0    0 -0.83374527844E+03  0.13396307586E+04 -0.23114172765E+04  0.28002346070E+04  0.94457765130E+02 0.  0.
         11    1    3    3    0    0 -0.60069897784E+03  0.95863504634E+03 -0.17305652644E+04  0.20675290925E+04  0.00000000000E+00 0.  1.
        -11    1    3    3    0    0 -0.23304630060E+03  0.38099571230E+03 -0.58085201211E+03  0.73270551450E+03  0.00000000000E+00 0. -1.
         22    1    1    2    0    0  0.83374527844E+03 -0.13396307586E+04 -0.74989810830E+02  0.15796725074E+04  0.00000000000E+00 0.  1.
<mgrwt>
<rscale>  0 0.36726894E+04</rscale>
<asrwt>0</asrwt>
<pdfrwt beam="1">  1        2 0.52048573E+00 0.36726894E+04</pdfrwt>
<pdfrwt beam="2">  1       -2 0.15334615E+00 0.36726894E+04</pdfrwt>
<totfact> 0.22376274E-01</totfact>
</mgrwt>
</event>
<event>
 6    1  0.1568961E-005  0.1282179E+04  0.7818608E-02  0.9043818E-01
          2   -1    0    0  501    0  0.00000000000E+00  0.00000000000E+00  0.10781413581E+04  0.10781413581E+04  0.00000000000E+00 0.  1.
         -2   -1    0    0    0  501 -0.00000000000E+00 -0.00000000000E+00 -0.38120770711E+03  0.38120770711E+03  0.00000000000E+00 0. -1.
         23    2    1    2    0    0 -0.14285216725E+03  0.35714012367E+03 -0.22927728385E+03  0.45644203788E+03  0.88405041915E+02 0.  0.
         13    1    3    3    0    0 -0.12279870030E+03  0.33089132049E+03 -0.17759628805E+03  0.39510635063E+03  0.00000000000E+00 0. -1.
        -13    1    3    3    0    0 -0.20053466947E+02  0.26248803172E+02 -0.51680995799E+02  0.61335687258E+02  0.00000000000E+00 0.  1.
         22    1    1    2    0    0  0.14285216725E+03 -0.35714012367E+03  0.92621093481E+03  0.10029070273E+04  0.00000000000E+00 0.  1.
<mgrwt>
<rscale>  0 0.12821791E+04</rscale>
<asrwt>0</asrwt>
<pdfrwt beam="1">  1        2 0.16586790E+00 0.12821791E+04</pdfrwt>
<pdfrwt beam="2">  1       -2 0.58647340E-01 0.12821791E+04</pdfrwt>
<totfact> 0.59951221E+01</totfact>
</mgrwt>
</event>
<event>
 6    1  0.1568961E-005  0.2539576E+04  0.7818608E-02  0.8389021E-01
         -2   -1    0    0    0  501 -0.00000000000E+00  0.00000000000E+00  0.45625730006E+03  0.45625730006E+03  0.00000000000E+00 0.  1.
          2   -1    0    0  501    0  0.00000000000E+00 -0.00000000000E+00 -0.35338858351E+04  0.35338858351E+04  0.00000000000E+00 0. -1.
         23    2    1    2    0    0  0.12177503007E+04 -0.25299497341E+03 -0.11520839090E+04  0.16978420297E+04  0.91912855759E+02 0.  0.
         13    1    3    3    0    0  0.81913800001E+03 -0.14202573216E+03 -0.72315576555E+03  0.11018677928E+04  0.00000000000E+00 0.  1.
        -13    1    3    3    0    0  0.39861230065E+03 -0.11096924125E+03 -0.42892814348E+03  0.59597423686E+03  0.00000000000E+00 0. -1.
         22    1    1    2    0    0 -0.12177503007E+04  0.25299497341E+03 -0.19255446260E+04  0.22923011054E+04  0.00000000000E+00 0. -1.
<mgrwt>
<rscale>  0 0.25395757E+04</rscale>
<asrwt>0</asrwt>
<pdfrwt beam="1">  1        2 0.54367472E+00 0.25395757E+04</pdfrwt>
<pdfrwt beam="2">  1       -2 0.70193434E-01 0.25395757E+04</pdfrwt>
<totfact> 0.12655221E+00</totfact>
</mgrwt>
</event>
<event>
 6    1  0.1568961E-005  0.2753867E+04  0.7818608E-02  0.8317736E-01
          2   -1    0    0  501    0  0.00000000000E+00  0.00000000000E+00  0.15149352389E+04  0.15149352389E+04  0.00000000000E+00 0. -1.
         -2   -1    0    0    0  501 -0.00000000000E+00 -0.00000000000E+00 -0.12515029277E+04  0.12515029277E+04  0.00000000000E+00 0.  1.
         23    2    1    2    0    0  0.56805733515E+03 -0.55043391175E+02 -0.11253220754E+04  0.12649863168E+04  0.90120459397E+02 0.  0.
         11    1    3    3    0    0  0.13034276921E+03  0.23312260894E+01 -0.33924096238E+03  0.36342688763E+03  0.00000000000E+00 0. -1.
        -11    1    3    3    0    0  0.43771456595E+03 -0.57374617265E+02 -0.78608111306E+03  0.90155942914E+03  0.00000000000E+00 0.  1.
         22    1    1    2    0    0 -0.56805733515E+03  0.55043391175E+02  0.13887543866E+04  0.15014518498E+04  0.00000000000E+00 0. -1.
<mgrwt>
<rscale>  0 0.27538670E+04</rscale>
<asrwt>0</asrwt>
<pdfrwt beam="1">  1        2 0.23306696E+00 0.27538670E+04</pdfrwt>
<pdfrwt beam="2">  1       -2 0.19253891E+00 0.27538670E+04</pdfrwt>
<totfact> 0.16209541E+00</totfact>
</mgrwt>
</event>
<event>
 6    1  0.1568961E-005  0.1119952E+04  0.7818608E-02  0.9185960E-01
         -2   -1    0    0    0  501 -0.00000000000E+00  0.00000000000E+00  0.43908408900E+03  0.43908408900E+03  0.00000000000E+00 0. -1.
          2   -1    0    0  501    0  0.00000000000E+00 -0.00000000000E+00 -0.71415326282E+03  0.71415326282E+03  0.00000000000E+00 0.  1.
         23    2    1    2    0    0 -0.98102942565E+02  0.50509595111E+03 -0.35513221218E+03  0.63251074671E+03  0.95941906407E+02 0.  0.
         11    1    3    3    0    0 -0.65401048363E+02  0.27789616130E+03 -0.14022110671E+03  0.31806529575E+03  0.00000000000E+00 0.  1.
        -11    1    3    3    0    0 -0.32701894202E+02  0.22719978980E+03 -0.21491110547E+03  0.31444545096E+03  0.00000000000E+00 0. -1.
         22    1    1    2    0    0  0.98102942565E+02 -0.50509595111E+03  0.80063038360E+02  0.52072660512E+03  0.00000000000E+00 0. -1.
<mgrwt>
<rscale>  0 0.11199524E+04</rscale>
<asrwt>0</asrwt>
<pdfrwt beam="1">  1        2 0.10986973E+00 0.11199524E+04</pdfrwt>
<pdfrwt beam="2">  1       -2 0.67551398E-01 0.11199524E+04</pdfrwt>
<totfact> 0.79613754E+01</totfact>
</mgrwt>
</event>
<event>
 6    1  0.1568961E-005  0.1960521E+04  0.7818608E-02  0.8625304E-01
         -1   -1    0    0    0  501 -0.00000000000E+00  0.00000000000E+00  0.10613086742E+04  0.10613086742E+04  0.00000000000E+00 0.  1.
          1   -1    0    0  501    0  0.00000000000E+00 -0.00000000000E+00 -0.90540201329E+03  0.90540201329E+03  0.00000000000E+00 0. -1.
         23    2    1    2    0    0 -0.53690132010E+03  0.30068566813E+03  0.84041554196E+03  0.10462611741E+04  0.98434052860E+02 0.  0.
         11    1    3    3    0    0 -0.31421541588E+03  0.18177025397E+03  0.41295467896E+03  0.54982117063E+03  0.00000000000E+00 0.  1.
        -11    1    3    3    0    0 -0.22268590422E+03  0.11891541415E+03  0.42746086301E+03  0.49644000349E+03  0.00000000000E+00 0. -1.
         22    1    1    2    0    0  0.53690132010E+03 -0.30068566813E+03 -0.68450888102E+03  0.92044951341E+03  0.00000000000E+00 0. -1.
<mgrwt>
<rscale>  0 0.19605214E+04</rscale>
<asrwt>0</asrwt>
<pdfrwt beam="1">  1        1 0.13929262E+00 0.19605214E+04</pdfrwt>
<pdfrwt beam="2">  1       -1 0.16327826E+00 0.19605214E+04</pdfrwt>
<totfact> 0.46283971E+00</totfact>
</mgrwt>
</event>
<event>
 6    1  0.1568961E-005  0.3098666E+04  0.7818608E-02  0.8216104E-01
         -1   -1    0    0    0  501 -0.00000000000E+00  0.00000000000E+00  0.12782017278E+04  0.12782017278E+04  0.00000000000E+00 0.  1.
          1   -1    0    0  501    0  0.00000000000E+00 -0.00000000000E+00 -0.18779763886E+04  0.18779763886E+04  0.00000000000E+00 0. -1.
         23    2    1    2    0    0  0.75867714433E+03 -0.86044569629E+03 -0.13588747256E+04  0.17806088838E+04  0.89831350254E+02 0.  0.
         11    1    3    3    0    0  0.60421635417E+03 -0.65930794785E+03 -0.11080806460E+04  0.14239406908E+04  0.00000000000E+00 0.  1.
        -11    1    3    3    0    0  0.15446079016E+03 -0.20113774844E+03 -0.25079407957E+03  0.35666819299E+03  0.00000000000E+00 0. -1.
         22    1    1    2    0    0 -0.75867714433E+03  0.86044569629E+03  0.75910006469E+03  0.13755692326E+04  0.00000000000E+00 0.  1.
<mgrwt>
<rscale>  0 0.30986659E+04</rscale>
<asrwt>0</asrwt>
<pdfrwt beam="1">  1        1 0.28891944E+00 0.30986659E+04</pdfrwt>
<pdfrwt beam="2">  1       -1 0.19664642E+00 0.30986659E+04</pdfrwt>
<totfact> 0.48321652E-01</totfact>
</mgrwt>
</event>
<event>
 6    1  0.1568961E-005  0.4667817E+04  0.7818608E-02  0.7881898E-01
          1   -1    0    0  501    0  0.00000000000E+00  0.00000000000E+00  0.34713592799E+04  0.34713592799E+04  0.00000000000E+00 0. -1.
         -1   -1    0    0    0  501 -0.00000000000E+00 -0.00000000000E+00 -0.15691630772E+04  0.15691630772E+04  0.00000000000E+00 0.  1.
         23    2    1    2    0    0  0.87219623676E+03  0.18724236043E+04  0.21225596101E+04  0.29632028197E+04  0.92818226275E+02 0.  0.
         11    1    3    3    0    0  0.84681671449E+03  0.17711195812E+04  0.20215317264E+04  0.28178987987E+04  0.00000000000E+00 0.  1.
        -11    1    3    3    0    0  0.25379522269E+02  0.10130402308E+03  0.10102788369E+03  0.14530402103E+03  0.00000000000E+00 0. -1.
         22    1    1    2    0    0 -0.87219623676E+03 -0.18724236043E+04 -0.22036340737E+03  0.20773195374E+04  0.00000000000E+00 0.  1.
<mgrwt>
<rscale>  0 0.46678170E+04</rscale>
<asrwt>0</asrwt>
<pdfrwt beam="1">  1        1 0.53405527E+00 0.46678170E+04</pdfrwt>
<pdfrwt beam="2">  1       -1 0.24140970E+00 0.46678170E+04</pdfrwt>
<totfact> 0.15465851E-02</totfact>
</mgrwt>
</event>
<event>
 6    1  0.1568961E-005  0.2232759E+03  0.7818608E-02  0.1131464E+00
         -3   -1    0    0    0  501 -0.00000000000E+00  0.00000000000E+00  0.51384231279E+03  0.51384231279E+03  0.00000000000E+00 0.  1.
          3   -1    0    0  501    0  0.00000000000E+00 -0.00000000000E+00 -0.24254583264E+02  0.24254583264E+02  0.00000000000E+00 0. -1.
         23    2    1    2    0    0  0.66042680799E+02 -0.61978595820E+02  0.33930344555E+03  0.36263080806E+03  0.90395203202E+02 0.  0.
         11    1    3    3    0    0  0.30555155103E+02 -0.81732553173E+02  0.22512592951E+03  0.24144463525E+03  0.00000000000E+00 0.  1.
        -11    1    3    3    0    0  0.35487525696E+02  0.19753957352E+02  0.11417751604E+03  0.12118617281E+03  0.00000000000E+00 0. -1.
         22    1    1    2    0    0 -0.66042680799E+02  0.61978595820E+02  0.15028428398E+03  0.17546608800E+03  0.00000000000E+00 0.  1.
<mgrwt>
<rscale>  0 0.22327589E+03</rscale>
<asrwt>0</asrwt>
<pdfrwt beam="1">  1        3 0.37314747E-02 0.22327589E+03</pdfrwt>
<pdfrwt beam="2">  1       -3 0.79052655E-01 0.22327589E+03</pdfrwt>
<totfact> 0.13757232E+03</totfact>
</mgrwt>
</event>
<event>
 6    1  0.1568961E-005  0.2400795E+04  0.7818608E-02  0.8439206E-01
          2   -1    0    0  501    0  0.00000000000E+00  0.00000000000E+00  0.14420424627E+04  0.14420424627E+04  0.00000000000E+00 0. -1.
         -2   -1    0    0    0  501 -0.00000000000E+00 -0.00000000000E+00 -0.99924501921E+03  0.99924501921E+03  0.00000000000E+00 0.  1.
         23    2    1    2    0    0 -0.10675594745E+04  0.40097653871E+03  0.59716550000E+03  0.12905073495E+04  0.91308096516E+02 0.  0.
         13    1    3    3    0    0 -0.41777557117E+03  0.15463566764E+03  0.18348629611E+03  0.48178401637E+03  0.00000000000E+00 0.  1.
        -13    1    3    3    0    0 -0.64978390338E+03  0.24634087107E+03  0.41367920389E+03  0.80872333315E+03  0.00000000000E+00 0. -1.
         22    1    1    2    0    0  0.10675594745E+04 -0.40097653871E+03 -0.15436805648E+03  0.11507801324E+04  0.00000000000E+00 0.  1.
<mgrwt>
<rscale>  0 0.24007947E+04</rscale>
<asrwt>0</asrwt>
<pdfrwt beam="1">  1        2 0.22185269E+00 0.24007947E+04</pdfrwt>
<pdfrwt beam="2">  1       -2 0.15373000E+00 0.24007947E+04</pdfrwt>
<totfact> 0.34556860E+00</totfact>
</mgrwt>
</event>
<event>
 6    1  0.1568961E-005  0.2466878E+04  0.7818608E-02  0.8414881E-01
         -1   -1    0    0    0  501 -0.00000000000E+00  0.00000000000E+00  0.13889307839E+04  0.13889307839E+04  0.00000000000E+00 0.  1.
          1   -1    0    0  501    0  0.00000000000E+00 -0.00000000000E+00 -0.10953546263E+04  0.10953546263E+04  0.00000000000E+00 0. -1.
         23    2    1    2    0    0  0.46728765656E+03  0.11289148085E+04 -0.17526455063E+01  0.12272947576E+04  0.11594374274E+03 0.  0.
         13    1    3    3    0    0  0.99753200836E+02  0.20280521131E+03 -0.43013976750E+02  0.23006707067E+03  0.00000000000E+00 0. -1.
        -13    1    3    3    0    0  0.36753445573E+03  0.92610959716E+03  0.41261331244E+02  0.99722768692E+03  0.00000000000E+00 0.  1.
         22    1    1    2    0    0 -0.46728765656E+03 -0.11289148085E+04  0.29532880305E+03  0.12569906526E+04  0.00000000000E+00 0.  1.
<mgrwt>
<rscale>  0 0.24668780E+04</rscale>
<asrwt>0</asrwt>
<pdfrwt beam="1">  1        1 0.16851610E+00 0.24668780E+04</pdfrwt>
<pdfrwt beam="2">  1       -1 0.21368166E+00 0.24668780E+04</pdfrwt>
<totfact> 0.13821976E+00</totfact>
</mgrwt>
</event>
<event>
 6    1  0.1568961E-005  0.1446001E+04  0.7818608E-02  0.8921177E-01
          2   -1    0    0  501    0  0.00000000000E+00  0.00000000000E+00  0.88927950629E+03  0.88927950629E+03  0.00000000000E+00 0.  1.
         -2   -1    0    0    0  501 -0.00000000000E+00 -0.00000000000E+00 -0.58781301104E+03  0.58781301104E+03  0.00000000000E+00 0. -1.
         23    2    1    2    0    0  0.26905501477E+03  0.36801839906E+03 -0.41795455235E+03  0.62539140383E+03  0.92737571297E+02 0.  0.
         11    1    3    3    0    0  0.24986626022E+02  0.38767438235E+02 -0.87519387862E+02  0.98928706648E+02  0.00000000000E+00 0. -1.
        -11    1    3    3    0    0  0.24406838875E+03  0.32925096083E+03 -0.33043516449E+03  0.52646269718E+03  0.00000000000E+00 0.  1.
         22    1    1    2    0    0 -0.26905501477E+03 -0.36801839906E+03  0.71942104759E+03  0.85170111350E+03  0.00000000000E+00 0.  1.
<mgrwt>
<rscale>  0 0.14460015E+04</rscale>
<asrwt>0</asrwt>
<pdfrwt beam="1">  1        2 0.13681223E+00 0.14460015E+04</pdfrwt>
<pdfrwt beam="2">  1       -2 0.90432772E-01 0.14460015E+04</pdfrwt>
<totfact> 0.30240012E+01</totfact>
</mgrwt>
</event>
<event>
 6    1  0.1568961E-005  0.3055561E+04  0.7818608E-02  0.8228041E-01
          1   -1    0    0  501    0  0.00000000000E+00  0.00000000000E+00  0.25941370610E+04  0.25941370610E+04  0.00000000000E+00 0. -1.
         -1   -1    0    0    0  501 -0.00000000000E+00 -0.00000000000E+00 -0.89976489064E+03  0.89976489064E+03  0.00000000000E+00 0.  1.
         23    2    1    2    0    0 -0.99006412202E+03 -0.10493013041E+04  0.14181527562E+04  0.20250393449E+04  0.91470848128E+02 0.  0.
         11    1    3    3    0    0 -0.20993184657E+03 -0.20218028674E+03  0.24023631373E+03  0.37770588423E+03  0.00000000000E+00 0. -1.
        -11    1    3    3    0    0 -0.78013227546E+03 -0.84712101737E+03  0.11779164425E+04  0.16473334607E+04  0.00000000000E+00 0.  1.
         22    1    1    2    0    0  0.99006412202E+03  0.10493013041E+04  0.27621941410E+03  0.14688626067E+04  0.00000000000E+00 0. -1.
<mgrwt>
<rscale>  0 0.30555611E+04</rscale>
<asrwt>0</asrwt>
<pdfrwt beam="1">  1        1 0.39909801E+00 0.30555611E+04</pdfrwt>
<pdfrwt beam="2">  1       -1 0.13842537E+00 0.30555611E+04</pdfrwt>
<totfact> 0.42576116E-01</totfact>
</mgrwt>
</event>
<event>
 6    1  0.1568961E-005  0.6737421E+04  0.7818608E-02  0.7605138E-01
         -1   -1    0    0    0  501 -0.00000000000E+00  0.00000000000E+00  0.29400552056E+04  0.29400552056E+04  0.00000000000E+00 0.  1.
          1   -1    0    0  501    0  0.00000000000E+00 -0.00000000000E+00 -0.38598627002E+04  0.38598627002E+04  0.00000000000E+00 0. -1.
         23    2    1    2    0    0 -0.48987679560E+03  0.21619551113E+02 -0.38231035404E+04  0.38555037690E+04  0.91334286474E+02 0.  0.
         13    1    3    3    0    0 -0.28161785457E+03  0.29228515304E+02 -0.25177718534E+04  0.25336412587E+04  0.00000000000E+00 0.  1.
        -13    1    3    3    0    0 -0.20825894103E+03 -0.76089641910E+01 -0.13053316871E+04  0.13218625103E+04  0.00000000000E+00 0. -1.
         22    1    1    2    0    0  0.48987679560E+03 -0.21619551113E+02  0.29032960458E+04  0.29444141369E+04  0.00000000000E+00 0.  1.
<mgrwt>
<rscale>  0 0.67374207E+04</rscale>
<asrwt>0</asrwt>
<pdfrwt beam="1">  1        1 0.59382503E+00 0.67374207E+04</pdfrwt>
<pdfrwt beam="2">  1       -1 0.45231619E+00 0.67374207E+04</pdfrwt>
<totfact> 0.25063564E-04</totfact>
</mgrwt>
</event>
<event>
 6    1  0.1568961E-005  0.1173778E+04  0.7818608E-02  0.9136123E-01
         -2   -1    0    0    0  501 -0.00000000000E+00  0.00000000000E+00  0.29328128937E+03  0.29328128937E+03  0.00000000000E+00 0. -1.
          2   -1    0    0  501    0  0.00000000000E+00 -0.00000000000E+00 -0.11744314641E+04  0.11744314641E+04  0.00000000000E+00 0.  1.
         23    2    1    2    0    0  0.53420391143E+03  0.17745817798E+02 -0.15065164140E+03  0.56255153015E+03  0.89886450508E+02 0.  0.
         13    1    3    3    0    0  0.34840797600E+03 -0.67728569496E+01 -0.57200935599E+02  0.35313727694E+03  0.00000000000E+00 0.  1.
        -13    1    3    3    0    0  0.18579593543E+03  0.24518674747E+02 -0.93450705803E+02  0.20941425321E+03  0.00000000000E+00 0. -1.
         22    1    1    2    0    0 -0.53420391143E+03 -0.17745817798E+02 -0.73049853337E+03  0.90516122336E+03  0.00000000000E+00 0. -1.
<mgrwt>
<rscale>  0 0.11737781E+04</rscale>
<asrwt>0</asrwt>
<pdfrwt beam="1">  1        2 0.18068176E+00 0.11737781E+04</pdfrwt>
<pdfrwt beam="2">  1       -2 0.45120199E-01 0.11737781E+04</pdfrwt>
<totfact> 0.90303833E+01</totfact>
</mgrwt>
</event>
<event>
 6    1  0.1568961E-005  0.1649555E+04  0.7818608E-02  0.8790670E-01
         -1   -1    0    0    0  501 -0.00000000000E+00  0.00000000000E+00  0.50866917461E+03  0.50866917461E+03  0.00000000000E+00 0.  1.
          1   -1    0    0  501    0  0.00000000000E+00 -0.00000000000E+00 -0.13373293975E+04  0.13373293975E+04  0.00000000000E+00 0. -1.
         23    2    1    2    0    0 -0.32711274142E+03 -0.42955048942E+03 -0.11095540573E+04  0.12373790565E+04  0.92088842467E+02 0.  0.
         13    1    3    3    0    0 -0.60794751183E+02 -0.14182382926E+03 -0.27539223434E+03  0.31567528103E+03  0.00000000000E+00 0. -1.
        -13    1    3    3    0    0 -0.26631799023E+03 -0.28772666016E+03 -0.83416182292E+03  0.92170377546E+03  0.00000000000E+00 0.  1.
         22    1    1    2    0    0  0.32711274142E+03  0.42955048942E+03  0.28089383439E+03  0.60861951559E+03  0.00000000000E+00 0.  1.
<mgrwt>
<rscale>  0 0.16495554E+04</rscale>
<asrwt>0</asrwt>
<pdfrwt beam="1">  1        1 0.20574298E+00 0.16495554E+04</pdfrwt>
<pdfrwt beam="2">  1       -1 0.78256796E-01 0.16495554E+04</pdfrwt>
<totfact> 0.13290832E+01</totfact>
</mgrwt>
</event>
<event>
 6    1  0.1568961E-005  0.2545239E+04  0.7818608E-02  0.8387044E-01
          1   -1    0    0  501    0  0.00000000000E+00  0.00000000000E+00  0.26435064880E+04  0.26435064880E+04  0.00000000000E+00 0. -1.
         -1   -1    0    0    0  501 -0.00000000000E+00 -0.00000000000E+00 -0.61265614351E+03  0.61265614351E+03  0.00000000000E+00 0.  1.
         23    2    1    2    0    0  0.30871908833E+03  0.12244598504E+04  0.12009393471E+04  0.17450829962E+04  0.91923595732E+02 0.  0.
         13    1    3    3    0    0  0.69182687340E+02  0.42142569666E+03  0.43942296849E+03  0.61276292909E+03  0.00000000000E+00 0. -1.
        -13    1    3    3    0    0  0.23953640099E+03  0.80303415372E+03  0.76151637863E+03  0.11323200671E+04  0.00000000000E+00 0.  1.
         22    1    1    2    0    0 -0.30871908833E+03 -0.12244598504E+04  0.82991099734E+03  0.15110796353E+04  0.00000000000E+00 0. -1.
<mgrwt>
<rscale>  0 0.25452391E+04</rscale>
<asrwt>0</asrwt>
<pdfrwt beam="1">  1        1 0.40669330E+00 0.25452391E+04</pdfrwt>
<pdfrwt beam="2">  1       -1 0.94254792E-01 0.25452391E+04</pdfrwt>
<totfact> 0.10369877E+00</totfact>
</mgrwt>
</event>
<event>
 6    1  0.1568961E-005  0.7162182E+03  0.7818608E-02  0.9689892E-01
         -2   -1    0    0    0  501 -0.00000000000E+00  0.00000000000E+00  0.17847676444E+03  0.17847676444E+03  0.00000000000E+00 0. -1.
          2   -1    0    0  501    0  0.00000000000E+00 -0.00000000000E+00 -0.71853691056E+03  0.71853691056E+03  0.00000000000E+00 0.  1.
         23    2    1    2    0    0  0.13163276917E+03  0.23663478184E+03  0.78424246683E+01  0.28585049468E+03  0.91245798723E+02 0.  0.
         13    1    3    3    0    0  0.61216340546E+02  0.16213097407E+03  0.41037136486E+02  0.17809531065E+03  0.00000000000E+00 0. -1.
        -13    1    3    3    0    0  0.70416428622E+02  0.74503807768E+02 -0.33194711817E+02  0.10775518403E+03  0.00000000000E+00 0.  1.
         22    1    1    2    0    0 -0.13163276917E+03 -0.23663478184E+03 -0.54790257079E+03  0.61116318032E+03  0.00000000000E+00 0.  1.
<mgrwt>
<rscale>  0 0.71621824E+03</rscale>
<asrwt>0</asrwt>
<pdfrwt beam="1">  1        2 0.11054414E+00 0.71621824E+03</pdfrwt>
<pdfrwt beam="2">  1       -2 0.27457964E-01 0.71621824E+03</pdfrwt>
<totfact> 0.48150684E+02</totfact>
</mgrwt>
</event>
<event>
 6    1  0.1568961E-005  0.2114516E+04  0.7818608E-02  0.8554876E-01
         -4   -1    0    0    0  501 -0.00000000000E+00  0.00000000000E+00  0.18357991032E+04  0.18357991032E+04  0.00000000000E+00 0.  1.
          4   -1    0    0  501    0  0.00000000000E+00 -0.00000000000E+00 -0.60888726062E+03  0.60888726062E+03  0.00000000000E+00 0. -1.
         23    2    1    2    0    0 -0.20964175655E+03  0.99078734263E+03  0.95755265288E+03  0.13967533519E+04  0.91671252123E+02 0.  0.
         11    1    3    3    0    0 -0.15411751021E+03  0.78662732886E+03  0.80407746919E+03  0.11353745364E+04  0.00000000000E+00 0. -1.
        -11    1    3    3    0    0 -0.55524246342E+02  0.20416001377E+03  0.15347518369E+03  0.26137881545E+03  0.00000000000E+00 0.  1.
         22    1    1    2    0    0  0.20964175655E+03 -0.99078734263E+03  0.26935918966E+03  0.10479330119E+04  0.00000000000E+00 0.  1.
<mgrwt>
<rscale>  0 0.21145162E+04</rscale>
<asrwt>0</asrwt>
<pdfrwt beam="1">  1        4 0.93674964E-01 0.21145162E+04</pdfrwt>
<pdfrwt beam="2">  1       -4 0.28243063E+00 0.21145162E+04</pdfrwt>
<totfact> 0.70533720E-02</totfact>
</mgrwt>
</event>
<event>
 6    1  0.1568961E-005  0.1934646E+04  0.7818608E-02  0.8637800E-01
          2   -1    0    0  501    0  0.00000000000E+00  0.00000000000E+00  0.93672870067E+03  0.93672870067E+03  0.00000000000E+00 0. -1.
         -2   -1    0    0    0  501 -0.00000000000E+00 -0.00000000000E+00 -0.99891680093E+03  0.99891680093E+03  0.00000000000E+00 0.  1.
         23    2    1    2    0    0  0.68354397914E+03  0.53306428254E+03  0.39362169799E+03  0.95628220184E+03  0.90264653570E+02 0.  0.
         13    1    3    3    0    0  0.98230174360E+02  0.90620366275E+02  0.95724746679E+02  0.16439113439E+03  0.00000000000E+00 0. -1.
        -13    1    3    3    0    0  0.58531380478E+03  0.44244391627E+03  0.29789695131E+03  0.79189106745E+03  0.00000000000E+00 0.  1.
         22    1    1    2    0    0 -0.68354397914E+03 -0.53306428254E+03 -0.45580979825E+03  0.97936329977E+03  0.00000000000E+00 0.  1.
<mgrwt>
<rscale>  0 0.19346463E+04</rscale>
<asrwt>0</asrwt>
<pdfrwt beam="1">  1        2 0.14411211E+00 0.19346463E+04</pdfrwt>
<pdfrwt beam="2">  1       -2 0.15367951E+00 0.19346463E+04</pdfrwt>
<totfact> 0.72664678E+00</totfact>
</mgrwt>
</event>
<event>
 6    1  0.1568961E-005  0.3187721E+04  0.7818608E-02  0.8192068E-01
         -1   -1    0    0    0  501 -0.00000000000E+00  0.00000000000E+00  0.70217565841E+03  0.70217565841E+03  0.00000000000E+00 0.  1.
          1   -1    0    0  501    0  0.00000000000E+00 -0.00000000000E+00 -0.36178853396E+04  0.36178853396E+04  0.00000000000E+00 0. -1.
         23    2    1    2    0    0  0.54371482705E+03 -0.97689972201E+03 -0.29960696524E+04  0.31991610894E+04  0.90771328124E+02 0.  0.
         11    1    3    3    0    0  0.17612386681E+03 -0.30015273204E+03 -0.81828742790E+03  0.88921628059E+03  0.00000000000E+00 0. -1.
        -11    1    3    3    0    0  0.36759096024E+03 -0.67674698998E+03 -0.21777822245E+04  0.23099448088E+04  0.00000000000E+00 0.  1.
         22    1    1    2    0    0 -0.54371482705E+03  0.97689972201E+03  0.80359971250E+02  0.11208999086E+04  0.00000000000E+00 0.  1.
<mgrwt>
<rscale>  0 0.31877208E+04</rscale>
<asrwt>0</asrwt>
<pdfrwt beam="1">  1        1 0.55659775E+00 0.31877208E+04</pdfrwt>
<pdfrwt beam="2">  1       -1 0.10802702E+00 0.31877208E+04</pdfrwt>
<totfact> 0.13405970E-01</totfact>
</mgrwt>
</event>
<event>
 6    1  0.1568961E-005  0.4047455E+04  0.7818608E-02  0.7995041E-01
          2   -1    0    0  501    0  0.00000000000E+00  0.00000000000E+00  0.29696181008E+04  0.29696181008E+04  0.00000000000E+00 0. -1.
         -2   -1    0    0    0  501 -0.00000000000E+00 -0.00000000000E+00 -0.13791244390E+04  0.13791244390E+04  0.00000000000E+00 0.  1.
         23    2    1    2    0    0  0.15634473200E+04  0.12785433108E+04  0.91499953804E+03  0.22191104516E+04  0.90479399536E+02 0.  0.
         13    1    3    3    0    0  0.94697083547E+03  0.80385769180E+03  0.52109872650E+03  0.13470281492E+04  0.00000000000E+00 0.  1.
        -13    1    3    3    0    0  0.61647648453E+03  0.47468561901E+03  0.39390081154E+03  0.87208230243E+03  0.00000000000E+00 0. -1.
         22    1    1    2    0    0 -0.15634473200E+04 -0.12785433108E+04  0.67549412369E+03  0.21296320882E+04  0.00000000000E+00 0. -1.
<mgrwt>
<rscale>  0 0.40474550E+04</rscale>
<asrwt>0</asrwt>
<pdfrwt beam="1">  1        2 0.45686432E+00 0.40474550E+04</pdfrwt>
<pdfrwt beam="2">  1       -2 0.21217299E+00 0.40474550E+04</pdfrwt>
<totfact> 0.15842295E-01</totfact>
</mgrwt>
</event>
<event>
 6    1  0.1568961E-005  0.9867938E+03  0.7818608E-02  0.9323149E-01
          1   -1    0    0  501    0  0.00000000000E+00  0.00000000000E+00  0.64108216830E+03  0.64108216830E+03  0.00000000000E+00 0. -1.
         -1   -1    0    0    0  501 -0.00000000000E+00 -0.00000000000E+00 -0.37973370737E+03  0.37973370737E+03  0.00000000000E+00 0.  1.
         23    2    1    2    0    0 -0.20828443651E+02  0.42456960245E+03 -0.11863892253E+03  0.45065486072E+03  0.91221917121E+02 0.  0.
         11    1    3    3    0    0  0.29052309411E+02  0.26621816941E+03 -0.87554901367E+02  0.28174813427E+03  0.00000000000E+00 0. -1.
        -11    1    3    3    0    0 -0.49880753063E+02  0.15835143303E+03 -0.31084021163E+02  0.16890672645E+03  0.00000000000E+00 0.  1.
         22    1    1    2    0    0  0.20828443651E+02 -0.42456960245E+03  0.37998738345E+03  0.57016101495E+03  0.00000000000E+00 0. -1.
<mgrwt>
<rscale>  0 0.98679382E+03</rscale>
<asrwt>0</asrwt>
<pdfrwt beam="1">  1        1 0.98628026E-01 0.98679382E+03</pdfrwt>
<pdfrwt beam="2">  1       -1 0.58420570E-01 0.98679382E+03</pdfrwt>
<totfact> 0.92615382E+01</totfact>
</mgrwt>
</event>
<event>
 6    1  0.1568961E-005  0.2639651E+04  0.7818608E-02  0.8354856E-01
          1   -1    0    0  501    0  0.00000000000E+00  0.00000000000E+00  0.21072207536E+04  0.21072207536E+04  0.00000000000E+00 0. -1.
         -1   -1    0    0    0  501 -0.00000000000E+00 -0.00000000000E+00 -0.82665282383E+03  0.82665282383E+03  0.00000000000E+00 0.  1.
         23    2    1    2    0    0  0.41351475931E+03  0.10628570029E+04  0.13759918054E+04  0.17894238491E+04  0.89581238790E+02 0.  0.
         11    1    3    3    0    0  0.16694220309E+03  0.31543255900E+03  0.42189084149E+03  0.55259323248E+03  0.00000000000E+00 0. -1.
        -11    1    3    3    0    0  0.24657255621E+03  0.74742444390E+03  0.95410096393E+03  0.12368306166E+04  0.00000000000E+00 0.  1.
         22    1    1    2    0    0 -0.41351475931E+03 -0.10628570029E+04 -0.95423875606E+02  0.11444497284E+04  0.00000000000E+00 0.  1.
<mgrwt>
<rscale>  0 0.26396515E+04</rscale>
<asrwt>0</asrwt>
<pdfrwt beam="1">  1        1 0.32418781E+00 0.26396515E+04</pdfrwt>
<pdfrwt beam="2">  1       -1 0.12717736E+00 0.26396515E+04</pdfrwt>
<totfact> 0.11851515E+00</totfact>
</mgrwt>
</event>
<event>
 6    1  0.1568961E-005  0.4888315E+04  0.7818608E-02  0.7845970E-01
          1   -1    0    0  501    0  0.00000000000E+00  0.00000000000E+00  0.30971596273E+04  0.30971596273E+04  0.00000000000E+00 0. -1.
         -1   -1    0    0    0  501 -0.00000000000E+00 -0.00000000000E+00 -0.19288340956E+04  0.19288340956E+04  0.00000000000E+00 0.  1.
         23    2    1    2    0    0  0.14742783549E+04  0.10886764989E+03 -0.14159230291E+04  0.20487988255E+04  0.85963770347E+02 0.  0.
         11    1    3    3    0    0  0.86333638639E+03  0.22665715524E+02 -0.84083459739E+03  0.12053490245E+04  0.00000000000E+00 0. -1.
        -11    1    3    3    0    0  0.61094196851E+03  0.86201934364E+02 -0.57508843175E+03  0.84344980095E+03  0.00000000000E+00 0.  1.
         22    1    1    2    0    0 -0.14742783549E+04 -0.10886764989E+03  0.25842485609E+04  0.29771948974E+04  0.00000000000E+00 0. -1.
<mgrwt>
<rscale>  0 0.48883155E+04</rscale>
<asrwt>0</asrwt>
<pdfrwt beam="1">  1        1 0.47648610E+00 0.48883155E+04</pdfrwt>
<pdfrwt beam="2">  1       -1 0.29674371E+00 0.48883155E+04</pdfrwt>
<totfact> 0.12802511E-02</totfact>
</mgrwt>
</event>
<event>
 6    1  0.1568961E-005  0.2542858E+04  0.7818608E-02  0.8387874E-01
          2   -1    0    0  501    0  0.00000000000E+00  0.00000000000E+00  0.24533391267E+04  0.24533391267E+04  0.00000000000E+00 0. -1.
         -2   -1    0    0    0  501 -0.00000000000E+00 -0.00000000000E+00 -0.65891101757E+03  0.65891101757E+03  0.00000000000E+00 0.  1.
         23    2    1    2    0    0 -0.13340162056E+03 -0.12598700285E+04  0.79416523294E+03  0.14980648071E+04  0.91821936421E+02 0.  0.
         11    1    3    3    0    0 -0.56825101272E+02 -0.75985268670E+03  0.52221012554E+03  0.92374705024E+03  0.00000000000E+00 0. -1.
        -11    1    3    3    0    0 -0.76576519284E+02 -0.50001734184E+03  0.27195510740E+03  0.57431775690E+03  0.00000000000E+00 0.  1.
         22    1    1    2    0    0  0.13340162056E+03  0.12598700285E+04  0.10002628762E+04  0.16141853372E+04  0.00000000000E+00 0.  1.
<mgrwt>
<rscale>  0 0.25428584E+04</rscale>
<asrwt>0</asrwt>
<pdfrwt beam="1">  1        2 0.37743678E+00 0.25428584E+04</pdfrwt>
<pdfrwt beam="2">  1       -2 0.10137093E+00 0.25428584E+04</pdfrwt>
<totfact> 0.26321512E+00</totfact>
</mgrwt>
</event>
<event>
 6    1  0.1568961E-005  0.1599449E+04  0.7818608E-02  0.8820887E-01
          1   -1    0    0  501    0  0.00000000000E+00  0.00000000000E+00  0.22720062344E+04  0.22720062344E+04  0.00000000000E+00 0. -1.
         -1   -1    0    0    0  501 -0.00000000000E+00 -0.00000000000E+00 -0.28149525646E+03  0.28149525646E+03  0.00000000000E+00 0.  1.
         23    2    1    2    0    0  0.58560719544E+03  0.28194872350E+03  0.17350058026E+04  0.18551364254E+04  0.94101815681E+02 0.  0.
         13    1    3    3    0    0  0.37639235221E+03  0.14351008568E+03  0.98071383907E+03  0.10602197799E+04  0.00000000000E+00 0. -1.
        -13    1    3    3    0    0  0.20921484323E+03  0.13843863782E+03  0.75429196353E+03  0.79491664551E+03  0.00000000000E+00 0.  1.
         22    1    1    2    0    0 -0.58560719544E+03 -0.28194872350E+03  0.25550517533E+03  0.69836506546E+03  0.00000000000E+00 0.  1.
<mgrwt>
<rscale>  0 0.15994486E+04</rscale>
<asrwt>0</asrwt>
<pdfrwt beam="1">  1        1 0.34953941E+00 0.15994486E+04</pdfrwt>
<pdfrwt beam="2">  1       -1 0.43306964E-01 0.15994486E+04</pdfrwt>
<totfact> 0.98299159E+00</totfact>
</mgrwt>
</event>
<event>
 6    1  0.1568961E-005  0.2341653E+04  0.7818608E-02  0.8461677E-01
         -1   -1    0    0    0  501 -0.00000000000E+00  0.00000000000E+00  0.61276194204E+03  0.61276194204E+03  0.00000000000E+00 0.  1.
          1   -1    0    0  501    0  0.00000000000E+00 -0.00000000000E+00 -0.22371411170E+04  0.22371411170E+04  0.00000000000E+00 0. -1.
         23    2    1    2    0    0  0.13448446211E+03  0.98248324206E+03 -0.15668712343E+04  0.18565921536E+04  0.92138854879E+02 0.  0.
         13    1    3    3    0    0  0.21655803016E+02  0.39906916379E+03 -0.68887240483E+03  0.79641092498E+03  0.00000000000E+00 0.  1.
        -13    1    3    3    0    0  0.11282865909E+03  0.58341407827E+03 -0.87799882947E+03  0.10601812287E+04  0.00000000000E+00 0. -1.
         22    1    1    2    0    0 -0.13448446211E+03 -0.98248324206E+03 -0.57507940628E+02  0.99331090537E+03  0.00000000000E+00 0.  1.
<mgrwt>
<rscale>  0 0.23416532E+04</rscale>
<asrwt>0</asrwt>
<pdfrwt beam="1">  1        1 0.34417555E+00 0.23416532E+04</pdfrwt>
<pdfrwt beam="2">  1       -1 0.94271070E-01 0.23416532E+04</pdfrwt>
<totfact> 0.20158866E+00</totfact>
</mgrwt>
</event>
<event>
 6    1  0.1568961E-005  0.2539088E+04  0.7818608E-02  0.8389191E-01
         -2   -1    0    0    0  501 -0.00000000000E+00  0.00000000000E+00  0.10370145332E+04  0.10370145332E+04  0.00000000000E+00 0.  1.
          2   -1    0    0  501    0  0.00000000000E+00 -0.00000000000E+00 -0.15542132062E+04  0.15542132062E+04  0.00000000000E+00 0. -1.
         23    2    1    2    0    0 -0.62820846743E+03  0.72789313947E+02 -0.13804754649E+04  0.15210917751E+04  0.89797085214E+02 0.  0.
         11    1    3    3    0    0 -0.87823334594E+02  0.40581524524E+02 -0.23521010111E+03  0.25432968741E+03  0.00000000000E+00 0.  1.
        -11    1    3    3    0    0 -0.54038513284E+03  0.32207789423E+02 -0.11452653637E+04  0.12667620877E+04  0.00000000000E+00 0. -1.
         22    1    1    2    0    0  0.62820846743E+03 -0.72789313947E+02  0.86327679187E+03  0.10701359643E+04  0.00000000000E+00 0.  1.
<mgrwt>
<rscale>  0 0.25390878E+04</rscale>
<asrwt>0</asrwt>
<pdfrwt beam="1">  1        2 0.23910972E+00 0.25390878E+04</pdfrwt>
<pdfrwt beam="2">  1       -2 0.15954070E+00 0.25390878E+04</pdfrwt>
<totfact> 0.26707456E+00</totfact>
</mgrwt>
</event>
<event>
 6    1  0.1568961E-005  0.2011900E+04  0.7818608E-02  0.8601077E-01
         -1   -1    0    0    0  501 -0.00000000000E+00  0.00000000000E+00  0.22015567581E+04  0.22015567581E+04  0.00000000000E+00 0.  1.
          1   -1    0    0  501    0  0.00000000000E+00 -0.00000000000E+00 -0.45964523262E+03  0.45964523262E+03  0.00000000000E+00 0. -1.
         23    2    1    2    0    0 -0.66095883306E+03 -0.65306507896E+03  0.37100550804E+03  0.10050788416E+04  0.95800910803E+02 0.  0.
         13    1    3    3    0    0 -0.53886170549E+03 -0.57971917029E+03  0.30726928053E+03  0.84903513755E+03  0.00000000000E+00 0. -1.
        -13    1    3    3    0    0 -0.12209712757E+03 -0.73345908666E+02  0.63736227509E+02  0.15604370406E+03  0.00000000000E+00 0.  1.
         22    1    1    2    0    0  0.66095883306E+03  0.65306507896E+03  0.13709060175E+04  0.16561231491E+04  0.00000000000E+00 0. -1.
<mgrwt>
<rscale>  0 0.20118997E+04</rscale>
<asrwt>0</asrwt>
<pdfrwt beam="1">  1        1 0.70714653E-01 0.20118997E+04</pdfrwt>
<pdfrwt beam="2">  1       -1 0.33870103E+00 0.20118997E+04</pdfrwt>
<totfact> 0.85192709E-01</totfact>
</mgrwt>
</event>
<event>
 6    1  0.1568961E-005  0.7209381E+03  0.7818608E-02  0.9682080E-01
         -1   -1    0    0    0  501 -0.00000000000E+00  0.00000000000E+00  0.14777908296E+03  0.14777908296E+03  0.00000000000E+00 0.  1.
          1   -1    0    0  501    0  0.00000000000E+00 -0.00000000000E+00 -0.87927152635E+03  0.87927152635E+03  0.00000000000E+00 0. -1.
         23    2    1    2    0    0 -0.81411759922E+02  0.20696240317E+03 -0.76640566664E+03  0.80192787803E+03  0.79052923520E+02 0.  0.
         13    1    3    3    0    0 -0.65996668224E+02  0.17623669190E+03 -0.51741312920E+03  0.55057359004E+03  0.00000000000E+00 0.  1.
        -13    1    3    3    0    0 -0.15415091698E+02  0.30725711279E+02 -0.24899253745E+03  0.25135428799E+03  0.00000000000E+00 0. -1.
         22    1    1    2    0    0  0.81411759922E+02 -0.20696240317E+03  0.34913223258E+02  0.22512273128E+03  0.00000000000E+00 0.  1.
<mgrwt>
<rscale>  0 0.72093811E+03</rscale>
<asrwt>0</asrwt>
<pdfrwt beam="1">  1        1 0.13527254E+00 0.72093811E+03</pdfrwt>
<pdfrwt beam="2">  1       -1 0.22735244E-01 0.72093811E+03</pdfrwt>
<totfact> 0.31531822E+02</totfact>
</mgrwt>
</event>
<event>
 6    1  0.1568961E-005  0.3250586E+04  0.7818608E-02  0.8175584E-01
         -2   -1    0    0    0  501 -0.00000000000E+00  0.00000000000E+00  0.15377440693E+04  0.15377440693E+04  0.00000000000E+00 0.  1.
          2   -1    0    0  501    0  0.00000000000E+00 -0.00000000000E+00 -0.17178266092E+04  0.17178266092E+04  0.00000000000E+00 0. -1.
         23    2    1    2    0    0  0.12304251930E+04  0.73549843149E+02  0.96888108916E+03  0.15704970433E+04  0.91513186403E+02 0.  0.
         13    1    3    3    0    0  0.11225741464E+04  0.92974958669E+02  0.88474040199E+03  0.14323346802E+04  0.00000000000E+00 0. -1.
        -13    1    3    3    0    0  0.10785104654E+03 -0.19425115520E+02  0.84140687178E+02  0.13816236315E+03  0.00000000000E+00 0.  1.
         22    1    1    2    0    0 -0.12304251930E+04 -0.73549843149E+02 -0.11489636291E+04  0.16850736352E+04  0.00000000000E+00 0. -1.
<mgrwt>
<rscale>  0 0.32505862E+04</rscale>
<asrwt>0</asrwt>
<pdfrwt beam="1">  1        2 0.26428102E+00 0.32505862E+04</pdfrwt>
<pdfrwt beam="2">  1       -2 0.23657601E+00 0.32505862E+04</pdfrwt>
<totfact> 0.62532250E-01</totfact>
</mgrwt>
</event>
<event>
 6    1  0.1568961E-005  0.2013461E+04  0.7818608E-02  0.8600353E-01
         -1   -1    0    0    0  501 -0.00000000000E+00  0.00000000000E+00  0.97786482420E+03  0.97786482420E+03  0.00000000000E+00 0.  1.
          1   -1    0    0  501    0  0.00000000000E+00 -0.00000000000E+00 -0.10364482647E+04  0.10364482647E+04  0.00000000000E+00 0. -1.
         23    2    1    2    0    0 -0.93160411531E+03  0.37185643636E+03  0.29210478321E+02  0.10074013703E+04  0.88548472322E+02 0.  0.
         11    1    3    3    0    0 -0.47223588582E+03  0.20518619532E+03 -0.26489336841E+02  0.51556744619E+03  0.00000000000E+00 0. -1.
        -11    1    3    3    0    0 -0.45936822949E+03  0.16667024104E+03  0.55699815161E+02  0.49183392413E+03  0.00000000000E+00 0.  1.
         22    1    1    2    0    0  0.93160411531E+03 -0.37185643636E+03 -0.87793918867E+02  0.10069117186E+04  0.00000000000E+00 0.  1.
<mgrwt>
<rscale>  0 0.20134610E+04</rscale>
<asrwt>0</asrwt>
<pdfrwt beam="1">  1        1 0.15945358E+00 0.20134610E+04</pdfrwt>
<pdfrwt beam="2">  1       -1 0.15044074E+00 0.20134610E+04</pdfrwt>
<totfact> 0.45469106E+00</totfact>
</mgrwt>
</event>
<event>
 6    1  0.1568961E-005  0.2998660E+04  0.7818608E-02  0.8244114E-01
          2   -1    0    0  501    0  0.00000000000E+00  0.00000000000E+00  0.19870430960E+04  0.19870430960E+04  0.00000000000E+00 0. -1.
         -2   -1    0    0    0  501 -0.00000000000E+00 -0.00000000000E+00 -0.11313241049E+04  0.11313241049E+04  0.00000000000E+00 0.  1.
         23    2    1    2    0    0  0.64712219474E+03  0.93081246589E+03 -0.58991319634E+03  0.12812413470E+04  0.91666942738E+02 0.  0.
         13    1    3    3    0    0  0.88180781280E+02  0.18367412843E+03 -0.12099652021E+03  0.23696454069E+03  0.00000000000E+00 0. -1.
        -13    1    3    3    0    0  0.55894141346E+03  0.74713833745E+03 -0.46891667613E+03  0.10442768063E+04  0.00000000000E+00 0.  1.
         22    1    1    2    0    0 -0.64712219474E+03 -0.93081246589E+03  0.14456321875E+04  0.18371258539E+04  0.00000000000E+00 0. -1.
<mgrwt>
<rscale>  0 0.29986595E+04</rscale>
<asrwt>0</asrwt>
<pdfrwt beam="1">  1        2 0.30569894E+00 0.29986595E+04</pdfrwt>
<pdfrwt beam="2">  1       -2 0.17404986E+00 0.29986595E+04</pdfrwt>
<totfact> 0.11604765E+00</totfact>
</mgrwt>
</event>
<event>
 6    1  0.1568961E-005  0.2295205E+04  0.7818608E-02  0.8479814E-01
          2   -1    0    0  501    0  0.00000000000E+00  0.00000000000E+00  0.13850063468E+04  0.13850063468E+04  0.00000000000E+00 0.  1.
         -2   -1    0    0    0  501 -0.00000000000E+00 -0.00000000000E+00 -0.95089161948E+03  0.95089161948E+03  0.00000000000E+00 0. -1.
         23    2    1    2    0    0 -0.48477301071E+03 -0.10158377374E+04  0.43533945065E+03  0.12103169250E+04  0.91735712569E+02 0.  0.
         13    1    3    3    0    0 -0.37055336864E+03 -0.84121482216E+03  0.33071398609E+03  0.97689503870E+03  0.00000000000E+00 0.  1.
        -13    1    3    3    0    0 -0.11421964207E+03 -0.17462291523E+03  0.10462546456E+03  0.23342188628E+03  0.00000000000E+00 0. -1.
         22    1    1    2    0    0  0.48477301071E+03  0.10158377374E+04 -0.12247233174E+01  0.11255810413E+04  0.00000000000E+00 0. -1.
<mgrwt>
<rscale>  0 0.22952045E+04</rscale>
<asrwt>0</asrwt>
<pdfrwt beam="1">  1        2 0.21307790E+00 0.22952045E+04</pdfrwt>
<pdfrwt beam="2">  1       -2 0.14629102E+00 0.22952045E+04</pdfrwt>
<totfact> 0.42861874E+00</totfact>
</mgrwt>
</event>
<event>
 6    1  0.1568961E-005  0.2206545E+04  0.7818608E-02  0.8515709E-01
          1   -1    0    0  501    0  0.00000000000E+00  0.00000000000E+00  0.25771608539E+04  0.25771608539E+04  0.00000000000E+00 0. -1.
         -1   -1    0    0    0  501 -0.00000000000E+00 -0.00000000000E+00 -0.47230674852E+03  0.47230674852E+03  0.00000000000E+00 0.  1.
         23    2    1    2    0    0  0.58228073662E+03 -0.92827402600E+03  0.12107597021E+04  0.16352016000E+04  0.84862788907E+02 0.  0.
         13    1    3    3    0    0  0.20484148212E+03 -0.31294872590E+03  0.35543182104E+03  0.51597356255E+03  0.00000000000E+00 0.  1.
        -13    1    3    3    0    0  0.37743925449E+03 -0.61532530010E+03  0.85532788104E+03  0.11192280375E+04  0.00000000000E+00 0. -1.
         22    1    1    2    0    0 -0.58228073662E+03  0.92827402600E+03  0.89409440334E+03  0.14142660024E+04  0.00000000000E+00 0. -1.
<mgrwt>
<rscale>  0 0.22065452E+04</rscale>
<asrwt>0</asrwt>
<pdfrwt beam="1">  1        1 0.39648628E+00 0.22065452E+04</pdfrwt>
<pdfrwt beam="2">  1       -1 0.72662578E-01 0.22065452E+04</pdfrwt>
<totfact> 0.20835725E+00</totfact>
</mgrwt>
</event>
<event>
 6    1  0.1568961E-005  0.6577291E+03  0.7818608E-02  0.9792383E-01
          2   -1    0    0  501    0  0.00000000000E+00  0.00000000000E+00  0.59182396925E+03  0.59182396925E+03  0.00000000000E+00 0. -1.
         -2   -1    0    0    0  501 -0.00000000000E+00 -0.00000000000E+00 -0.18274335260E+03  0.18274335260E+03  0.00000000000E+00 0.  1.
         23    2    1    2    0    0  0.29198515533E+03 -0.72566855083E+02  0.71231008512E+02  0.32216966810E+03  0.90543686031E+02 0.  0.
         11    1    3    3    0    0  0.80272552838E+02 -0.11284724294E+01  0.56646505255E+02  0.98253665309E+02  0.00000000000E+00 0.  1.
        -11    1    3    3    0    0  0.21171260250E+03 -0.71438382654E+02  0.14584503257E+02  0.22391600279E+03  0.00000000000E+00 0. -1.
         22    1    1    2    0    0 -0.29198515533E+03  0.72566855083E+02  0.33784960813E+03  0.45239765374E+03  0.00000000000E+00 0.  1.
<mgrwt>
<rscale>  0 0.65772911E+03</rscale>
<asrwt>0</asrwt>
<pdfrwt beam="1">  1        2 0.91049841E-01 0.65772911E+03</pdfrwt>
<pdfrwt beam="2">  1       -2 0.28114362E-01 0.65772911E+03</pdfrwt>
<totfact> 0.58666901E+02</totfact>
</mgrwt>
</event>
<event>
 6    1  0.1568961E-005  0.1979272E+04  0.7818608E-02  0.8616373E-01
          2   -1    0    0  501    0  0.00000000000E+00  0.00000000000E+00  0.11832318018E+04  0.11832318018E+04  0.00000000000E+00 0. -1.
         -2   -1    0    0    0  501 -0.00000000000E+00 -0.00000000000E+00 -0.82771591710E+03  0.82771591710E+03  0.00000000000E+00 0.  1.
         23    2    1    2    0    0 -0.18243122579E+03 -0.16028758116E+03  0.11506935663E+04  0.11795147354E+04  0.90476884395E+02 0.  0.
         11    1    3    3    0    0 -0.87120541976E+02 -0.54886202514E+02  0.30363976011E+03  0.32062374831E+03  0.00000000000E+00 0. -1.
        -11    1    3    3    0    0 -0.95310683813E+02 -0.10540137865E+03  0.84705380618E+03  0.85889098705E+03  0.00000000000E+00 0.  1.
         22    1    1    2    0    0  0.18243122579E+03  0.16028758116E+03 -0.79517768159E+03  0.83143298354E+03  0.00000000000E+00 0.  1.
<mgrwt>
<rscale>  0 0.19792724E+04</rscale>
<asrwt>0</asrwt>
<pdfrwt beam="1">  1        2 0.18203566E+00 0.19792724E+04</pdfrwt>
<pdfrwt beam="2">  1       -2 0.12734091E+00 0.19792724E+04</pdfrwt>
<totfact> 0.82561518E+00</totfact>
</mgrwt>
</event>
<event>
 6    1  0.1568961E-005  0.2279090E+04  0.7818608E-02  0.8486211E-01
         -2   -1    0    0    0  501 -0.00000000000E+00  0.00000000000E+00  0.10448103019E+04  0.10448103019E+04  0.00000000000E+00 0.  1.
          2   -1    0    0  501    0  0.00000000000E+00 -0.00000000000E+00 -0.12428699680E+04  0.12428699680E+04  0.00000000000E+00 0. -1.
         23    2    1    2    0    0 -0.90460847144E+03  0.11900539674E+03 -0.78129445325E+03  0.12047945013E+04  0.92897774617E+02 0.  0.
         11    1    3    3    0    0 -0.43100659166E+03  0.11100663641E+02 -0.35389016585E+03  0.55778863047E+03  0.00000000000E+00 0.  1.
        -11    1    3    3    0    0 -0.47360187978E+03  0.10790473310E+03 -0.42740428740E+03  0.64700587080E+03  0.00000000000E+00 0. -1.
         22    1    1    2    0    0  0.90460847144E+03 -0.11900539674E+03  0.58323478715E+03  0.10828857687E+04  0.00000000000E+00 0.  1.
<mgrwt>
<rscale>  0 0.22790905E+04</rscale>
<asrwt>0</asrwt>
<pdfrwt beam="1">  1        2 0.19121076E+00 0.22790905E+04</pdfrwt>
<pdfrwt beam="2">  1       -2 0.16074005E+00 0.22790905E+04</pdfrwt>
<totfact> 0.40348806E+00</totfact>
</mgrwt>
</event>
<event>
 6    1  0.1568961E-005  0.2381507E+04  0.7818608E-02  0.8446459E-01
         -2   -1    0    0    0  501 -0.00000000000E+00  0.00000000000E+00  0.72523780204E+03  0.72523780204E+03  0.00000000000E+00 0.  1.
          2   -1    0    0  501    0  0.00000000000E+00 -0.00000000000E+00 -0.19550751311E+04  0.19550751311E+04  0.00000000000E+00 0. -1.
         23    2    1    2    0    0 -0.44890416497E+03 -0.10976504097E+04 -0.71215944337E+03  0.13863493462E+04  0.91880714522E+02 0.  0.
         11    1    3    3    0    0 -0.47475732483E+02 -0.83835155911E+02 -0.84849736462E+02  0.12838129271E+03  0.00000000000E+00 0. -1.
        -11    1    3    3    0    0 -0.40142843248E+03 -0.10138152537E+04 -0.62730970691E+03  0.12579680535E+04  0.00000000000E+00 0.  1.
         22    1    1    2    0    0  0.44890416497E+03  0.10976504097E+04 -0.51767788571E+03  0.12939635870E+04  0.00000000000E+00 0.  1.
<mgrwt>
<rscale>  0 0.23815074E+04</rscale>
<asrwt>0</asrwt>
<pdfrwt beam="1">  1        2 0.30078078E+00 0.23815074E+04</pdfrwt>
<pdfrwt beam="2">  1       -2 0.11157505E+00 0.23815074E+04</pdfrwt>
<totfact> 0.40453852E+00</totfact>
</mgrwt>
</event>
<event>
 6    1  0.1568961E-005  0.1452930E+04  0.7818608E-02  0.8916372E-01
         -2   -1    0    0    0  501 -0.00000000000E+00  0.00000000000E+00  0.24348346958E+03  0.24348346958E+03  0.00000000000E+00 0.  1.
          2   -1    0    0  501    0  0.00000000000E+00 -0.00000000000E+00 -0.21675028176E+04  0.21675028176E+04  0.00000000000E+00 0. -1.
         23    2    1    2    0    0 -0.33860435703E+03  0.89899548130E+02 -0.20164173383E+04  0.20486711923E+04  0.91541972391E+02 0.  0.
         13    1    3    3    0    0 -0.12401085062E+03  0.54021378278E+02 -0.56076102957E+03  0.57684480813E+03  0.00000000000E+00 0.  1.
        -13    1    3    3    0    0 -0.21459350642E+03  0.35878169852E+02 -0.14556563087E+04  0.14718263842E+04  0.00000000000E+00 0. -1.
         22    1    1    2    0    0  0.33860435703E+03 -0.89899548130E+02  0.92397990280E+02  0.36231509486E+03  0.00000000000E+00 0.  1.
<mgrwt>
<rscale>  0 0.14529296E+04</rscale>
<asrwt>0</asrwt>
<pdfrwt beam="1">  1        2 0.33346198E+00 0.14529296E+04</pdfrwt>
<pdfrwt beam="2">  1       -2 0.37458994E-01 0.14529296E+04</pdfrwt>
<totfact> 0.35137781E+01</totfact>
</mgrwt>
</event>
<event>
 6    1  0.1568961E-005  0.1745712E+04  0.7818608E-02  0.8735714E-01
          1   -1    0    0  501    0  0.00000000000E+00  0.00000000000E+00  0.66975969376E+03  0.66975969376E+03  0.00000000000E+00 0. -1.
         -1   -1    0    0    0  501 -0.00000000000E+00 -0.00000000000E+00 -0.11375381733E+04  0.11375381733E+04  0.00000000000E+00 0.  1.
         23    2    1    2    0    0 -0.21987661185E+03 -0.45918060632E+03  0.49653636922E+03  0.71684122822E+03  0.90113411068E+02 0.  0.
         13    1    3    3    0    0 -0.15433980406E+03 -0.39810099427E+03  0.39862356627E+03  0.58412834578E+03  0.00000000000E+00 0. -1.
        -13    1    3    3    0    0 -0.65536807792E+02 -0.61079612050E+02  0.97912802955E+02  0.13271288244E+03  0.00000000000E+00 0.  1.
         22    1    1    2    0    0  0.21987661185E+03  0.45918060632E+03 -0.96431484875E+03  0.10904566388E+04  0.00000000000E+00 0.  1.
<mgrwt>
<rscale>  0 0.17457116E+04</rscale>
<asrwt>0</asrwt>
<pdfrwt beam="1">  1        1 0.10303995E+00 0.17457116E+04</pdfrwt>
<pdfrwt beam="2">  1       -1 0.17500587E+00 0.17457116E+04</pdfrwt>
<totfact> 0.62437703E+00</totfact>
</mgrwt>
</event>
<event>
 6    1  0.1568961E-005  0.3479685E+04  0.7818608E-02  0.8118621E-01
         -2   -1    0    0    0  501 -0.00000000000E+00  0.00000000000E+00  0.10671142205E+04  0.10671142205E+04  0.00000000000E+00 0.  1.
          2   -1    0    0  501    0  0.00000000000E+00 -0.00000000000E+00 -0.28366711156E+04  0.28366711156E+04  0.00000000000E+00 0. -1.
         23    2    1    2    0    0  0.31891673545E+03 -0.83461342568E+03  0.78804136192E+03  0.11946164046E+04  0.88383887763E+02 0.  0.
         11    1    3    3    0    0  0.14295122575E+03 -0.32020789027E+03  0.36105080455E+03  0.50331484123E+03  0.00000000000E+00 0.  1.
        -11    1    3    3    0    0  0.17596550970E+03 -0.51440553541E+03  0.42699055737E+03  0.69130156339E+03  0.00000000000E+00 0. -1.
         22    1    1    2    0    0 -0.31891673545E+03  0.83461342568E+03 -0.25575982571E+04  0.27091689314E+04  0.00000000000E+00 0. -1.
<mgrwt>
<rscale>  0 0.34796851E+04</rscale>
<asrwt>0</asrwt>
<pdfrwt beam="1">  1        2 0.43641093E+00 0.34796851E+04</pdfrwt>
<pdfrwt beam="2">  1       -2 0.16417142E+00 0.34796851E+04</pdfrwt>
<totfact> 0.42425360E-01</totfact>
</mgrwt>
</event>
<event>
 6    1  0.1568961E-005  0.1736614E+04  0.7818608E-02  0.8740753E-01
         -1   -1    0    0    0  501 -0.00000000000E+00  0.00000000000E+00  0.19891944023E+04  0.19891944023E+04  0.00000000000E+00 0.  1.
          1   -1    0    0  501    0  0.00000000000E+00 -0.00000000000E+00 -0.37902649913E+03  0.37902649913E+03  0.00000000000E+00 0. -1.
         23    2    1    2    0    0 -0.34328429564E+02 -0.86403483737E+03  0.85986178473E+03  0.12233654902E+04  0.97602215694E+02 0.  0.
         13    1    3    3    0    0 -0.67987619890E+02 -0.62315759642E+03  0.60979211323E+03  0.87452508700E+03  0.00000000000E+00 0.  1.
        -13    1    3    3    0    0  0.33659190326E+02 -0.24087724095E+03  0.25006967149E+03  0.34884040320E+03  0.00000000000E+00 0. -1.
         22    1    1    2    0    0  0.34328429564E+02  0.86403483737E+03  0.75030611844E+03  0.11448554112E+04  0.00000000000E+00 0. -1.
<mgrwt>
<rscale>  0 0.17366144E+04</rscale>
<asrwt>0</asrwt>
<pdfrwt beam="1">  1        1 0.58311771E-01 0.17366144E+04</pdfrwt>
<pdfrwt beam="2">  1       -1 0.30602990E+00 0.17366144E+04</pdfrwt>
<totfact> 0.18482357E+00</totfact>
</mgrwt>
</event>
<event>
 6    1  0.1568961E-005  0.4210140E+04  0.7818608E-02  0.7963446E-01
         -2   -1    0    0    0  501 -0.00000000000E+00  0.00000000000E+00  0.26481035196E+04  0.26481035196E+04  0.00000000000E+00 0. -1.
          2   -1    0    0  501    0  0.00000000000E+00 -0.00000000000E+00 -0.16733934488E+04  0.16733934488E+04  0.00000000000E+00 0.  1.
         23    2    1    2    0    0  0.26267576868E+03  0.33205030996E+03  0.26030915254E+04  0.26389744188E+04  0.94045339016E+02 0.  0.
         13    1    3    3    0    0  0.22383758403E+03  0.24352202984E+03  0.18057671469E+04  0.18358107832E+04  0.00000000000E+00 0. -1.
        -13    1    3    3    0    0  0.38838184650E+02  0.88528280122E+02  0.79732437856E+03  0.80316363564E+03  0.00000000000E+00 0.  1.
         22    1    1    2    0    0 -0.26267576868E+03 -0.33205030996E+03 -0.16283814547E+04  0.16825225496E+04  0.00000000000E+00 0.  1.
<mgrwt>
<rscale>  0 0.42101397E+04</rscale>
<asrwt>0</asrwt>
<pdfrwt beam="1">  1        2 0.25744515E+00 0.42101397E+04</pdfrwt>
<pdfrwt beam="2">  1       -2 0.40740054E+00 0.42101397E+04</pdfrwt>
<totfact> 0.52233650E-02</totfact>
</mgrwt>
</event>
<event>
 6    1  0.1568961E-005  0.4255794E+04  0.7818608E-02  0.7954843E-01
         -1   -1    0    0    0  501 -0.00000000000E+00  0.00000000000E+00  0.14945142291E+04  0.14945142291E+04  0.00000000000E+00 0.  1.
          1   -1    0    0  501    0  0.00000000000E+00 -0.00000000000E+00 -0.30297106330E+04  0.30297106330E+04  0.00000000000E+00 0. -1.
         23    2    1    2    0    0  0.71761076832E+03  0.39830854576E+02  0.13609478486E+04  0.15402337020E+04  0.59909085191E+02 0.  0.
         13    1    3    3    0    0  0.99608843561E+02 -0.99476258738E+01  0.22015623210E+03  0.24184632209E+03  0.00000000000E+00 0. -1.
        -13    1    3    3    0    0  0.61800192476E+03  0.49778480450E+02  0.11407916165E+04  0.12983873799E+04  0.00000000000E+00 0.  1.
         22    1    1    2    0    0 -0.71761076832E+03 -0.39830854576E+02 -0.28961442526E+04  0.29839911601E+04  0.00000000000E+00 0. -1.
<mgrwt>
<rscale>  0 0.42557940E+04</rscale>
<asrwt>0</asrwt>
<pdfrwt beam="1">  1        1 0.46610932E+00 0.42557940E+04</pdfrwt>
<pdfrwt beam="2">  1       -1 0.22992527E+00 0.42557940E+04</pdfrwt>
<totfact> 0.41165524E-02</totfact>
</mgrwt>
</event>
<event>
 6    1  0.1568961E-005  0.3415640E+04  0.7818608E-02  0.8134078E-01
         -2   -1    0    0    0  501 -0.00000000000E+00  0.00000000000E+00  0.15640885224E+04  0.15640885224E+04  0.00000000000E+00 0.  1.
          2   -1    0    0  501    0  0.00000000000E+00 -0.00000000000E+00 -0.18647599294E+04  0.18647599294E+04  0.00000000000E+00 0. -1.
         23    2    1    2    0    0  0.12711256040E+04  0.40526744087E+03  0.91783507767E+03  0.16219837493E+04  0.91695438548E+02 0.  0.
         13    1    3    3    0    0  0.72438982541E+03  0.23979484595E+03  0.47051814725E+03  0.89645385503E+03  0.00000000000E+00 0. -1.
        -13    1    3    3    0    0  0.54673577864E+03  0.16547259492E+03  0.44731693042E+03  0.72552989432E+03  0.00000000000E+00 0.  1.
         22    1    1    2    0    0 -0.12711256040E+04 -0.40526744087E+03 -0.12185064847E+04  0.18068647025E+04  0.00000000000E+00 0. -1.
<mgrwt>
<rscale>  0 0.34156403E+04</rscale>
<asrwt>0</asrwt>
<pdfrwt beam="1">  1        2 0.28688614E+00 0.34156403E+04</pdfrwt>
<pdfrwt beam="2">  1       -2 0.24062901E+00 0.34156403E+04</pdfrwt>
<totfact> 0.48251874E-01</totfact>
</mgrwt>
</event>
<event>
 6    1  0.1568961E-005  0.5298720E+04  0.7818608E-02  0.7784009E-01
          2   -1    0    0  501    0  0.00000000000E+00  0.00000000000E+00  0.39260581272E+04  0.39260581272E+04  0.00000000000E+00 0.  1.
         -2   -1    0    0    0  501 -0.00000000000E+00 -0.00000000000E+00 -0.17878258904E+04  0.17878258904E+04  0.00000000000E+00 0. -1.
         23    2    1    2    0    0 -0.23531534092E+04  0.95687660965E+03  0.18780759591E+04  0.31603325491E+04  0.87113145099E+02 0.  0.
         13    1    3    3    0    0 -0.13068908817E+04  0.51483510222E+03  0.10886525341E+04  0.17771278230E+04  0.00000000000E+00 0. -1.
        -13    1    3    3    0    0 -0.10462625275E+04  0.44204150742E+03  0.78942342498E+03  0.13832047262E+04  0.00000000000E+00 0.  1.
         22    1    1    2    0    0  0.23531534092E+04 -0.95687660965E+03  0.26015627781E+03  0.25535514685E+04  0.00000000000E+00 0. -1.
<mgrwt>
<rscale>  0 0.52987200E+04</rscale>
<asrwt>0</asrwt>
<pdfrwt beam="1">  1        2 0.60400894E+00 0.52987200E+04</pdfrwt>
<pdfrwt beam="2">  1       -2 0.27505014E+00 0.52987200E+04</pdfrwt>
<totfact> 0.12530618E-02</totfact>
</mgrwt>
</event>
<event>
 6    1  0.1568961E-005  0.2563480E+04  0.7818608E-02  0.8380713E-01
         -2   -1    0    0    0  501 -0.00000000000E+00  0.00000000000E+00  0.10481010125E+04  0.10481010125E+04  0.00000000000E+00 0.  1.
          2   -1    0    0  501    0  0.00000000000E+00 -0.00000000000E+00 -0.15674614874E+04  0.15674614874E+04  0.00000000000E+00 0. -1.
         23    2    1    2    0    0 -0.63399849894E+03 -0.19365967725E+02  0.87450902781E+03  0.10841574824E+04  0.91116790447E+02 0.  0.
         13    1    3    3    0    0 -0.10057187315E+03 -0.29453168761E+02  0.18131147896E+03  0.20941834499E+03  0.00000000000E+00 0. -1.
        -13    1    3    3    0    0 -0.53342662579E+03  0.10087201036E+02  0.69319754886E+03  0.87473913738E+03  0.00000000000E+00 0.  1.
         22    1    1    2    0    0  0.63399849894E+03  0.19365967725E+02 -0.13938695027E+04  0.15314050176E+04  0.00000000000E+00 0. -1.
<mgrwt>
<rscale>  0 0.25634804E+04</rscale>
<asrwt>0</asrwt>
<pdfrwt beam="1">  1        2 0.24114792E+00 0.25634804E+04</pdfrwt>
<pdfrwt beam="2">  1       -2 0.16124631E+00 0.25634804E+04</pdfrwt>
<totfact> 0.25451739E+00</totfact>
</mgrwt>
</event>
<event>
 6    1  0.1568961E-005  0.3143422E+04  0.7818608E-02  0.8203921E-01
          1   -1    0    0  501    0  0.00000000000E+00  0.00000000000E+00  0.19275172452E+04  0.19275172452E+04  0.00000000000E+00 0. -1.
         -1   -1    0    0    0  501 -0.00000000000E+00 -0.00000000000E+00 -0.12815838625E+04  0.12815838625E+04  0.00000000000E+00 0.  1.
         23    2    1    2    0    0  0.16587990368E+03 -0.10173791586E+04 -0.88638693714E+03  0.13623249824E+04  0.87584590629E+02 0.  0.
         11    1    3    3    0    0  0.35709433326E+02 -0.37781009132E+03 -0.37070590889E+03  0.53050777527E+03  0.00000000000E+00 0. -1.
        -11    1    3    3    0    0  0.13017047036E+03 -0.63956906723E+03 -0.51568102825E+03  0.83181720709E+03  0.00000000000E+00 0.  1.
         22    1    1    2    0    0 -0.16587990368E+03  0.10173791586E+04  0.15323203198E+04  0.18467761253E+04  0.00000000000E+00 0. -1.
<mgrwt>
<rscale>  0 0.31434217E+04</rscale>
<asrwt>0</asrwt>
<pdfrwt beam="1">  1        1 0.29654111E+00 0.31434217E+04</pdfrwt>
<pdfrwt beam="2">  1       -1 0.19716675E+00 0.31434217E+04</pdfrwt>
<totfact> 0.44181282E-01</totfact>
</mgrwt>
</event>
<event>
 6    1  0.1568961E-005  0.3739878E+04  0.7818608E-02  0.8059181E-01
         -1   -1    0    0    0  501 -0.00000000000E+00  0.00000000000E+00  0.18707053040E+04  0.18707053040E+04  0.00000000000E+00 0.  1.
          1   -1    0    0  501    0  0.00000000000E+00 -0.00000000000E+00 -0.18691733845E+04  0.18691733845E+04  0.00000000000E+00 0. -1.
         23    2    1    2    0    0  0.15736437987E+03  0.32075470721E+03  0.18351238821E+04  0.18718030435E+04  0.91213160752E+02 0.  0.
         13    1    3    3    0    0  0.79903495866E+02  0.70408117466E+02  0.55734109353E+03  0.56742485510E+03  0.00000000000E+00 0. -1.
        -13    1    3    3    0    0  0.77460884004E+02  0.25034658975E+03  0.12777827886E+04  0.13043781884E+04  0.00000000000E+00 0.  1.
         22    1    1    2    0    0 -0.15736437987E+03 -0.32075470721E+03 -0.18335919626E+04  0.18680756450E+04  0.00000000000E+00 0. -1.
<mgrwt>
<rscale>  0 0.37398784E+04</rscale>
<asrwt>0</asrwt>
<pdfrwt beam="1">  1        1 0.28756514E+00 0.37398784E+04</pdfrwt>
<pdfrwt beam="2">  1       -1 0.28780081E+00 0.37398784E+04</pdfrwt>
<totfact> 0.11583171E-01</totfact>
</mgrwt>
</event>
<event>
 6    1  0.1568961E-005  0.2314075E+04  0.7818608E-02  0.8472392E-01
         -1   -1    0    0    0  501 -0.00000000000E+00  0.00000000000E+00  0.36602485094E+03  0.36602485094E+03  0.00000000000E+00 0.  1.
          1   -1    0    0  501    0  0.00000000000E+00 -0.00000000000E+00 -0.36574997744E+04  0.36574997744E+04  0.00000000000E+00 0. -1.
         23    2    1    2    0    0  0.50608360890E+03  0.57729881186E+02 -0.34511800563E+04  0.34897090319E+04  0.89285989478E+02 0.  0.
         13    1    3    3    0    0  0.38586185074E+03  0.75856784874E+02 -0.27680456742E+04  0.27958398513E+04  0.00000000000E+00 0. -1.
        -13    1    3    3    0    0  0.12022175816E+03 -0.18126903687E+02 -0.68313438211E+03  0.69386918060E+03  0.00000000000E+00 0.  1.
         22    1    1    2    0    0 -0.50608360890E+03 -0.57729881186E+02  0.15970513282E+03  0.53381559347E+03  0.00000000000E+00 0.  1.
<mgrwt>
<rscale>  0 0.23140750E+04</rscale>
<asrwt>0</asrwt>
<pdfrwt beam="1">  1        1 0.56269227E+00 0.23140750E+04</pdfrwt>
<pdfrwt beam="2">  1       -1 0.56311516E-01 0.23140750E+04</pdfrwt>
<totfact> 0.53983708E-01</totfact>
</mgrwt>
</event>
<event>
 6    1  0.1568961E-005  0.2623527E+04  0.7818608E-02  0.8360253E-01
          2   -1    0    0  501    0  0.00000000000E+00  0.00000000000E+00  0.14619826746E+04  0.14619826746E+04  0.00000000000E+00 0.  1.
         -2   -1    0    0    0  501 -0.00000000000E+00 -0.00000000000E+00 -0.11769794992E+04  0.11769794992E+04  0.00000000000E+00 0. -1.
         23    2    1    2    0    0  0.33598961187E+03  0.94846648117E+03 -0.70138927500E+03  0.12299030014E+04  0.90756777561E+02 0.  0.
         11    1    3    3    0    0  0.66816489342E+02  0.22182743229E+03 -0.11826006411E+03  0.26011016076E+03  0.00000000000E+00 0. -1.
        -11    1    3    3    0    0  0.26917312253E+03  0.72663904888E+03 -0.58312921089E+03  0.96979284068E+03  0.00000000000E+00 0.  1.
         22    1    1    2    0    0 -0.33598961187E+03 -0.94846648117E+03  0.98639245035E+03  0.14090591724E+04  0.00000000000E+00 0.  1.
<mgrwt>
<rscale>  0 0.26235271E+04</rscale>
<asrwt>0</asrwt>
<pdfrwt beam="1">  1        2 0.22492041E+00 0.26235271E+04</pdfrwt>
<pdfrwt beam="2">  1       -2 0.18107377E+00 0.26235271E+04</pdfrwt>
<totfact> 0.20995381E+00</totfact>
</mgrwt>
</event>
<event>
 6    1  0.1568961E-005  0.1243080E+04  0.7818608E-02  0.9075962E-01
         -2   -1    0    0    0  501 -0.00000000000E+00  0.00000000000E+00  0.78450202378E+03  0.78450202378E+03  0.00000000000E+00 0.  1.
          2   -1    0    0  501    0  0.00000000000E+00 -0.00000000000E+00 -0.49242961552E+03  0.49242961552E+03  0.00000000000E+00 0. -1.
         23    2    1    2    0    0 -0.20032615461E+03  0.16525890827E+03  0.72302945860E+03  0.77377653973E+03  0.92290088585E+02 0.  0.
         11    1    3    3    0    0 -0.14624377952E+03  0.14249464747E+03  0.44480538063E+03  0.48943211403E+03  0.00000000000E+00 0. -1.
        -11    1    3    3    0    0 -0.54082375087E+02  0.22764260800E+02  0.27822407797E+03  0.28434442570E+03  0.00000000000E+00 0.  1.
         22    1    1    2    0    0  0.20032615461E+03 -0.16525890827E+03 -0.43095705034E+03  0.50315509957E+03  0.00000000000E+00 0. -1.
<mgrwt>
<rscale>  0 0.12430801E+04</rscale>
<asrwt>0</asrwt>
<pdfrwt beam="1">  1        2 0.75758402E-01 0.12430801E+04</pdfrwt>
<pdfrwt beam="2">  1       -2 0.12069262E+00 0.12430801E+04</pdfrwt>
<totfact> 0.32274202E+01</totfact>
</mgrwt>
</event>
<event>
 6    1  0.1568961E-005  0.4742644E+04  0.7818608E-02  0.7869481E-01
         -1   -1    0    0    0  501 -0.00000000000E+00  0.00000000000E+00  0.18306768868E+04  0.18306768868E+04  0.00000000000E+00 0.  1.
          1   -1    0    0  501    0  0.00000000000E+00 -0.00000000000E+00 -0.30716332612E+04  0.30716332612E+04  0.00000000000E+00 0. -1.
         23    2    1    2    0    0  0.16665188034E+04 -0.16675426788E+04 -0.87634158310E+03  0.25167436631E+04  0.89669323936E+02 0.  0.
         11    1    3    3    0    0  0.74818557876E+03 -0.71988665241E+03 -0.34370349499E+03  0.10936866759E+04  0.00000000000E+00 0.  1.
        -11    1    3    3    0    0  0.91833322466E+03 -0.94765602639E+03 -0.53263808811E+03  0.14230569872E+04  0.00000000000E+00 0. -1.
         22    1    1    2    0    0 -0.16665188034E+04  0.16675426788E+04 -0.36461479129E+03  0.23855664849E+04  0.00000000000E+00 0. -1.
<mgrwt>
<rscale>  0 0.47426440E+04</rscale>
<asrwt>0</asrwt>
<pdfrwt beam="1">  1        1 0.47255896E+00 0.47426440E+04</pdfrwt>
<pdfrwt beam="2">  1       -1 0.28164260E+00 0.47426440E+04</pdfrwt>
<totfact> 0.16943326E-02</totfact>
</mgrwt>
</event>
<event>
 6    1  0.1568961E-005  0.1307599E+04  0.7818608E-02  0.9023561E-01
         -1   -1    0    0    0  501 -0.00000000000E+00  0.00000000000E+00  0.37382657448E+03  0.37382657448E+03  0.00000000000E+00 0.  1.
          1   -1    0    0  501    0  0.00000000000E+00 -0.00000000000E+00 -0.11434541216E+04  0.11434541216E+04  0.00000000000E+00 0. -1.
         23    2    1    2    0    0 -0.10636169053E+03 -0.10537585897E+03 -0.11213632231E+04  0.11350047922E+04  0.91452279364E+02 0.  0.
         13    1    3    3    0    0  0.56904084858E+01 -0.43219446429E+02 -0.19443868208E+03  0.19926540690E+03  0.00000000000E+00 0.  1.
        -13    1    3    3    0    0 -0.11205209901E+03 -0.62156412546E+02 -0.92692454104E+03  0.93573938535E+03  0.00000000000E+00 0. -1.
         22    1    1    2    0    0  0.10636169053E+03  0.10537585897E+03  0.35173567601E+03  0.38227590382E+03  0.00000000000E+00 0.  1.
<mgrwt>
<rscale>  0 0.13075986E+04</rscale>
<asrwt>0</asrwt>
<pdfrwt beam="1">  1        1 0.17591602E+00 0.13075986E+04</pdfrwt>
<pdfrwt beam="2">  1       -1 0.57511780E-01 0.13075986E+04</pdfrwt>
<totfact> 0.35367624E+01</totfact>
</mgrwt>
</event>
<event>
 6    1  0.1568961E-005  0.9630494E+03  0.7818608E-02  0.9350027E-01
         -2   -1    0    0    0  501 -0.00000000000E+00  0.00000000000E+00  0.78272753175E+02  0.78272753175E+02  0.00000000000E+00 0.  1.
          2   -1    0    0  501    0  0.00000000000E+00 -0.00000000000E+00 -0.29622829154E+04  0.29622829154E+04  0.00000000000E+00 0. -1.
         23    2    1    2    0    0  0.28537070760E+02 -0.49197692449E+02 -0.29508460318E+04  0.29527957072E+04  0.90969269260E+02 0.  0.
         11    1    3    3    0    0 -0.44042878711E+01 -0.64591485862E+02 -0.13668456917E+04  0.13683780921E+04  0.00000000000E+00 0.  1.
        -11    1    3    3    0    0  0.32941358631E+02  0.15393793414E+02 -0.15840003400E+04  0.15844176151E+04  0.00000000000E+00 0. -1.
         22    1    1    2    0    0 -0.28537070760E+02  0.49197692449E+02  0.66835869582E+02  0.87759961330E+02  0.00000000000E+00 0.  1.
<mgrwt>
<rscale>  0 0.96304941E+03</rscale>
<asrwt>0</asrwt>
<pdfrwt beam="1">  1        2 0.45573581E+00 0.96304941E+03</pdfrwt>
<pdfrwt beam="2">  1       -2 0.12041963E-01 0.96304941E+03</pdfrwt>
<totfact> 0.95689187E+01</totfact>
</mgrwt>
</event>
<event>
 6    1  0.1568961E-005  0.2230765E+04  0.7818608E-02  0.8505731E-01
         -2   -1    0    0    0  501 -0.00000000000E+00  0.00000000000E+00  0.12632578646E+04  0.12632578646E+04  0.00000000000E+00 0.  1.
          2   -1    0    0  501    0  0.00000000000E+00 -0.00000000000E+00 -0.98481683210E+03  0.98481683210E+03  0.00000000000E+00 0. -1.
         23    2    1    2    0    0 -0.61097329878E+03  0.13203273231E+03 -0.78916243649E+03  0.10109416476E+04  0.92220656061E+02 0.  0.
         13    1    3    3    0    0 -0.32376711133E+03  0.11363420715E+03 -0.45622959005E+03  0.57086190471E+03  0.00000000000E+00 0. -1.
        -13    1    3    3    0    0 -0.28720618745E+03  0.18398525165E+02 -0.33293284645E+03  0.44007974286E+03  0.00000000000E+00 0.  1.
         22    1    1    2    0    0  0.61097329878E+03 -0.13203273231E+03  0.10676034690E+04  0.12371330491E+04  0.00000000000E+00 0.  1.
<mgrwt>
<rscale>  0 0.22307645E+04</rscale>
<asrwt>0</asrwt>
<pdfrwt beam="1">  1        2 0.15151028E+00 0.22307645E+04</pdfrwt>
<pdfrwt beam="2">  1       -2 0.19434736E+00 0.22307645E+04</pdfrwt>
<totfact> 0.34042709E+00</totfact>
</mgrwt>
</event>
<event>
 6    1  0.1568961E-005  0.1930503E+04  0.7818608E-02  0.8639820E-01
         -1   -1    0    0    0  501 -0.00000000000E+00  0.00000000000E+00  0.53801228718E+03  0.53801228718E+03  0.00000000000E+00 0.  1.
          1   -1    0    0  501    0  0.00000000000E+00 -0.00000000000E+00 -0.17317645212E+04  0.17317645212E+04  0.00000000000E+00 0. -1.
         23    2    1    2    0    0  0.46849813335E+03 -0.48822122385E+03 -0.14041305303E+04  0.15611799611E+04  0.88599438261E+02 0.  0.
         13    1    3    3    0    0  0.16525632995E+03 -0.18373735539E+03 -0.41981157119E+03  0.48714558979E+03  0.00000000000E+00 0.  1.
        -13    1    3    3    0    0  0.30324180340E+03 -0.30448386846E+03 -0.98431895915E+03  0.10740343713E+04  0.00000000000E+00 0. -1.
         22    1    1    2    0    0 -0.46849813335E+03  0.48822122385E+03  0.21037829631E+03  0.70859684725E+03  0.00000000000E+00 0.  1.
<mgrwt>
<rscale>  0 0.19305031E+04</rscale>
<asrwt>0</asrwt>
<pdfrwt beam="1">  1        1 0.26642531E+00 0.19305031E+04</pdfrwt>
<pdfrwt beam="2">  1       -1 0.82771120E-01 0.19305031E+04</pdfrwt>
<totfact> 0.61348431E+00</totfact>
</mgrwt>
</event>
<event>
 6    1  0.1568961E-005  0.1384558E+04  0.7818608E-02  0.8965073E-01
          1   -1    0    0  501    0  0.00000000000E+00  0.00000000000E+00  0.29510118822E+04  0.29510118822E+04  0.00000000000E+00 0. -1.
         -1   -1    0    0    0  501 -0.00000000000E+00 -0.00000000000E+00 -0.16240205836E+03  0.16240205836E+03  0.00000000000E+00 0.  1.
         23    2    1    2    0    0  0.59657439982E+03 -0.12507946268E+01  0.21768006922E+04  0.22588889306E+04  0.90638670161E+02 0.  0.
         11    1    3    3    0    0  0.27355586545E+03 -0.45741330831E+02  0.10011555822E+04  0.10388636006E+04  0.00000000000E+00 0. -1.
        -11    1    3    3    0    0  0.32301853437E+03  0.44490536204E+02  0.11756451100E+04  0.12200253301E+04  0.00000000000E+00 0.  1.
         22    1    1    2    0    0 -0.59657439982E+03  0.12507946268E+01  0.61180913170E+03  0.85452500996E+03  0.00000000000E+00 0.  1.
<mgrwt>
<rscale>  0 0.13845583E+04</rscale>
<asrwt>0</asrwt>
<pdfrwt beam="1">  1        1 0.45400179E+00 0.13845583E+04</pdfrwt>
<pdfrwt beam="2">  1       -1 0.24984934E-01 0.13845583E+04</pdfrwt>
<totfact> 0.89511554E+00</totfact>
</mgrwt>
</event>
<event>
 6    1  0.1568961E-005  0.1828250E+04  0.7818608E-02  0.8691419E-01
          1   -1    0    0  501    0  0.00000000000E+00  0.00000000000E+00  0.96990174801E+03  0.96990174801E+03  0.00000000000E+00 0. -1.
         -1   -1    0    0    0  501 -0.00000000000E+00 -0.00000000000E+00 -0.86155566506E+03  0.86155566506E+03  0.00000000000E+00 0.  1.
         23    2    1    2    0    0 -0.12447241754E+03  0.70072069923E+03  0.62541591950E+03  0.95176195615E+03  0.90569684478E+02 0.  0.
         13    1    3    3    0    0 -0.57920124430E+02  0.52294573521E+03  0.48582785791E+03  0.71613943497E+03  0.00000000000E+00 0.  1.
        -13    1    3    3    0    0 -0.66552293107E+02  0.17777496402E+03  0.13958806159E+03  0.23562252118E+03  0.00000000000E+00 0. -1.
         22    1    1    2    0    0  0.12447241754E+03 -0.70072069923E+03 -0.51706983655E+03  0.87969545693E+03  0.00000000000E+00 0.  1.
<mgrwt>
<rscale>  0 0.18282498E+04</rscale>
<asrwt>0</asrwt>
<pdfrwt beam="1">  1        1 0.14921565E+00 0.18282498E+04</pdfrwt>
<pdfrwt beam="2">  1       -1 0.13254702E+00 0.18282498E+04</pdfrwt>
<totfact> 0.72632204E+00</totfact>
</mgrwt>
</event>
<event>
 6    1  0.1568961E-005  0.3401599E+04  0.7818608E-02  0.8137514E-01
         -2   -1    0    0    0  501 -0.00000000000E+00  0.00000000000E+00  0.14941807895E+04  0.14941807895E+04  0.00000000000E+00 0.  1.
          2   -1    0    0  501    0  0.00000000000E+00 -0.00000000000E+00 -0.19359901022E+04  0.19359901022E+04  0.00000000000E+00 0. -1.
         23    2    1    2    0    0  0.48745548855E+03 -0.13682380212E+04 -0.11099708042E+04  0.18313813763E+04  0.11060932673E+03 0.  0.
         13    1    3    3    0    0  0.25919829511E+03 -0.58996873658E+03 -0.52898196728E+03  0.83370785533E+03  0.00000000000E+00 0.  1.
        -13    1    3    3    0    0  0.22825719345E+03 -0.77826928465E+03 -0.58098883693E+03  0.99767352096E+03  0.00000000000E+00 0. -1.
         22    1    1    2    0    0 -0.48745548855E+03  0.13682380212E+04  0.66816149149E+03  0.15987895155E+04  0.00000000000E+00 0.  1.
<mgrwt>
<rscale>  0 0.34015992E+04</rscale>
<asrwt>0</asrwt>
<pdfrwt beam="1">  1        2 0.29784463E+00 0.34015992E+04</pdfrwt>
<pdfrwt beam="2">  1       -2 0.22987397E+00 0.34015992E+04</pdfrwt>
<totfact> 0.51455650E-01</totfact>
</mgrwt>
</event>
<event>
 6    1  0.1568961E-005  0.1650442E+04  0.7818608E-02  0.8790145E-01
          2   -1    0    0  501    0  0.00000000000E+00  0.00000000000E+00  0.45580781344E+03  0.45580781344E+03  0.00000000000E+00 0. -1.
         -2   -1    0    0    0  501 -0.00000000000E+00 -0.00000000000E+00 -0.14940290133E+04  0.14940290133E+04  0.00000000000E+00 0.  1.
         23    2    1    2    0    0 -0.24596520426E+03  0.59836935912E+03  0.79562415259E+02  0.65833189764E+03  0.92336005382E+02 0.  0.
         13    1    3    3    0    0 -0.12038284344E+03  0.27792477716E+03  0.83354222637E+02  0.31413713118E+03  0.00000000000E+00 0. -1.
        -13    1    3    3    0    0 -0.12558236082E+03  0.32044458196E+03 -0.37918073775E+01  0.34419476647E+03  0.00000000000E+00 0.  1.
         22    1    1    2    0    0  0.24596520426E+03 -0.59836935912E+03 -0.11177836151E+04  0.12915049291E+04  0.00000000000E+00 0.  1.
<mgrwt>
<rscale>  0 0.16504425E+04</rscale>
<asrwt>0</asrwt>
<pdfrwt beam="1">  1        2 0.70124280E-01 0.16504425E+04</pdfrwt>
<pdfrwt beam="2">  1       -2 0.22985061E+00 0.16504425E+04</pdfrwt>
<totfact> 0.56065228E+00</totfact>
</mgrwt>
</event>
<event>
 6    1  0.1568961E-005  0.1227205E+04  0.7818608E-02  0.9089372E-01
         -2   -1    0    0    0  501 -0.00000000000E+00  0.00000000000E+00  0.49361817190E+03  0.49361817190E+03  0.00000000000E+00 0.  1.
          2   -1    0    0  501    0  0.00000000000E+00 -0.00000000000E+00 -0.76275127515E+03  0.76275127515E+03  0.00000000000E+00 0. -1.
         23    2    1    2    0    0  0.30652358895E+03  0.28862883303E+03  0.31680197485E+03  0.53485490832E+03  0.91885623747E+02 0.  0.
         13    1    3    3    0    0  0.31032678744E+02  0.43941273525E+02  0.81543307576E+02  0.97689168691E+02  0.00000000000E+00 0.  1.
        -13    1    3    3    0    0  0.27549091020E+03  0.24468755950E+03  0.23525866727E+03  0.43716573963E+03  0.00000000000E+00 0. -1.
         22    1    1    2    0    0 -0.30652358895E+03 -0.28862883303E+03 -0.58593507811E+03  0.72151453872E+03  0.00000000000E+00 0. -1.
<mgrwt>
<rscale>  0 0.12272048E+04</rscale>
<asrwt>0</asrwt>
<pdfrwt beam="1">  1        2 0.11734635E+00 0.12272048E+04</pdfrwt>
<pdfrwt beam="2">  1       -2 0.75941258E-01 0.12272048E+04</pdfrwt>
<totfact> 0.56148650E+01</totfact>
</mgrwt>
</event>
<event>
 6    1  0.1568961E-005  0.8670917E+03  0.7818608E-02  0.9467680E-01
         -1   -1    0    0    0  501 -0.00000000000E+00  0.00000000000E+00  0.62024953750E+02  0.62024953750E+02  0.00000000000E+00 0.  1.
          1   -1    0    0  501    0  0.00000000000E+00 -0.00000000000E+00 -0.30304253066E+04  0.30304253066E+04  0.00000000000E+00 0. -1.
         23    2    1    2    0    0 -0.35742256203E+03  0.78959630599E+02 -0.22964755356E+04  0.23272911454E+04  0.92188279526E+02 0.  0.
         11    1    3    3    0    0 -0.29025200448E+03  0.10000395553E+03 -0.18486861659E+04  0.18740030836E+04  0.00000000000E+00 0.  1.
        -11    1    3    3    0    0 -0.67170557549E+02 -0.21044324928E+02 -0.44778936966E+03  0.45328806182E+03  0.00000000000E+00 0. -1.
         22    1    1    2    0    0  0.35742256203E+03 -0.78959630599E+02 -0.67192481731E+03  0.76515911497E+03  0.00000000000E+00 0.  1.
<mgrwt>
<rscale>  0 0.86709167E+03</rscale>
<asrwt>0</asrwt>
<pdfrwt beam="1">  1        1 0.46621916E+00 0.86709167E+03</pdfrwt>
<pdfrwt beam="2">  1       -1 0.95423030E-02 0.86709167E+03</pdfrwt>
<totfact> 0.40262056E+01</totfact>
</mgrwt>
</event>
<event>
 6    1  0.1568961E-005  0.2470886E+04  0.7818608E-02  0.8413432E-01
          1   -1    0    0  501    0  0.00000000000E+00  0.00000000000E+00  0.75026374325E+03  0.75026374325E+03  0.00000000000E+00 0. -1.
         -1   -1    0    0    0  501 -0.00000000000E+00 -0.00000000000E+00 -0.20343763146E+04  0.20343763146E+04  0.00000000000E+00 0.  1.
         23    2    1    2    0    0 -0.32662739712E+03 -0.11519152044E+04 -0.30724319768E+03  0.12393673091E+04  0.89659632483E+02 0.  0.
         11    1    3    3    0    0 -0.12040066711E+03 -0.29261759087E+03 -0.64355263398E+02  0.32289777802E+03  0.00000000000E+00 0.  1.
        -11    1    3    3    0    0 -0.20622673001E+03 -0.85929761355E+03 -0.24288793428E+03  0.91646953110E+03  0.00000000000E+00 0. -1.
         22    1    1    2    0    0  0.32662739712E+03  0.11519152044E+04 -0.97686937363E+03  0.15452727487E+04  0.00000000000E+00 0.  1.
<mgrwt>
<rscale>  0 0.24708855E+04</rscale>
<asrwt>0</asrwt>
<pdfrwt beam="1">  1        1 0.11542519E+00 0.24708855E+04</pdfrwt>
<pdfrwt beam="2">  1       -1 0.31298097E+00 0.24708855E+04</pdfrwt>
<totfact> 0.59300582E-01</totfact>
</mgrwt>
</event>
<event>
 6    1  0.1568961E-005  0.2952774E+04  0.7818608E-02  0.8257347E-01
         -2   -1    0    0    0  501 -0.00000000000E+00  0.00000000000E+00  0.17983923024E+04  0.17983923024E+04  0.00000000000E+00 0.  1.
          2   -1    0    0  501    0  0.00000000000E+00 -0.00000000000E+00 -0.12120369733E+04  0.12120369733E+04  0.00000000000E+00 0. -1.
         23    2    1    2    0    0 -0.90593659993E+03 -0.14164760374E+03 -0.88459332549E+03  0.12770870962E+04  0.87526755718E+02 0.  0.
         11    1    3    3    0    0 -0.23036375258E+03 -0.14334006441E+02 -0.26719143837E+03  0.35307815987E+03  0.00000000000E+00 0. -1.
        -11    1    3    3    0    0 -0.67557284735E+03 -0.12731359730E+03 -0.61740188712E+03  0.92400893629E+03  0.00000000000E+00 0.  1.
         22    1    1    2    0    0  0.90593659993E+03  0.14164760374E+03  0.14709486546E+04  0.17333421795E+04  0.00000000000E+00 0.  1.
<mgrwt>
<rscale>  0 0.29527736E+04</rscale>
<asrwt>0</asrwt>
<pdfrwt beam="1">  1        2 0.18646723E+00 0.29527736E+04</pdfrwt>
<pdfrwt beam="2">  1       -2 0.27667574E+00 0.29527736E+04</pdfrwt>
<totfact> 0.70639757E-01</totfact>
</mgrwt>
</event>
<event>
 6    1  0.1568961E-005  0.6754823E+03  0.7818608E-02  0.9760104E-01
         -1   -1    0    0    0  501 -0.00000000000E+00  0.00000000000E+00  0.26289159612E+03  0.26289159612E+03  0.00000000000E+00 0.  1.
          1   -1    0    0  501    0  0.00000000000E+00 -0.00000000000E+00 -0.43390163755E+03  0.43390163755E+03  0.00000000000E+00 0. -1.
         23    2    1    2    0    0  0.82316224782E+02 -0.34763427570E+02  0.24223957614E+03  0.27399339547E+03  0.91694665909E+02 0.  0.
         11    1    3    3    0    0  0.24907387158E+02 -0.41322031067E+02  0.37076394460E+02  0.60848559660E+02  0.00000000000E+00 0. -1.
        -11    1    3    3    0    0  0.57408837624E+02  0.65586034968E+01  0.20516318168E+03  0.21314483581E+03  0.00000000000E+00 0.  1.
         22    1    1    2    0    0 -0.82316224782E+02  0.34763427570E+02 -0.41324961757E+03  0.42279983820E+03  0.00000000000E+00 0. -1.
<mgrwt>
<rscale>  0 0.67548233E+03</rscale>
<asrwt>0</asrwt>
<pdfrwt beam="1">  1        1 0.66754098E-01 0.67548233E+03</pdfrwt>
<pdfrwt beam="2">  1       -1 0.40444861E-01 0.67548233E+03</pdfrwt>
<totfact> 0.32517570E+02</totfact>
</mgrwt>
</event>
<event>
 6    1  0.1568961E-005  0.2777042E+04  0.7818608E-02  0.8310431E-01
         -2   -1    0    0    0  501 -0.00000000000E+00  0.00000000000E+00  0.61107767684E+03  0.61107767684E+03  0.00000000000E+00 0.  1.
          2   -1    0    0  501    0  0.00000000000E+00 -0.00000000000E+00 -0.31550672587E+04  0.31550672587E+04  0.00000000000E+00 0. -1.
         23    2    1    2    0    0 -0.85608964040E+03  0.93080174218E+03 -0.50077229636E+03  0.13632262454E+04  0.91277312252E+02 0.  0.
         11    1    3    3    0    0 -0.16290569421E+03  0.13753382527E+03 -0.10734773679E+03  0.23869929806E+03  0.00000000000E+00 0.  1.
        -11    1    3    3    0    0 -0.69318394619E+03  0.79326791691E+03 -0.39342455957E+03  0.11245269474E+04  0.00000000000E+00 0. -1.
         22    1    1    2    0    0  0.85608964040E+03 -0.93080174218E+03 -0.20432172855E+04  0.24029186902E+04  0.00000000000E+00 0. -1.
<mgrwt>
<rscale>  0 0.27770424E+04</rscale>
<asrwt>0</asrwt>
<pdfrwt beam="1">  1        2 0.48539495E+00 0.27770424E+04</pdfrwt>
<pdfrwt beam="2">  1       -2 0.94011952E-01 0.27770424E+04</pdfrwt>
<totfact> 0.11543994E+00</totfact>
</mgrwt>
</event>
<event>
 6    1  0.1568961E-005  0.2142140E+04  0.7818608E-02  0.8542904E-01
          2   -1    0    0  501    0  0.00000000000E+00  0.00000000000E+00  0.10892966168E+04  0.10892966168E+04  0.00000000000E+00 0. -1.
         -2   -1    0    0    0  501 -0.00000000000E+00 -0.00000000000E+00 -0.10531479204E+04  0.10531479204E+04  0.00000000000E+00 0.  1.
         23    2    1    2    0    0  0.37793448531E+03 -0.51830550169E+03  0.87352632199E+03  0.10876097843E+04  0.91497209877E+02 0.  0.
         11    1    3    3    0    0  0.24660272713E+03 -0.37512242312E+03  0.54674804550E+03  0.70743421080E+03  0.00000000000E+00 0.  1.
        -11    1    3    3    0    0  0.13133175818E+03 -0.14318307858E+03  0.32677827648E+03  0.38017557349E+03  0.00000000000E+00 0. -1.
         22    1    1    2    0    0 -0.37793448531E+03  0.51830550169E+03 -0.83737762551E+03  0.10548347529E+04  0.00000000000E+00 0.  1.
<mgrwt>
<rscale>  0 0.21421396E+04</rscale>
<asrwt>0</asrwt>
<pdfrwt beam="1">  1        2 0.16758410E+00 0.21421396E+04</pdfrwt>
<pdfrwt beam="2">  1       -2 0.16202276E+00 0.21421396E+04</pdfrwt>
<totfact> 0.49444589E+00</totfact>
</mgrwt>
</event>
<event>
 6    1  0.1568961E-005  0.3944988E+04  0.7818608E-02  0.8015737E-01
         -2   -1    0    0    0  501 -0.00000000000E+00  0.00000000000E+00  0.18585501179E+04  0.18585501179E+04  0.00000000000E+00 0.  1.
          2   -1    0    0  501    0  0.00000000000E+00 -0.00000000000E+00 -0.20934233306E+04  0.20934233306E+04  0.00000000000E+00 0. -1.
         23    2    1    2    0    0 -0.11452835789E+04  0.83943996988E+03 -0.14876981309E+04  0.20583250612E+04  0.84394252131E+02 0.  0.
         13    1    3    3    0    0 -0.60187606303E+03  0.45437723006E+03 -0.84880856942E+03  0.11354247883E+04  0.00000000000E+00 0. -1.
        -13    1    3    3    0    0 -0.54340751589E+03  0.38506273982E+03 -0.63888956145E+03  0.92290027287E+03  0.00000000000E+00 0.  1.
         22    1    1    2    0    0  0.11452835789E+04 -0.83943996988E+03  0.12528249182E+04  0.18936483873E+04  0.00000000000E+00 0.  1.
<mgrwt>
<rscale>  0 0.39449878E+04</rscale>
<asrwt>0</asrwt>
<pdfrwt beam="1">  1        2 0.32206513E+00 0.39449878E+04</pdfrwt>
<pdfrwt beam="2">  1       -2 0.28593079E+00 0.39449878E+04</pdfrwt>
<totfact> 0.18194063E-01</totfact>
</mgrwt>
</event>
<event>
 6    1  0.1568961E-005  0.6540974E+03  0.7818608E-02  0.9799121E-01
          1   -1    0    0  501    0  0.00000000000E+00  0.00000000000E+00  0.12904130426E+04  0.12904130426E+04  0.00000000000E+00 0. -1.
         -1   -1    0    0    0  501 -0.00000000000E+00 -0.00000000000E+00 -0.82888860905E+02  0.82888860905E+02  0.00000000000E+00 0.  1.
         23    2    1    2    0    0  0.88136714460E+01  0.29541139851E+03  0.35190620328E+03  0.46807944457E+03  0.88965247976E+02 0.  0.
         13    1    3    3    0    0 -0.40029162016E+02  0.14729732760E+03  0.17012513340E+03  0.22856377129E+03  0.00000000000E+00 0.  1.
        -13    1    3    3    0    0  0.48842833462E+02  0.14811407092E+03  0.18178106988E+03  0.23951567328E+03  0.00000000000E+00 0. -1.
         22    1    1    2    0    0 -0.88136714460E+01 -0.29541139851E+03  0.85561797846E+03  0.90522245898E+03  0.00000000000E+00 0. -1.
<mgrwt>
<rscale>  0 0.65409745E+03</rscale>
<asrwt>0</asrwt>
<pdfrwt beam="1">  1        1 0.19852507E+00 0.65409745E+03</pdfrwt>
<pdfrwt beam="2">  1       -1 0.12752133E-01 0.65409745E+03</pdfrwt>
<totfact> 0.40080353E+02</totfact>
</mgrwt>
</event>
<event>
 6    1  0.1568961E-005  0.1644296E+04  0.7818608E-02  0.8793788E-01
         -2   -1    0    0    0  501 -0.00000000000E+00  0.00000000000E+00  0.55784529498E+03  0.55784529498E+03  0.00000000000E+00 0.  1.
          2   -1    0    0  501    0  0.00000000000E+00 -0.00000000000E+00 -0.12116756038E+04  0.12116756038E+04  0.00000000000E+00 0. -1.
         23    2    1    2    0    0  0.46836986472E+03  0.65551448829E+03 -0.49016536448E+03  0.94741641120E+03  0.90918629177E+02 0.  0.
         13    1    3    3    0    0  0.34335111465E+03  0.42999449016E+03 -0.29749939229E+03  0.62553268333E+03  0.00000000000E+00 0. -1.
        -13    1    3    3    0    0  0.12501875007E+03  0.22551999813E+03 -0.19266597219E+03  0.32188372787E+03  0.00000000000E+00 0.  1.
         22    1    1    2    0    0 -0.46836986472E+03 -0.65551448829E+03 -0.16366494436E+03  0.82210448761E+03  0.00000000000E+00 0.  1.
<mgrwt>
<rscale>  0 0.16442962E+04</rscale>
<asrwt>0</asrwt>
<pdfrwt beam="1">  1        2 0.18641163E+00 0.16442962E+04</pdfrwt>
<pdfrwt beam="2">  1       -2 0.85822353E-01 0.16442962E+04</pdfrwt>
<totfact> 0.20999418E+01</totfact>
</mgrwt>
</event>
<event>
 6    1  0.1568961E-005  0.3370757E+04  0.7818608E-02  0.8145121E-01
         -2   -1    0    0    0  501 -0.00000000000E+00  0.00000000000E+00  0.78608367245E+03  0.78608367245E+03  0.00000000000E+00 0.  1.
          2   -1    0    0  501    0  0.00000000000E+00 -0.00000000000E+00 -0.36134832687E+04  0.36134832687E+04  0.00000000000E+00 0. -1.
         23    2    1    2    0    0  0.86162706264E+03  0.14456731645E+04 -0.14940687123E+04  0.22524425061E+04  0.94254086051E+02 0.  0.
         13    1    3    3    0    0  0.30919197620E+03  0.45883741079E+03 -0.53387365887E+03  0.76886444275E+03  0.00000000000E+00 0.  1.
        -13    1    3    3    0    0  0.55243508644E+03  0.98683575366E+03 -0.96019505339E+03  0.14835780633E+04  0.00000000000E+00 0. -1.
         22    1    1    2    0    0 -0.86162706264E+03 -0.14456731645E+04 -0.13333308840E+04  0.21471244351E+04  0.00000000000E+00 0.  1.
<mgrwt>
<rscale>  0 0.33707567E+04</rscale>
<asrwt>0</asrwt>
<pdfrwt beam="1">  1        2 0.55592051E+00 0.33707567E+04</pdfrwt>
<pdfrwt beam="2">  1       -2 0.12093595E+00 0.33707567E+04</pdfrwt>
<totfact> 0.29150362E-01</totfact>
</mgrwt>
</event>
<event>
 6    1  0.1568961E-005  0.3251669E+04  0.7818608E-02  0.8175303E-01
         -2   -1    0    0    0  501 -0.00000000000E+00  0.00000000000E+00  0.15761429625E+04  0.15761429625E+04  0.00000000000E+00 0.  1.
          2   -1    0    0  501    0  0.00000000000E+00 -0.00000000000E+00 -0.16770931719E+04  0.16770931719E+04  0.00000000000E+00 0. -1.
         23    2    1    2    0    0  0.65039042865E+03 -0.11396683665E+04 -0.10088520196E+04  0.16575740799E+04  0.88981670890E+02 0.  0.
         13    1    3    3    0    0  0.23311024260E+03 -0.41811473972E+03 -0.31499323046E+03  0.57304542229E+03  0.00000000000E+00 0. -1.
        -13    1    3    3    0    0  0.41728018605E+03 -0.72155362680E+03 -0.69385878913E+03  0.10845286577E+04  0.00000000000E+00 0.  1.
         22    1    1    2    0    0 -0.65039042865E+03  0.11396683665E+04  0.90790181017E+03  0.15956620545E+04  0.00000000000E+00 0.  1.
<mgrwt>
<rscale>  0 0.32516695E+04</rscale>
<asrwt>0</asrwt>
<pdfrwt beam="1">  1        2 0.25801433E+00 0.32516695E+04</pdfrwt>
<pdfrwt beam="2">  1       -2 0.24248353E+00 0.32516695E+04</pdfrwt>
<totfact> 0.60550887E-01</totfact>
</mgrwt>
</event>
<event>
 6    1  0.1568961E-005  0.1339447E+04  0.7818608E-02  0.8998856E-01
         -2   -1    0    0    0  501 -0.00000000000E+00  0.00000000000E+00  0.10269305755E+03  0.10269305755E+03  0.00000000000E+00 0.  1.
          2   -1    0    0  501    0  0.00000000000E+00 -0.00000000000E+00 -0.43676692363E+04  0.43676692363E+04  0.00000000000E+00 0. -1.
         23    2    1    2    0    0 -0.65310341737E+03 -0.31628471461E+02 -0.25480354331E+04  0.26331279707E+04  0.11547254171E+03 0.  0.
         11    1    3    3    0    0 -0.26495367485E+01 -0.66135688868E+01 -0.68000288322E+01  0.98488441211E+01  0.00000000000E+00 0.  1.
        -11    1    3    3    0    0 -0.65045388063E+03 -0.25014902574E+02 -0.25412354043E+04  0.26232791266E+04  0.00000000000E+00 0. -1.
         22    1    1    2    0    0  0.65310341737E+03  0.31628471461E+02 -0.17169407457E+04  0.18372343232E+04  0.00000000000E+00 0. -1.
<mgrwt>
<rscale>  0 0.13394466E+04</rscale>
<asrwt>0</asrwt>
<pdfrwt beam="1">  1        2 0.67194917E+00 0.13394466E+04</pdfrwt>
<pdfrwt beam="2">  1       -2 0.15798931E-01 0.13394466E+04</pdfrwt>
<totfact> 0.53908479E+00</totfact>
</mgrwt>
</event>
<event>
 6    1  0.1568961E-005  0.3420123E+04  0.7818608E-02  0.8132985E-01
          1   -1    0    0  501    0  0.00000000000E+00  0.00000000000E+00  0.26282416353E+04  0.26282416353E+04  0.00000000000E+00 0. -1.
         -1   -1    0    0    0  501 -0.00000000000E+00 -0.00000000000E+00 -0.11126491675E+04  0.11126491675E+04  0.00000000000E+00 0.  1.
         23    2    1    2    0    0 -0.99907689807E+03  0.56709149835E+02 -0.75679994214E+03  0.12579212418E+04  0.90824678231E+02 0.  0.
         13    1    3    3    0    0 -0.17809850294E+03 -0.24540841347E+02 -0.13183579200E+03  0.22293946644E+03  0.00000000000E+00 0. -1.
        -13    1    3    3    0    0 -0.82097839513E+03  0.81249991182E+02 -0.62496415014E+03  0.10349817753E+04  0.00000000000E+00 0.  1.
         22    1    1    2    0    0  0.99907689807E+03 -0.56709149835E+02  0.22723924099E+04  0.24829695610E+04  0.00000000000E+00 0. -1.
<mgrwt>
<rscale>  0 0.34201233E+04</rscale>
<asrwt>0</asrwt>
<pdfrwt beam="1">  1        1 0.40434486E+00 0.34201233E+04</pdfrwt>
<pdfrwt beam="2">  1       -1 0.17117680E+00 0.34201233E+04</pdfrwt>
<totfact> 0.21833234E-01</totfact>
</mgrwt>
</event>
<event>
 6    1  0.1777365E-005  0.3125618E+04  0.7818608E-02  0.8208742E-01
         -1   -1    0    0    0  501 -0.00000000000E+00  0.00000000000E+00  0.18397888871E+04  0.18397888871E+04  0.00000000000E+00 0.  1.
          1   -1    0    0  501    0  0.00000000000E+00 -0.00000000000E+00 -0.13275284292E+04  0.13275284292E+04  0.00000000000E+00 0. -1.
         23    2    1    2    0    0 -0.64779658061E+03 -0.79688240807E+00 -0.11833651872E+04  0.13521623992E+04  0.91372549314E+02 0.  0.
         13    1    3    3    0    0 -0.49038537369E+03 -0.22282448187E+02 -0.82211867284E+03  0.95752463908E+03  0.00000000000E+00 0.  1.
        -13    1    3    3    0    0 -0.15741120692E+03  0.21485565779E+02 -0.36124651435E+03  0.39463776014E+03  0.00000000000E+00 0. -1.
         22    1    1    2    0    0  0.64779658061E+03  0.79688240807E+00  0.16956256451E+04  0.18151549171E+04  0.00000000000E+00 0.  1.
<mgrwt>
<rscale>  0 0.31256181E+04</rscale>
<asrwt>0</asrwt>
<pdfrwt beam="1">  1        1 0.20423514E+00 0.31256181E+04</pdfrwt>
<pdfrwt beam="2">  1       -1 0.28304444E+00 0.31256181E+04</pdfrwt>
<totfact> 0.30957952E-01</totfact>
</mgrwt>
</event>
<event>
 6    1  0.1568961E-005  0.1665928E+04  0.7818608E-02  0.8781039E-01
         -2   -1    0    0    0  501 -0.00000000000E+00  0.00000000000E+00  0.24641837030E+03  0.24641837030E+03  0.00000000000E+00 0.  1.
          2   -1    0    0  501    0  0.00000000000E+00 -0.00000000000E+00 -0.28156542277E+04  0.28156542277E+04  0.00000000000E+00 0. -1.
         23    2    1    2    0    0 -0.68368984722E+03 -0.44111480910E+03 -0.15936471231E+04  0.17917232522E+04  0.92449863869E+02 0.  0.
         13    1    3    3    0    0 -0.23326377758E+03 -0.16875841277E+03 -0.65683364182E+03  0.71716234204E+03  0.00000000000E+00 0.  1.
        -13    1    3    3    0    0 -0.45042606963E+03 -0.27235639633E+03 -0.93681348132E+03  0.10745609101E+04  0.00000000000E+00 0. -1.
         22    1    1    2    0    0  0.68368984722E+03  0.44111480910E+03 -0.97558873423E+03  0.12703493458E+04  0.00000000000E+00 0.  1.
<mgrwt>
<rscale>  0 0.16659279E+04</rscale>
<asrwt>0</asrwt>
<pdfrwt beam="1">  1        2 0.43317756E+00 0.16659279E+04</pdfrwt>
<pdfrwt beam="2">  1       -2 0.37910519E-01 0.16659279E+04</pdfrwt>
<totfact> 0.14228064E+01</totfact>
</mgrwt>
</event>
<event>
 6    1  0.1568961E-005  0.1274174E+04  0.7818608E-02  0.9050300E-01
         -2   -1    0    0    0  501 -0.00000000000E+00  0.00000000000E+00  0.15837890676E+03  0.15837890676E+03  0.00000000000E+00 0.  1.
          2   -1    0    0  501    0  0.00000000000E+00 -0.00000000000E+00 -0.25627152472E+04  0.25627152472E+04  0.00000000000E+00 0. -1.
         23    2    1    2    0    0  0.71219919455E+02 -0.62158082996E+03 -0.14126172382E+04  0.15485150381E+04  0.10476810867E+03 0.  0.
         11    1    3    3    0    0  0.34587377337E+02 -0.30622660323E+03 -0.56824111494E+03  0.64642786442E+03  0.00000000000E+00 0. -1.
        -11    1    3    3    0    0  0.36632542118E+02 -0.31535422674E+03 -0.84437612321E+03  0.90208717368E+03  0.00000000000E+00 0.  1.
         22    1    1    2    0    0 -0.71219919455E+02  0.62158082996E+03 -0.99171910228E+03  0.11725791159E+04  0.00000000000E+00 0.  1.
<mgrwt>
<rscale>  0 0.12741743E+04</rscale>
<asrwt>0</asrwt>
<pdfrwt beam="1">  1        2 0.39426387E+00 0.12741743E+04</pdfrwt>
<pdfrwt beam="2">  1       -2 0.24365987E-01 0.12741743E+04</pdfrwt>
<totfact> 0.47506268E+01</totfact>
</mgrwt>
</event>
<event>
 6    1  0.1568961E-005  0.5877224E+04  0.7818608E-02  0.7705814E-01
          2   -1    0    0  501    0  0.00000000000E+00  0.00000000000E+00  0.35492975535E+04  0.35492975535E+04  0.00000000000E+00 0.  1.
         -2   -1    0    0    0  501 -0.00000000000E+00 -0.00000000000E+00 -0.24330001797E+04  0.24330001797E+04  0.00000000000E+00 0. -1.
         23    2    1    2    0    0 -0.23516178912E+04  0.30275354868E+03  0.23240814194E+04  0.33213752017E+04  0.91718966933E+02 0.  0.
         11    1    3    3    0    0 -0.19423717700E+04  0.24079749615E+03  0.18703087756E+04  0.27071842278E+04  0.00000000000E+00 0.  1.
        -11    1    3    3    0    0 -0.40924612122E+03  0.61956052537E+02  0.45377264383E+03  0.61419097394E+03  0.00000000000E+00 0. -1.
         22    1    1    2    0    0  0.23516178912E+04 -0.30275354868E+03 -0.12077840456E+04  0.26609225315E+04  0.00000000000E+00 0. -1.
<mgrwt>
<rscale>  0 0.58772244E+04</rscale>
<asrwt>0</asrwt>
<pdfrwt beam="1">  1        2 0.54604578E+00 0.58772244E+04</pdfrwt>
<pdfrwt beam="2">  1       -2 0.37430772E+00 0.58772244E+04</pdfrwt>
<totfact> 0.55449059E-03</totfact>
</mgrwt>
</event>
<event>
 6    1  0.1568961E-005  0.1324994E+04  0.7818608E-02  0.9009976E-01
         -1   -1    0    0    0  501 -0.00000000000E+00  0.00000000000E+00  0.77802628183E+03  0.77802628183E+03  0.00000000000E+00 0.  1.
          1   -1    0    0  501    0  0.00000000000E+00 -0.00000000000E+00 -0.56412290681E+03  0.56412290681E+03  0.00000000000E+00 0. -1.
         23    2    1    2    0    0  0.54864008728E+03 -0.81926810763E+02  0.46849771781E+03  0.73179173020E+03  0.91165109063E+02 0.  0.
         13    1    3    3    0    0  0.31226221792E+03 -0.82508566350E+02  0.23407031368E+03  0.39887876354E+03  0.00000000000E+00 0.  1.
        -13    1    3    3    0    0  0.23637786936E+03  0.58175558683E+00  0.23442740413E+03  0.33291296666E+03  0.00000000000E+00 0. -1.
         22    1    1    2    0    0 -0.54864008728E+03  0.81926810763E+02 -0.25459434279E+03  0.61035745844E+03  0.00000000000E+00 0. -1.
<mgrwt>
<rscale>  0 0.13249943E+04</rscale>
<asrwt>0</asrwt>
<pdfrwt beam="1">  1        1 0.86788140E-01 0.13249943E+04</pdfrwt>
<pdfrwt beam="2">  1       -1 0.11969635E+00 0.13249943E+04</pdfrwt>
<totfact> 0.22868633E+01</totfact>
</mgrwt>
</event>
<event>
 6    1  0.1568961E-005  0.1253200E+04  0.7818608E-02  0.9067524E-01
          2   -1    0    0  501    0  0.00000000000E+00  0.00000000000E+00  0.23931382396E+04  0.23931382396E+04  0.00000000000E+00 0.  1.
         -2   -1    0    0    0  501 -0.00000000000E+00 -0.00000000000E+00 -0.16406387011E+03  0.16406387011E+03  0.00000000000E+00 0. -1.
         23    2    1    2    0    0 -0.40353390261E+03 -0.23559209014E+03  0.19620427682E+04  0.20190115119E+04  0.91937029142E+02 0.  0.
         13    1    3    3    0    0 -0.29986055853E+03 -0.20750709094E+03  0.16183910448E+04  0.16589650754E+04  0.00000000000E+00 0. -1.
        -13    1    3    3    0    0 -0.10367334408E+03 -0.28084999202E+02  0.34365172339E+03  0.36004643651E+03  0.00000000000E+00 0.  1.
         22    1    1    2    0    0  0.40353390261E+03  0.23559209014E+03  0.26703160127E+03  0.53819059781E+03  0.00000000000E+00 0. -1.
<mgrwt>
<rscale>  0 0.12531999E+04</rscale>
<asrwt>0</asrwt>
<pdfrwt beam="1">  1        2 0.36817509E+00 0.12531999E+04</pdfrwt>
<pdfrwt beam="2">  1       -2 0.25240597E-01 0.12531999E+04</pdfrwt>
<totfact> 0.55851103E+01</totfact>
</mgrwt>
</event>
<event>
 6    1  0.1568961E-005  0.2766334E+04  0.7818608E-02  0.8313797E-01
         -2   -1    0    0    0  501 -0.00000000000E+00  0.00000000000E+00  0.79537091339E+03  0.79537091339E+03  0.00000000000E+00 0.  1.
          2   -1    0    0  501    0  0.00000000000E+00 -0.00000000000E+00 -0.24053573607E+04  0.24053573607E+04  0.00000000000E+00 0. -1.
         23    2    1    2    0    0 -0.55447525300E+03  0.12504837489E+04 -0.58049393754E+03  0.14887098045E+04  0.90173487655E+02 0.  0.
         11    1    3    3    0    0 -0.28767189379E+03  0.56286096998E+03 -0.29880746657E+03  0.69918058617E+03  0.00000000000E+00 0.  1.
        -11    1    3    3    0    0 -0.26680335922E+03  0.68762277896E+03 -0.28168647097E+03  0.78952921831E+03  0.00000000000E+00 0. -1.
         22    1    1    2    0    0  0.55447525300E+03 -0.12504837489E+04 -0.10294925097E+04  0.17120184696E+04  0.00000000000E+00 0. -1.
<mgrwt>
<rscale>  0 0.27663342E+04</rscale>
<asrwt>0</asrwt>
<pdfrwt beam="1">  1        2 0.37005497E+00 0.27663342E+04</pdfrwt>
<pdfrwt beam="2">  1       -2 0.12236476E+00 0.27663342E+04</pdfrwt>
<totfact> 0.17417792E+00</totfact>
</mgrwt>
</event>
<event>
 6    1  0.1568961E-005  0.2323049E+04  0.7818608E-02  0.8468888E-01
         -1   -1    0    0    0  501 -0.00000000000E+00  0.00000000000E+00  0.40008148669E+03  0.40008148669E+03  0.00000000000E+00 0.  1.
          1   -1    0    0  501    0  0.00000000000E+00 -0.00000000000E+00 -0.33721622628E+04  0.33721622628E+04  0.00000000000E+00 0. -1.
         23    2    1    2    0    0  0.69968505406E+03  0.87445397305E+03 -0.19771157246E+04  0.22741835439E+04  0.93248468768E+02 0.  0.
         11    1    3    3    0    0  0.22678865177E+03  0.21720480380E+03 -0.56468058192E+03  0.64612319179E+03  0.00000000000E+00 0.  1.
        -11    1    3    3    0    0  0.47289640228E+03  0.65724916925E+03 -0.14124351427E+04  0.16280603521E+04  0.00000000000E+00 0. -1.
         22    1    1    2    0    0 -0.69968505406E+03 -0.87445397305E+03 -0.99496505143E+03  0.14980602055E+04  0.00000000000E+00 0.  1.
<mgrwt>
<rscale>  0 0.23230495E+04</rscale>
<asrwt>0</asrwt>
<pdfrwt beam="1">  1        1 0.51879421E+00 0.23230495E+04</pdfrwt>
<pdfrwt beam="2">  1       -1 0.61550997E-01 0.23230495E+04</pdfrwt>
<totfact> 0.76040247E-01</totfact>
</mgrwt>
</event>
<event>
 6    1  0.1568961E-005  0.1496705E+04  0.7818608E-02  0.8886647E-01
         -1   -1    0    0    0  501 -0.00000000000E+00  0.00000000000E+00  0.44053831347E+03  0.44053831347E+03  0.00000000000E+00 0. -1.
          1   -1    0    0  501    0  0.00000000000E+00 -0.00000000000E+00 -0.12712436019E+04  0.12712436019E+04  0.00000000000E+00 0.  1.
         23    2    1    2    0    0  0.11402744970E+03  0.34242408908E+03  0.33004715133E+03  0.49621507539E+03  0.83915212423E+02 0.  0.
         11    1    3    3    0    0  0.99196037884E+02  0.17811333946E+03  0.20577771885E+03  0.28966995909E+03  0.00000000000E+00 0. -1.
        -11    1    3    3    0    0  0.14831411812E+02  0.16431074962E+03  0.12426943248E+03  0.20654511630E+03  0.00000000000E+00 0.  1.
         22    1    1    2    0    0 -0.11402744970E+03 -0.34242408908E+03 -0.11607524397E+04  0.12155668400E+04  0.00000000000E+00 0.  1.
<mgrwt>
<rscale>  0 0.14967051E+04</rscale>
<asrwt>0</asrwt>
<pdfrwt beam="1">  1        1 0.19557594E+00 0.14967051E+04</pdfrwt>
<pdfrwt beam="2">  1       -1 0.67775124E-01 0.14967051E+04</pdfrwt>
<totfact> 0.20233658E+01</totfact>
</mgrwt>
</event>
<event>
 6    1  0.1568961E-005  0.2968743E+03  0.7818608E-02  0.1086814E+00
          2   -1    0    0  501    0  0.00000000000E+00  0.00000000000E+00  0.28423675047E+03  0.28423675047E+03  0.00000000000E+00 0. -1.
         -2   -1    0    0    0  501 -0.00000000000E+00 -0.00000000000E+00 -0.77518451796E+02  0.77518451796E+02  0.00000000000E+00 0.  1.
         23    2    1    2    0    0 -0.10221005964E+03 -0.87318858100E+02  0.10585971835E+03  0.19369588983E+03  0.90776310205E+02 0.  0.
         11    1    3    3    0    0 -0.39288877775E+02  0.87099902786E+01  0.54943875508E+02  0.68105134192E+02  0.00000000000E+00 0. -1.
        -11    1    3    3    0    0 -0.62921181870E+02 -0.96028848379E+02  0.50915842842E+02  0.12559075564E+03  0.00000000000E+00 0.  1.
         22    1    1    2    0    0  0.10221005964E+03  0.87318858100E+02  0.10085858033E+03  0.16805931244E+03  0.00000000000E+00 0. -1.
<mgrwt>
<rscale>  0 0.29687434E+03</rscale>
<asrwt>0</asrwt>
<pdfrwt beam="1">  1        2 0.43728730E-01 0.29687434E+03</pdfrwt>
<pdfrwt beam="2">  1       -2 0.11925916E-01 0.29687434E+03</pdfrwt>
<totfact> 0.57716294E+03</totfact>
</mgrwt>
</event>
<event>
 6    1  0.1568961E-005  0.3887584E+04  0.7818608E-02  0.8027617E-01
         -2   -1    0    0    0  501 -0.00000000000E+00  0.00000000000E+00  0.17441371492E+04  0.17441371492E+04  0.00000000000E+00 0.  1.
          2   -1    0    0  501    0  0.00000000000E+00 -0.00000000000E+00 -0.21663013810E+04  0.21663013810E+04  0.00000000000E+00 0. -1.
         23    2    1    2    0    0 -0.10693812674E+04 -0.10385698213E+04  0.10419062389E+04  0.18210113569E+04  0.91160202973E+02 0.  0.
         11    1    3    3    0    0 -0.39301401346E+03 -0.40034655064E+03  0.44380244341E+03  0.71533068168E+03  0.00000000000E+00 0. -1.
        -11    1    3    3    0    0 -0.67636725398E+03 -0.63822327064E+03  0.59810379552E+03  0.11056806753E+04  0.00000000000E+00 0.  1.
         22    1    1    2    0    0  0.10693812674E+04  0.10385698213E+04 -0.14640704707E+04  0.20894271732E+04  0.00000000000E+00 0. -1.
<mgrwt>
<rscale>  0 0.38875837E+04</rscale>
<asrwt>0</asrwt>
<pdfrwt beam="1">  1        2 0.33327713E+00 0.38875837E+04</pdfrwt>
<pdfrwt beam="2">  1       -2 0.26832879E+00 0.38875837E+04</pdfrwt>
<totfact> 0.21309172E-01</totfact>
</mgrwt>
</event>
<event>
 6    1  0.1568961E-005  0.1449764E+04  0.7818608E-02  0.8918564E-01
          1   -1    0    0  501    0  0.00000000000E+00  0.00000000000E+00  0.49057765440E+03  0.49057765440E+03  0.00000000000E+00 0. -1.
         -1   -1    0    0    0  501 -0.00000000000E+00 -0.00000000000E+00 -0.10710922058E+04  0.10710922058E+04  0.00000000000E+00 0.  1.
         23    2    1    2    0    0 -0.30458790803E+03  0.21232594752E+03 -0.95850613830E+03  0.10318267311E+04  0.89868148346E+02 0.  0.
         13    1    3    3    0    0 -0.17239519004E+03  0.15530717526E+03 -0.67670268830E+03  0.71537888464E+03  0.00000000000E+00 0. -1.
        -13    1    3    3    0    0 -0.13219271799E+03  0.57018772257E+02 -0.28180345000E+03  0.31644784643E+03  0.00000000000E+00 0.  1.
         22    1    1    2    0    0  0.30458790803E+03 -0.21232594752E+03  0.37799158690E+03  0.52984312912E+03  0.00000000000E+00 0. -1.
<mgrwt>
<rscale>  0 0.14497640E+04</rscale>
<asrwt>0</asrwt>
<pdfrwt beam="1">  1        1 0.75473485E-01 0.14497640E+04</pdfrwt>
<pdfrwt beam="2">  1       -1 0.16478342E+00 0.14497640E+04</pdfrwt>
<totfact> 0.11886977E+01</totfact>
</mgrwt>
</event>
<event>
 6    1  0.1568961E-005  0.3544378E+04  0.7818608E-02  0.8103353E-01
         -2   -1    0    0    0  501 -0.00000000000E+00  0.00000000000E+00  0.15015917369E+04  0.15015917369E+04  0.00000000000E+00 0.  1.
          2   -1    0    0  501    0  0.00000000000E+00 -0.00000000000E+00 -0.20915494906E+04  0.20915494906E+04  0.00000000000E+00 0. -1.
         23    2    1    2    0    0  0.11002126046E+04  0.12382831972E+04  0.33987563145E+03  0.16935614909E+04  0.93925644246E+02 0.  0.
         11    1    3    3    0    0  0.22017724496E+03  0.20071684777E+03  0.42873853934E+02  0.30100405234E+03  0.00000000000E+00 0.  1.
        -11    1    3    3    0    0  0.88003535964E+03  0.10375663495E+04  0.29700177752E+03  0.13925574385E+04  0.00000000000E+00 0. -1.
         22    1    1    2    0    0 -0.11002126046E+04 -0.12382831972E+04 -0.92983338513E+03  0.18995797367E+04  0.00000000000E+00 0.  1.
<mgrwt>
<rscale>  0 0.35443778E+04</rscale>
<asrwt>0</asrwt>
<pdfrwt beam="1">  1        2 0.32177684E+00 0.35443778E+04</pdfrwt>
<pdfrwt beam="2">  1       -2 0.23101412E+00 0.35443778E+04</pdfrwt>
<totfact> 0.40980927E-01</totfact>
</mgrwt>
</event>
<event>
 6    1  0.1568961E-005  0.5936252E+04  0.7818608E-02  0.7698356E-01
          2   -1    0    0  501    0  0.00000000000E+00  0.00000000000E+00  0.45803379589E+04  0.45803379589E+04  0.00000000000E+00 0.  1.
         -2   -1    0    0    0  501 -0.00000000000E+00 -0.00000000000E+00 -0.19233889498E+04  0.19233889498E+04  0.00000000000E+00 0. -1.
         23    2    1    2    0    0 -0.67838490699E+03 -0.28791159339E+04  0.10692730078E+04  0.31466106272E+04  0.91099019862E+02 0.  0.
         11    1    3    3    0    0 -0.79826983510E+02 -0.42006483664E+03  0.12707398707E+03  0.44606570421E+03  0.00000000000E+00 0.  1.
        -11    1    3    3    0    0 -0.59855792348E+03 -0.24590510972E+04  0.94219902077E+03  0.27005449230E+04  0.00000000000E+00 0. -1.
         22    1    1    2    0    0  0.67838490699E+03  0.28791159339E+04  0.15876760012E+04  0.33571162815E+04  0.00000000000E+00 0.  1.
<mgrwt>
<rscale>  0 0.59362518E+04</rscale>
<asrwt>0</asrwt>
<pdfrwt beam="1">  1        2 0.70466737E+00 0.59362518E+04</pdfrwt>
<pdfrwt beam="2">  1       -2 0.29590599E+00 0.59362518E+04</pdfrwt>
<totfact> 0.23008449E-03</totfact>
</mgrwt>
</event>
<event>
 6    1  0.1568961E-005  0.4651787E+04  0.7818608E-02  0.7884589E-01
          1   -1    0    0  501    0  0.00000000000E+00  0.00000000000E+00  0.27102699050E+04  0.27102699050E+04  0.00000000000E+00 0. -1.
         -1   -1    0    0    0  501 -0.00000000000E+00 -0.00000000000E+00 -0.19960301793E+04  0.19960301793E+04  0.00000000000E+00 0.  1.
         23    2    1    2    0    0  0.11150680185E+04  0.92129273623E+03 -0.14844962409E+04  0.20744572237E+04  0.86525674054E+02 0.  0.
         11    1    3    3    0    0  0.44730972438E+03  0.38797157821E+03 -0.55058241802E+03  0.80854742226E+03  0.00000000000E+00 0.  1.
        -11    1    3    3    0    0  0.66775829408E+03  0.53332115802E+03 -0.93391382287E+03  0.12659098015E+04  0.00000000000E+00 0. -1.
         22    1    1    2    0    0 -0.11150680185E+04 -0.92129273623E+03  0.21987359667E+04  0.26318428606E+04  0.00000000000E+00 0. -1.
<mgrwt>
<rscale>  0 0.46517870E+04</rscale>
<asrwt>0</asrwt>
<pdfrwt beam="1">  1        1 0.41696460E+00 0.46517870E+04</pdfrwt>
<pdfrwt beam="2">  1       -1 0.30708156E+00 0.46517870E+04</pdfrwt>
<totfact> 0.21281459E-02</totfact>
</mgrwt>
</event>
<event>
 6    1  0.1568961E-005  0.1304964E+04  0.7818608E-02  0.9025638E-01
          2   -1    0    0  501    0  0.00000000000E+00  0.00000000000E+00  0.37467050428E+04  0.37467050428E+04  0.00000000000E+00 0. -1.
         -2   -1    0    0    0  501 -0.00000000000E+00 -0.00000000000E+00 -0.11362856348E+03  0.11362856348E+03  0.00000000000E+00 0.  1.
         23    2    1    2    0    0 -0.45740437416E+03 -0.41896548259E+03  0.23925113131E+04  0.24733394575E+04  0.92449183912E+02 0.  0.
         13    1    3    3    0    0 -0.16894533762E+03 -0.21688837276E+03  0.10411950374E+04  0.10768798444E+04  0.00000000000E+00 0. -1.
        -13    1    3    3    0    0 -0.28845903654E+03 -0.20207710983E+03  0.13513162757E+04  0.13964596131E+04  0.00000000000E+00 0.  1.
         22    1    1    2    0    0  0.45740437416E+03  0.41896548259E+03  0.12405651662E+04  0.13869941488E+04  0.00000000000E+00 0. -1.
<mgrwt>
<rscale>  0 0.13049639E+04</rscale>
<asrwt>0</asrwt>
<pdfrwt beam="1">  1        2 0.57641607E+00 0.13049639E+04</pdfrwt>
<pdfrwt beam="2">  1       -2 0.17481320E-01 0.13049639E+04</pdfrwt>
<totfact> 0.14651167E+01</totfact>
</mgrwt>
</event>
<event>
 6    1  0.1568961E-005  0.1799281E+04  0.7818608E-02  0.8706682E-01
          1   -1    0    0  501    0  0.00000000000E+00  0.00000000000E+00  0.14825335115E+04  0.14825335115E+04  0.00000000000E+00 0. -1.
         -1   -1    0    0    0  501 -0.00000000000E+00 -0.00000000000E+00 -0.54592592518E+03  0.54592592518E+03  0.00000000000E+00 0.  1.
         23    2    1    2    0    0 -0.17565729518E+02  0.86740411706E+03  0.72761433580E+03  0.11360600665E+04  0.92257226558E+02 0.  0.
         11    1    3    3    0    0 -0.15253332016E+02  0.48862682060E+03  0.35028020080E+03  0.60140257151E+03  0.00000000000E+00 0. -1.
        -11    1    3    3    0    0 -0.23123975015E+01  0.37877729646E+03  0.37733413500E+03  0.53465749497E+03  0.00000000000E+00 0.  1.
         22    1    1    2    0    0  0.17565729518E+02 -0.86740411706E+03  0.20899325050E+03  0.89239937019E+03  0.00000000000E+00 0.  1.
<mgrwt>
<rscale>  0 0.17992815E+04</rscale>
<asrwt>0</asrwt>
<pdfrwt beam="1">  1        1 0.22808208E+00 0.17992815E+04</pdfrwt>
<pdfrwt beam="2">  1       -1 0.83988604E-01 0.17992815E+04</pdfrwt>
<totfact> 0.89191954E+00</totfact>
</mgrwt>
</event>
<event>
 6    1  0.1568961E-005  0.1955881E+04  0.7818608E-02  0.8627530E-01
          2   -1    0    0  501    0  0.00000000000E+00  0.00000000000E+00  0.24556256265E+04  0.24556256265E+04  0.00000000000E+00 0. -1.
         -2   -1    0    0    0  501 -0.00000000000E+00 -0.00000000000E+00 -0.38945969894E+03  0.38945969894E+03  0.00000000000E+00 0.  1.
         23    2    1    2    0    0 -0.24774120570E+03 -0.63321055311E+03  0.20533576747E+04  0.21650152107E+04  0.93176245789E+02 0.  0.
         11    1    3    3    0    0 -0.14161188561E+03 -0.31719985850E+03  0.90984173754E+03  0.97390023296E+03  0.00000000000E+00 0. -1.
        -11    1    3    3    0    0 -0.10612932009E+03 -0.31601069460E+03  0.11435159372E+04  0.11911149778E+04  0.00000000000E+00 0.  1.
         22    1    1    2    0    0  0.24774120570E+03  0.63321055311E+03  0.12808252831E+02  0.68007011470E+03  0.00000000000E+00 0.  1.
<mgrwt>
<rscale>  0 0.19558806E+04</rscale>
<asrwt>0</asrwt>
<pdfrwt beam="1">  1        2 0.37778855E+00 0.19558806E+04</pdfrwt>
<pdfrwt beam="2">  1       -2 0.59916878E-01 0.19558806E+04</pdfrwt>
<totfact> 0.89492654E+00</totfact>
</mgrwt>
</event>
<event>
 6    1  0.1568961E-005  0.3737610E+04  0.7818608E-02  0.8059678E-01
         -1   -1    0    0    0  501 -0.00000000000E+00  0.00000000000E+00  0.20362774715E+04  0.20362774715E+04  0.00000000000E+00 0.  1.
          1   -1    0    0  501    0  0.00000000000E+00 -0.00000000000E+00 -0.17151065931E+04  0.17151065931E+04  0.00000000000E+00 0. -1.
         23    2    1    2    0    0 -0.12785056784E+04  0.97660503894E+03 -0.79156177346E+03  0.17952378209E+04  0.89300731403E+02 0.  0.
         11    1    3    3    0    0 -0.87169625208E+02  0.49053624377E+02 -0.68151576238E+02  0.12103486674E+03  0.00000000000E+00 0. -1.
        -11    1    3    3    0    0 -0.11913360532E+04  0.92755141456E+03 -0.72341019722E+03  0.16742029542E+04  0.00000000000E+00 0.  1.
         22    1    1    2    0    0  0.12785056784E+04 -0.97660503894E+03  0.11127326518E+04  0.19561462436E+04  0.00000000000E+00 0.  1.
<mgrwt>
<rscale>  0 0.37376104E+04</rscale>
<asrwt>0</asrwt>
<pdfrwt beam="1">  1        1 0.26386255E+00 0.37376104E+04</pdfrwt>
<pdfrwt beam="2">  1       -1 0.31327346E+00 0.37376104E+04</pdfrwt>
<totfact> 0.10077129E-01</totfact>
</mgrwt>
</event>
<event>
 6    1  0.1568961E-005  0.2729452E+04  0.7818608E-02  0.8325512E-01
          2   -1    0    0  501    0  0.00000000000E+00  0.00000000000E+00  0.21519312706E+04  0.21519312706E+04  0.00000000000E+00 0.  1.
         -2   -1    0    0    0  501 -0.00000000000E+00 -0.00000000000E+00 -0.86549113826E+03  0.86549113826E+03  0.00000000000E+00 0. -1.
         23    2    1    2    0    0  0.21448187318E+03 -0.65755116950E+03  0.19426295676E+04  0.20640281623E+04  0.89591313619E+02 0.  0.
         13    1    3    3    0    0  0.28410842907E+02 -0.55184872845E+02  0.25610638071E+03  0.26352044404E+03  0.00000000000E+00 0.  1.
        -13    1    3    3    0    0  0.18607103027E+03 -0.60236629666E+03  0.16865231869E+04  0.18005077183E+04  0.00000000000E+00 0. -1.
         22    1    1    2    0    0 -0.21448187318E+03  0.65755116950E+03 -0.65618943525E+03  0.95339424656E+03  0.00000000000E+00 0. -1.
<mgrwt>
<rscale>  0 0.27294523E+04</rscale>
<asrwt>0</asrwt>
<pdfrwt beam="1">  1        2 0.33106635E+00 0.27294523E+04</pdfrwt>
<pdfrwt beam="2">  1       -2 0.13315248E+00 0.27294523E+04</pdfrwt>
<totfact> 0.19652361E+00</totfact>
</mgrwt>
</event>
<event>
 6    1  0.1568961E-005  0.2905490E+04  0.7818608E-02  0.8271246E-01
         -1   -1    0    0    0  501 -0.00000000000E+00  0.00000000000E+00  0.87835430912E+03  0.87835430912E+03  0.00000000000E+00 0.  1.
          1   -1    0    0  501    0  0.00000000000E+00 -0.00000000000E+00 -0.24027531395E+04  0.24027531395E+04  0.00000000000E+00 0. -1.
         23    2    1    2    0    0 -0.89115957882E+03  0.29994574710E+03 -0.20114062958E+04  0.22221886049E+04  0.90741737858E+02 0.  0.
         11    1    3    3    0    0 -0.59150466380E+03  0.24048576016E+03 -0.13980377431E+04  0.15369517557E+04  0.00000000000E+00 0. -1.
        -11    1    3    3    0    0 -0.29965491502E+03  0.59459986946E+02 -0.61336855265E+03  0.68523684921E+03  0.00000000000E+00 0.  1.
         22    1    1    2    0    0  0.89115957882E+03 -0.29994574710E+03  0.48700746543E+03  0.10589188437E+04  0.00000000000E+00 0.  1.
<mgrwt>
<rscale>  0 0.29054904E+04</rscale>
<asrwt>0</asrwt>
<pdfrwt beam="1">  1        1 0.36965432E+00 0.29054904E+04</pdfrwt>
<pdfrwt beam="2">  1       -1 0.13513143E+00 0.29054904E+04</pdfrwt>
<totfact> 0.62335717E-01</totfact>
</mgrwt>
</event>
<event>
 6    1  0.1568961E-005  0.2892789E+04  0.7818608E-02  0.8275026E-01
          2   -1    0    0  501    0  0.00000000000E+00  0.00000000000E+00  0.23174813962E+04  0.23174813962E+04  0.00000000000E+00 0.  1.
         -2   -1    0    0    0  501 -0.00000000000E+00 -0.00000000000E+00 -0.90272882859E+03  0.90272882859E+03  0.00000000000E+00 0. -1.
         23    2    1    2    0    0  0.13964830985E+03  0.14374979707E+04  0.74229445353E+03  0.16270680524E+04  0.10221215883E+03 0.  0.
         13    1    3    3    0    0 -0.14660826713E+02  0.15302564276E+03  0.66606568700E+02  0.16753573402E+03  0.00000000000E+00 0.  1.
        -13    1    3    3    0    0  0.15430913656E+03  0.12844723279E+04  0.67568788483E+03  0.14595323184E+04  0.00000000000E+00 0. -1.
         22    1    1    2    0    0 -0.13964830985E+03 -0.14374979707E+04  0.67245811412E+03  0.15931421724E+04  0.00000000000E+00 0.  1.
<mgrwt>
<rscale>  0 0.28927891E+04</rscale>
<asrwt>0</asrwt>
<pdfrwt beam="1">  1        2 0.35653560E+00 0.28927891E+04</pdfrwt>
<pdfrwt beam="2">  1       -2 0.13888136E+00 0.28927891E+04</pdfrwt>
<totfact> 0.14031534E+00</totfact>
</mgrwt>
</event>
<event>
 6    1  0.1568961E-005  0.3939128E+04  0.7818608E-02  0.8016940E-01
         -1   -1    0    0    0  501 -0.00000000000E+00  0.00000000000E+00  0.25326840469E+04  0.25326840469E+04  0.00000000000E+00 0. -1.
          1   -1    0    0  501    0  0.00000000000E+00 -0.00000000000E+00 -0.15316486743E+04  0.15316486743E+04  0.00000000000E+00 0.  1.
         23    2    1    2    0    0 -0.10779059513E+04 -0.62417237325E+03  0.20735608110E+04  0.24206225255E+04  0.91030668453E+02 0.  0.
         13    1    3    3    0    0 -0.39636831611E+03 -0.27593707468E+03  0.83881836635E+03  0.96791805589E+03  0.00000000000E+00 0. -1.
        -13    1    3    3    0    0 -0.68153763524E+03 -0.34823529857E+03  0.12347424446E+04  0.14527044696E+04  0.00000000000E+00 0.  1.
         22    1    1    2    0    0  0.10779059513E+04  0.62417237325E+03 -0.10725254384E+04  0.16437101957E+04  0.00000000000E+00 0.  1.
<mgrwt>
<rscale>  0 0.39391279E+04</rscale>
<asrwt>0</asrwt>
<pdfrwt beam="1">  1        1 0.23563826E+00 0.39391279E+04</pdfrwt>
<pdfrwt beam="2">  1       -1 0.38964370E+00 0.39391279E+04</pdfrwt>
<totfact> 0.41146794E-02</totfact>
</mgrwt>
</event>
<event>
 6    1  0.1568961E-005  0.2716089E+04  0.7818608E-02  0.8329803E-01
         -1   -1    0    0    0  501 -0.00000000000E+00  0.00000000000E+00  0.16237451117E+04  0.16237451117E+04  0.00000000000E+00 0.  1.
          1   -1    0    0  501    0  0.00000000000E+00 -0.00000000000E+00 -0.11358216164E+04  0.11358216164E+04  0.00000000000E+00 0. -1.
         23    2    1    2    0    0  0.71614464703E+03 -0.10538916538E+04  0.71709187066E+03  0.14649359245E+04  0.90916108178E+02 0.  0.
         11    1    3    3    0    0  0.18288048226E+03 -0.25150755102E+03  0.21920148950E+03  0.38046105190E+03  0.00000000000E+00 0. -1.
        -11    1    3    3    0    0  0.53326416477E+03 -0.80238410273E+03  0.49789038116E+03  0.10844748726E+04  0.00000000000E+00 0.  1.
         22    1    1    2    0    0 -0.71614464703E+03  0.10538916538E+04 -0.22916837535E+03  0.12946308036E+04  0.00000000000E+00 0. -1.
<mgrwt>
<rscale>  0 0.27160890E+04</rscale>
<asrwt>0</asrwt>
<pdfrwt beam="1">  1        1 0.17474179E+00 0.27160890E+04</pdfrwt>
<pdfrwt beam="2">  1       -1 0.24980694E+00 0.27160890E+04</pdfrwt>
<totfact> 0.72661716E-01</totfact>
</mgrwt>
</event>
<event>
 6    1  0.1568961E-005  0.1587834E+04  0.7818608E-02  0.8828057E-01
         -2   -1    0    0    0  501 -0.00000000000E+00  0.00000000000E+00  0.39660156853E+03  0.39660156853E+03  0.00000000000E+00 0.  1.
          2   -1    0    0  501    0  0.00000000000E+00 -0.00000000000E+00 -0.15892622476E+04  0.15892622476E+04  0.00000000000E+00 0. -1.
         23    2    1    2    0    0 -0.71114767227E+03  0.33626015896E+03 -0.48702259880E+03  0.92911076710E+03  0.85169827512E+02 0.  0.
         11    1    3    3    0    0 -0.12277313017E+03  0.35362221232E+02 -0.52070593172E+02  0.13796765873E+03  0.00000000000E+00 0.  1.
        -11    1    3    3    0    0 -0.58837454211E+03  0.30089793773E+03 -0.43495200562E+03  0.79114310837E+03  0.00000000000E+00 0. -1.
         22    1    1    2    0    0  0.71114767227E+03 -0.33626015896E+03 -0.70563808026E+03  0.10567530490E+04  0.00000000000E+00 0. -1.
<mgrwt>
<rscale>  0 0.15878336E+04</rscale>
<asrwt>0</asrwt>
<pdfrwt beam="1">  1        2 0.24450188E+00 0.15878336E+04</pdfrwt>
<pdfrwt beam="2">  1       -2 0.61015627E-01 0.15878336E+04</pdfrwt>
<totfact> 0.27122458E+01</totfact>
</mgrwt>
</event>
<event>
 6    1  0.1568961E-005  0.1760992E+04  0.7818608E-02  0.8727323E-01
          1   -1    0    0  501    0  0.00000000000E+00  0.00000000000E+00  0.15543116339E+04  0.15543116339E+04  0.00000000000E+00 0. -1.
         -1   -1    0    0    0  501 -0.00000000000E+00 -0.00000000000E+00 -0.49878866227E+03  0.49878866227E+03  0.00000000000E+00 0.  1.
         23    2    1    2    0    0  0.69699995287E+03 -0.28093813371E+03 -0.36120498383E+00  0.75709622067E+03  0.91974929271E+02 0.  0.
         11    1    3    3    0    0  0.45764960073E+03 -0.14964900472E+03  0.29944251912E+02  0.48242578692E+03  0.00000000000E+00 0. -1.
        -11    1    3    3    0    0  0.23935035214E+03 -0.13128912899E+03 -0.30305456896E+02  0.27467043375E+03  0.00000000000E+00 0.  1.
         22    1    1    2    0    0 -0.69699995287E+03  0.28093813371E+03  0.10558841766E+04  0.12960040755E+04  0.00000000000E+00 0. -1.
<mgrwt>
<rscale>  0 0.17609918E+04</rscale>
<asrwt>0</asrwt>
<pdfrwt beam="1">  1        1 0.23912486E+00 0.17609918E+04</pdfrwt>
<pdfrwt beam="2">  1       -1 0.76736718E-01 0.17609918E+04</pdfrwt>
<totfact> 0.96775062E+00</totfact>
</mgrwt>
</event>
<event>
 6    1  0.1568961E-005  0.1057475E+04  0.7818608E-02  0.9247660E-01
          1   -1    0    0  501    0  0.00000000000E+00  0.00000000000E+00  0.37340611739E+04  0.37340611739E+04  0.00000000000E+00 0. -1.
         -1   -1    0    0    0  501 -0.00000000000E+00 -0.00000000000E+00 -0.74868505591E+02  0.74868505591E+02  0.00000000000E+00 0.  1.
         23    2    1    2    0    0 -0.12090339695E+03  0.49111883425E+03  0.13411878824E+04  0.14363864178E+04  0.92766722456E+02 0.  0.
         13    1    3    3    0    0 -0.13506712603E+03  0.40512970674E+03  0.11091831450E+04  0.11885539352E+04  0.00000000000E+00 0. -1.
        -13    1    3    3    0    0  0.14163729082E+02  0.85989127514E+02  0.23200473736E+03  0.24783248259E+03  0.00000000000E+00 0.  1.
         22    1    1    2    0    0  0.12090339695E+03 -0.49111883425E+03  0.23180047859E+04  0.23725432617E+04  0.00000000000E+00 0. -1.
<mgrwt>
<rscale>  0 0.10574754E+04</rscale>
<asrwt>0</asrwt>
<pdfrwt beam="1">  1        1 0.57447080E+00 0.10574754E+04</pdfrwt>
<pdfrwt beam="2">  1       -1 0.11518235E-01 0.10574754E+04</pdfrwt>
<totfact> 0.84529219E+00</totfact>
</mgrwt>
</event>
<event>
 6    1  0.1568961E-005  0.3978701E+04  0.7818608E-02  0.8008857E-01
          2   -1    0    0  501    0  0.00000000000E+00  0.00000000000E+00  0.27216835984E+04  0.27216835984E+04  0.00000000000E+00 0. -1.
         -2   -1    0    0    0  501 -0.00000000000E+00 -0.00000000000E+00 -0.14540686055E+04  0.14540686055E+04  0.00000000000E+00 0.  1.
         23    2    1    2    0    0 -0.16232465482E+04 -0.30931397718E+03 -0.52640855541E+03  0.17366693876E+04  0.91159759809E+02 0.  0.
         13    1    3    3    0    0 -0.12724264692E+04 -0.23529490407E+03 -0.45051717381E+03  0.13701819351E+04  0.00000000000E+00 0.  1.
        -13    1    3    3    0    0 -0.35082007901E+03 -0.74019073108E+02 -0.75891381604E+02  0.36648745248E+03  0.00000000000E+00 0. -1.
         22    1    1    2    0    0  0.16232465482E+04  0.30931397718E+03  0.17940235484E+04  0.24390828163E+04  0.00000000000E+00 0. -1.
<mgrwt>
<rscale>  0 0.39787006E+04</rscale>
<asrwt>0</asrwt>
<pdfrwt beam="1">  1        2 0.41872055E+00 0.39787006E+04</pdfrwt>
<pdfrwt beam="2">  1       -2 0.22370286E+00 0.39787006E+04</pdfrwt>
<totfact> 0.19071205E-01</totfact>
</mgrwt>
</event>
<event>
 6    1  0.1568961E-005  0.1241930E+04  0.7818608E-02  0.9076927E-01
          2   -1    0    0  501    0  0.00000000000E+00  0.00000000000E+00  0.26979303484E+03  0.26979303484E+03  0.00000000000E+00 0. -1.
         -2   -1    0    0    0  501 -0.00000000000E+00 -0.00000000000E+00 -0.14292349964E+04  0.14292349964E+04  0.00000000000E+00 0.  1.
         23    2    1    2    0    0 -0.46424200962E+03  0.31844274715E+01 -0.11401885720E+04  0.12343760356E+04  0.90130092144E+02 0.  0.
         13    1    3    3    0    0 -0.19122398867E+03  0.43911746790E+02 -0.44135952977E+03  0.48300423380E+03  0.00000000000E+00 0. -1.
        -13    1    3    3    0    0 -0.27301802095E+03 -0.40727319318E+02 -0.69882904219E+03  0.75137180178E+03  0.00000000000E+00 0.  1.
         22    1    1    2    0    0  0.46424200962E+03 -0.31844274715E+01 -0.19253389621E+02  0.46465199568E+03  0.00000000000E+00 0. -1.
<mgrwt>
<rscale>  0 0.12419302E+04</rscale>
<asrwt>0</asrwt>
<pdfrwt beam="1">  1        2 0.41506621E-01 0.12419302E+04</pdfrwt>
<pdfrwt beam="2">  1       -2 0.21988231E+00 0.12419302E+04</pdfrwt>
<totfact> 0.12043860E+01</totfact>
</mgrwt>
</event>
<event>
 6    1  0.1568961E-005  0.3720317E+04  0.7818608E-02  0.8063474E-01
         -2   -1    0    0    0  501 -0.00000000000E+00  0.00000000000E+00  0.14598266779E+04  0.14598266779E+04  0.00000000000E+00 0. -1.
          2   -1    0    0  501    0  0.00000000000E+00 -0.00000000000E+00 -0.23702746294E+04  0.23702746294E+04  0.00000000000E+00 0.  1.
         23    2    1    2    0    0  0.16681022504E+04 -0.77204288088E+03 -0.16791889792E+03  0.18476874445E+04  0.84479633451E+02 0.  0.
         13    1    3    3    0    0  0.15368663727E+04 -0.73254798257E+03 -0.14441997599E+03  0.17086374465E+04  0.00000000000E+00 0.  1.
        -13    1    3    3    0    0  0.13123587772E+03 -0.39494898309E+02 -0.23498921931E+02  0.13904999794E+03  0.00000000000E+00 0. -1.
         22    1    1    2    0    0 -0.16681022504E+04  0.77204288088E+03 -0.74252905358E+03  0.19824138627E+04  0.00000000000E+00 0. -1.
<mgrwt>
<rscale>  0 0.37203173E+04</rscale>
<asrwt>0</asrwt>
<pdfrwt beam="1">  1        2 0.36465763E+00 0.37203173E+04</pdfrwt>
<pdfrwt beam="2">  1       -2 0.22458872E+00 0.37203173E+04</pdfrwt>
<totfact> 0.30849174E-01</totfact>
</mgrwt>
</event>
<event>
 6    1  0.1568961E-005  0.3869342E+04  0.7818608E-02  0.8031436E-01
          1   -1    0    0  501    0  0.00000000000E+00  0.00000000000E+00  0.21152728030E+04  0.21152728030E+04  0.00000000000E+00 0. -1.
         -1   -1    0    0    0  501 -0.00000000000E+00 -0.00000000000E+00 -0.17694892293E+04  0.17694892293E+04  0.00000000000E+00 0.  1.
         23    2    1    2    0    0  0.65480309870E+02  0.18527391773E+04 -0.37880863524E+03  0.18942937459E+04  0.89009458125E+02 0.  0.
         11    1    3    3    0    0  0.15725563570E+02  0.14572096349E+04 -0.28975659437E+03  0.14858216910E+04  0.00000000000E+00 0.  1.
        -11    1    3    3    0    0  0.49754746300E+02  0.39552954236E+03 -0.89052040873E+02  0.40847205491E+03  0.00000000000E+00 0. -1.
         22    1    1    2    0    0 -0.65480309870E+02 -0.18527391773E+04  0.72459220887E+03  0.19904682864E+04  0.00000000000E+00 0. -1.
<mgrwt>
<rscale>  0 0.38693423E+04</rscale>
<asrwt>0</asrwt>
<pdfrwt beam="1">  1        1 0.32542658E+00 0.38693423E+04</pdfrwt>
<pdfrwt beam="2">  1       -1 0.27222911E+00 0.38693423E+04</pdfrwt>
<totfact> 0.98380993E-02</totfact>
</mgrwt>
</event>
<event>
 6    1  0.1568961E-005  0.8313493E+04  0.7818608E-02  0.7455319E-01
          2   -1    0    0  501    0  0.00000000000E+00  0.00000000000E+00  0.39065506322E+04  0.39065506322E+04  0.00000000000E+00 0.  1.
         -2   -1    0    0    0  501 -0.00000000000E+00 -0.00000000000E+00 -0.44229660837E+04  0.44229660837E+04  0.00000000000E+00 0. -1.
         23    2    1    2    0    0  0.13511205894E+04  0.36340126082E+04 -0.17586819788E+04  0.42583006066E+04  0.92667525634E+02 0.  0.
         13    1    3    3    0    0  0.10251091552E+04  0.27698387012E+04 -0.13825348226E+04  0.32610209669E+04  0.00000000000E+00 0. -1.
        -13    1    3    3    0    0  0.32601143412E+03  0.86417390702E+03 -0.37614715627E+03  0.99727963978E+03  0.00000000000E+00 0.  1.
         22    1    1    2    0    0 -0.13511205894E+04 -0.36340126082E+04  0.12422665273E+04  0.40712161093E+04  0.00000000000E+00 0.  1.
<mgrwt>
<rscale>  0 0.83134929E+04</rscale>
<asrwt>0</asrwt>
<pdfrwt beam="1">  1        2 0.60100779E+00 0.83134929E+04</pdfrwt>
<pdfrwt beam="2">  1       -2 0.68045632E+00 0.83134929E+04</pdfrwt>
<totfact> 0.63016626E-05</totfact>
</mgrwt>
</event>
<event>
 6    1  0.1568961E-005  0.1285438E+04  0.7818608E-02  0.9041193E-01
         -1   -1    0    0    0  501 -0.00000000000E+00  0.00000000000E+00  0.69709422430E+03  0.69709422430E+03  0.00000000000E+00 0.  1.
          1   -1    0    0  501    0  0.00000000000E+00 -0.00000000000E+00 -0.59258537621E+03  0.59258537621E+03  0.00000000000E+00 0. -1.
         23    2    1    2    0    0  0.28698985798E+03 -0.46200227573E+03 -0.28515525255E+03  0.62061503510E+03  0.89667287031E+02 0.  0.
         11    1    3    3    0    0  0.10843653064E+03 -0.19619248314E+03 -0.70028869284E+02  0.23484891771E+03  0.00000000000E+00 0.  1.
        -11    1    3    3    0    0  0.17855332734E+03 -0.26580979259E+03 -0.21512638327E+03  0.38576611738E+03  0.00000000000E+00 0. -1.
         22    1    1    2    0    0 -0.28698985798E+03  0.46200227573E+03  0.38966410064E+03  0.66906456541E+03  0.00000000000E+00 0.  1.
<mgrwt>
<rscale>  0 0.12854382E+04</rscale>
<asrwt>0</asrwt>
<pdfrwt beam="1">  1        1 0.91166981E-01 0.12854382E+04</pdfrwt>
<pdfrwt beam="2">  1       -1 0.10724526E+00 0.12854382E+04</pdfrwt>
<totfact> 0.27802488E+01</totfact>
</mgrwt>
</event>
<event>
 6    1  0.1568961E-005  0.1876517E+04  0.7818608E-02  0.8666634E-01
          1   -1    0    0  501    0  0.00000000000E+00  0.00000000000E+00  0.20177447253E+04  0.20177447253E+04  0.00000000000E+00 0. -1.
         -1   -1    0    0    0  501 -0.00000000000E+00 -0.00000000000E+00 -0.43629358836E+03  0.43629358836E+03  0.00000000000E+00 0.  1.
         23    2    1    2    0    0  0.30388858672E+03  0.11232851455E+03 -0.35648916502E+03  0.48920280342E+03  0.85257784221E+02 0.  0.
         11    1    3    3    0    0  0.13673764530E+03  0.82901920116E+02 -0.21677690000E+03  0.26937359999E+03  0.00000000000E+00 0.  1.
        -11    1    3    3    0    0  0.16715094142E+03  0.29426594436E+02 -0.13971226502E+03  0.21982920342E+03  0.00000000000E+00 0. -1.
         22    1    1    2    0    0 -0.30388858672E+03 -0.11232851455E+03  0.19379403020E+04  0.19648355102E+04  0.00000000000E+00 0. -1.
<mgrwt>
<rscale>  0 0.18765171E+04</rscale>
<asrwt>0</asrwt>
<pdfrwt beam="1">  1        1 0.31042226E+00 0.18765171E+04</pdfrwt>
<pdfrwt beam="2">  1       -1 0.67122091E-01 0.18765171E+04</pdfrwt>
<totfact> 0.61095818E+00</totfact>
</mgrwt>
</event>
<event>
 6    1  0.1568961E-005  0.1582720E+04  0.7818608E-02  0.8831234E-01
         -1   -1    0    0    0  501 -0.00000000000E+00  0.00000000000E+00  0.25910002811E+03  0.25910002811E+03  0.00000000000E+00 0.  1.
          1   -1    0    0  501    0  0.00000000000E+00 -0.00000000000E+00 -0.24170237811E+04  0.24170237811E+04  0.00000000000E+00 0. -1.
         23    2    1    2    0    0  0.50138457115E+03 -0.18306769307E+03 -0.20628693427E+04  0.21339655211E+04  0.11609759526E+03 0.  0.
         11    1    3    3    0    0  0.96127845831E+02  0.32182059256E+01 -0.27629030152E+03  0.29255298718E+03  0.00000000000E+00 0.  1.
        -11    1    3    3    0    0  0.40525672532E+03 -0.18628589900E+03 -0.17865790412E+04  0.18414125339E+04  0.00000000000E+00 0. -1.
         22    1    1    2    0    0 -0.50138457115E+03  0.18306769307E+03 -0.95054410225E+02  0.54215828808E+03  0.00000000000E+00 0.  1.
<mgrwt>
<rscale>  0 0.15827204E+04</rscale>
<asrwt>0</asrwt>
<pdfrwt beam="1">  1        1 0.37184981E+00 0.15827204E+04</pdfrwt>
<pdfrwt beam="2">  1       -1 0.39861543E-01 0.15827204E+04</pdfrwt>
<totfact> 0.91237920E+00</totfact>
</mgrwt>
</event>
<event>
 6    1  0.1568961E-005  0.1391896E+04  0.7818608E-02  0.8959705E-01
         -1   -1    0    0    0  501 -0.00000000000E+00  0.00000000000E+00  0.54495712003E+03  0.54495712003E+03  0.00000000000E+00 0.  1.
          1   -1    0    0  501    0  0.00000000000E+00 -0.00000000000E+00 -0.88877403094E+03  0.88877403094E+03  0.00000000000E+00 0. -1.
         23    2    1    2    0    0 -0.45700585807E+02 -0.62922388576E+03  0.12235969817E+03  0.64930022806E+03  0.92777413569E+02 0.  0.
         13    1    3    3    0    0 -0.12769539496E+02 -0.19126688033E+03  0.81203260480E+02  0.20818273263E+03  0.00000000000E+00 0. -1.
        -13    1    3    3    0    0 -0.32931046311E+02 -0.43795700543E+03  0.41156437687E+02  0.44111749544E+03  0.00000000000E+00 0.  1.
         22    1    1    2    0    0  0.45700585807E+02  0.62922388576E+03 -0.46617660908E+03  0.78443092291E+03  0.00000000000E+00 0. -1.
<mgrwt>
<rscale>  0 0.13918962E+04</rscale>
<asrwt>0</asrwt>
<pdfrwt beam="1">  1        1 0.13673447E+00 0.13918962E+04</pdfrwt>
<pdfrwt beam="2">  1       -1 0.83839557E-01 0.13918962E+04</pdfrwt>
<totfact> 0.25589629E+01</totfact>
</mgrwt>
</event>
<event>
 6    1  0.1568961E-005  0.1664078E+04  0.7818608E-02  0.8782121E-01
         -1   -1    0    0    0  501 -0.00000000000E+00  0.00000000000E+00  0.67198164575E+03  0.67198164575E+03  0.00000000000E+00 0.  1.
          1   -1    0    0  501    0  0.00000000000E+00 -0.00000000000E+00 -0.10302201840E+04  0.10302201840E+04  0.00000000000E+00 0. -1.
         23    2    1    2    0    0 -0.37714304745E+03 -0.59471595499E+03  0.26885885237E+03  0.75924102321E+03  0.90762896988E+02 0.  0.
         11    1    3    3    0    0 -0.79994530970E+02 -0.69319283609E+02  0.51288135425E+02  0.11762126041E+03  0.00000000000E+00 0.  1.
        -11    1    3    3    0    0 -0.29714851648E+03 -0.52539667138E+03  0.21757071694E+03  0.64161976280E+03  0.00000000000E+00 0. -1.
         22    1    1    2    0    0  0.37714304745E+03  0.59471595499E+03 -0.62709739065E+03  0.94296080657E+03  0.00000000000E+00 0. -1.
<mgrwt>
<rscale>  0 0.16640782E+04</rscale>
<asrwt>0</asrwt>
<pdfrwt beam="1">  1        1 0.15849541E+00 0.16640782E+04</pdfrwt>
<pdfrwt beam="2">  1       -1 0.10338179E+00 0.16640782E+04</pdfrwt>
<totfact> 0.12078508E+01</totfact>
</mgrwt>
</event>
<event>
 6    1  0.2406642E-005  0.3121248E+04  0.7818608E-02  0.8209931E-01
         -1   -1    0    0    0  501 -0.00000000000E+00  0.00000000000E+00  0.18903711266E+04  0.18903711266E+04  0.00000000000E+00 0.  1.
          1   -1    0    0  501    0  0.00000000000E+00 -0.00000000000E+00 -0.12883960956E+04  0.12883960956E+04  0.00000000000E+00 0. -1.
         23    2    1    2    0    0 -0.13214857960E+04 -0.56853856372E+03 -0.31137508147E+03  0.14747222593E+04  0.91052145280E+02 0.  0.
         13    1    3    3    0    0 -0.95716829358E+03 -0.45161954533E+03 -0.24569365986E+03  0.10865066638E+04  0.00000000000E+00 0. -1.
        -13    1    3    3    0    0 -0.36431750244E+03 -0.11691901839E+03 -0.65681421614E+02  0.38821559550E+03  0.00000000000E+00 0.  1.
         22    1    1    2    0    0  0.13214857960E+04  0.56853856372E+03  0.91335011251E+03  0.17040449629E+04  0.00000000000E+00 0.  1.
<mgrwt>
<rscale>  0 0.31212477E+04</rscale>
<asrwt>0</asrwt>
<pdfrwt beam="1">  1        1 0.19821478E+00 0.31212477E+04</pdfrwt>
<pdfrwt beam="2">  1       -1 0.29082633E+00 0.31212477E+04</pdfrwt>
<totfact> 0.29408403E-01</totfact>
</mgrwt>
</event>
<event>
 6    1  0.1568961E-005  0.9661074E+03  0.7818608E-02  0.9346519E-01
         -2   -1    0    0    0  501 -0.00000000000E+00  0.00000000000E+00  0.88261334657E+02  0.88261334657E+02  0.00000000000E+00 0.  1.
          2   -1    0    0  501    0  0.00000000000E+00 -0.00000000000E+00 -0.26437495393E+04  0.26437495393E+04  0.00000000000E+00 0. -1.
         23    2    1    2    0    0  0.44228862403E+03  0.27499853571E+02 -0.76408883582E+03  0.88661466514E+03  0.76670375784E+02 0.  0.
         13    1    3    3    0    0  0.18836790800E+03 -0.26204231836E+02 -0.32072492867E+03  0.37287210998E+03  0.00000000000E+00 0. -1.
        -13    1    3    3    0    0  0.25392071603E+03  0.53704085408E+02 -0.44336390715E+03  0.51374255516E+03  0.00000000000E+00 0.  1.
         22    1    1    2    0    0 -0.44228862403E+03 -0.27499853571E+02 -0.17913993688E+04  0.18453962088E+04  0.00000000000E+00 0. -1.
<mgrwt>
<rscale>  0 0.96610737E+03</rscale>
<asrwt>0</asrwt>
<pdfrwt beam="1">  1        2 0.40673063E+00 0.96610737E+03</pdfrwt>
<pdfrwt beam="2">  1       -2 0.13578669E-01 0.96610737E+03</pdfrwt>
<totfact> 0.12117542E+02</totfact>
</mgrwt>
</event>
<event>
 6    1  0.1568961E-005  0.3010060E+04  0.7818608E-02  0.8240864E-01
         -2   -1    0    0    0  501 -0.00000000000E+00  0.00000000000E+00  0.16294241351E+04  0.16294241351E+04  0.00000000000E+00 0.  1.
          2   -1    0    0  501    0  0.00000000000E+00 -0.00000000000E+00 -0.13901321317E+04  0.13901321317E+04  0.00000000000E+00 0. -1.
         23    2    1    2    0    0 -0.43708753214E+03 -0.24258921081E+03 -0.13029274812E+04  0.13983419149E+04  0.88572307814E+02 0.  0.
         11    1    3    3    0    0 -0.30887463506E+03 -0.20625699048E+03 -0.88811291526E+03  0.96264741030E+03  0.00000000000E+00 0.  1.
        -11    1    3    3    0    0 -0.12821289709E+03 -0.36332220329E+02 -0.41481456595E+03  0.43569450460E+03  0.00000000000E+00 0. -1.
         22    1    1    2    0    0  0.43708753214E+03  0.24258921081E+03  0.15422194846E+04  0.16212143519E+04  0.00000000000E+00 0.  1.
<mgrwt>
<rscale>  0 0.30100597E+04</rscale>
<asrwt>0</asrwt>
<pdfrwt beam="1">  1        2 0.21386648E+00 0.30100597E+04</pdfrwt>
<pdfrwt beam="2">  1       -2 0.25068064E+00 0.30100597E+04</pdfrwt>
<totfact> 0.79806929E-01</totfact>
</mgrwt>
</event>
<event>
 6    1  0.1568961E-005  0.9858721E+03  0.7818608E-02  0.9324177E-01
         -2   -1    0    0    0  501 -0.00000000000E+00  0.00000000000E+00  0.38780793843E+03  0.38780793843E+03  0.00000000000E+00 0. -1.
          2   -1    0    0  501    0  0.00000000000E+00 -0.00000000000E+00 -0.62656263098E+03  0.62656263098E+03  0.00000000000E+00 0.  1.
         23    2    1    2    0    0  0.10419992844E+03  0.20101056619E+03  0.32717299597E+03  0.40483220191E+03  0.74726632499E+02 0.  0.
         11    1    3    3    0    0  0.15799441500E+02  0.10670441017E+03  0.12798407363E+03  0.16737794540E+03  0.00000000000E+00 0. -1.
        -11    1    3    3    0    0  0.88400486938E+02  0.94306156017E+02  0.19918892234E+03  0.23745425652E+03  0.00000000000E+00 0.  1.
         22    1    1    2    0    0 -0.10419992844E+03 -0.20101056619E+03 -0.56592768853E+03  0.60953836749E+03  0.00000000000E+00 0.  1.
<mgrwt>
<rscale>  0 0.98587213E+03</rscale>
<asrwt>0</asrwt>
<pdfrwt beam="1">  1        2 0.96394249E-01 0.98587213E+03</pdfrwt>
<pdfrwt beam="2">  1       -2 0.59662761E-01 0.98587213E+03</pdfrwt>
<totfact> 0.12326870E+02</totfact>
</mgrwt>
</event>
<event>
 6    1  0.1568961E-005  0.9216743E+03  0.7818608E-02  0.9398886E-01
          2   -1    0    0  501    0  0.00000000000E+00  0.00000000000E+00  0.28134768404E+03  0.28134768404E+03  0.00000000000E+00 0.  1.
         -2   -1    0    0    0  501 -0.00000000000E+00 -0.00000000000E+00 -0.75483431328E+03  0.75483431328E+03  0.00000000000E+00 0. -1.
         23    2    1    2    0    0  0.33410789595E+03 -0.12208423734E+03  0.82146801324E+02  0.37643874702E+03  0.91789902215E+02 0.  0.
         13    1    3    3    0    0  0.20543192071E+03 -0.71956175845E+02  0.95503112591E+02  0.23769898991E+03  0.00000000000E+00 0.  1.
        -13    1    3    3    0    0  0.12867597524E+03 -0.50128061493E+02 -0.13356311267E+02  0.13873975712E+03  0.00000000000E+00 0. -1.
         22    1    1    2    0    0 -0.33410789595E+03  0.12208423734E+03 -0.55563343057E+03  0.65974325029E+03  0.00000000000E+00 0. -1.
<mgrwt>
<rscale>  0 0.92167432E+03</rscale>
<asrwt>0</asrwt>
<pdfrwt beam="1">  1        2 0.43284260E-01 0.92167432E+03</pdfrwt>
<pdfrwt beam="2">  1       -2 0.11612835E+00 0.92167432E+03</pdfrwt>
<totfact> 0.68034198E+01</totfact>
</mgrwt>
</event>
<event>
 6    1  0.1568961E-005  0.2630447E+04  0.7818608E-02  0.8357932E-01
          1   -1    0    0  501    0  0.00000000000E+00  0.00000000000E+00  0.16581997530E+04  0.16581997530E+04  0.00000000000E+00 0. -1.
         -1   -1    0    0    0  501 -0.00000000000E+00 -0.00000000000E+00 -0.10431869211E+04  0.10431869211E+04  0.00000000000E+00 0.  1.
         23    2    1    2    0    0 -0.24545513197E+03 -0.91534897866E+03  0.12421474070E+04  0.15649845667E+04  0.90191677804E+02 0.  0.
         11    1    3    3    0    0 -0.20304402319E+03 -0.61148469528E+03  0.87191132940E+03  0.10841447202E+04  0.00000000000E+00 0.  1.
        -11    1    3    3    0    0 -0.42411108781E+02 -0.30386428338E+03  0.37023607756E+03  0.48083984651E+03  0.00000000000E+00 0. -1.
         22    1    1    2    0    0  0.24545513197E+03  0.91534897866E+03 -0.62713457511E+03  0.11364021075E+04  0.00000000000E+00 0.  1.
<mgrwt>
<rscale>  0 0.26304466E+04</rscale>
<asrwt>0</asrwt>
<pdfrwt beam="1">  1        1 0.25510765E+00 0.26304466E+04</pdfrwt>
<pdfrwt beam="2">  1       -1 0.16049030E+00 0.26304466E+04</pdfrwt>
<totfact> 0.12955782E+00</totfact>
</mgrwt>
</event>
<event>
 6    1  0.1568961E-005  0.2873449E+04  0.7818608E-02  0.8280821E-01
         -2   -1    0    0    0  501 -0.00000000000E+00  0.00000000000E+00  0.59425229858E+03  0.59425229858E+03  0.00000000000E+00 0.  1.
          2   -1    0    0  501    0  0.00000000000E+00 -0.00000000000E+00 -0.34735706547E+04  0.34735706547E+04  0.00000000000E+00 0. -1.
         23    2    1    2    0    0  0.13974358700E+04 -0.29317913602E+03 -0.12347590092E+04  0.18898981469E+04  0.91127265534E+02 0.  0.
         11    1    3    3    0    0  0.73445765123E+03 -0.19314353519E+03 -0.62319511469E+03  0.98239738274E+03  0.00000000000E+00 0.  1.
        -11    1    3    3    0    0  0.66297821875E+03 -0.10003560083E+03 -0.61156389451E+03  0.90750076421E+03  0.00000000000E+00 0. -1.
         22    1    1    2    0    0 -0.13974358700E+04  0.29317913602E+03 -0.16445593469E+04  0.21779248064E+04  0.00000000000E+00 0. -1.
<mgrwt>
<rscale>  0 0.28734490E+04</rscale>
<asrwt>0</asrwt>
<pdfrwt beam="1">  1        2 0.53439549E+00 0.28734490E+04</pdfrwt>
<pdfrwt beam="2">  1       -2 0.91423430E-01 0.28734490E+04</pdfrwt>
<totfact> 0.74741434E-01</totfact>
</mgrwt>
</event>
<event>
 6    1  0.1568961E-005  0.4199958E+04  0.7818608E-02  0.7965380E-01
          2   -1    0    0  501    0  0.00000000000E+00  0.00000000000E+00  0.12378101127E+04  0.12378101127E+04  0.00000000000E+00 0. -1.
         -2   -1    0    0    0  501 -0.00000000000E+00 -0.00000000000E+00 -0.35626715916E+04  0.35626715916E+04  0.00000000000E+00 0.  1.
         23    2    1    2    0    0 -0.77451393931E+03  0.18488828084E+04 -0.45136799752E+03  0.20567220016E+04  0.90182266825E+02 0.  0.
         13    1    3    3    0    0 -0.37838832191E+03  0.83826651011E+03 -0.24524672148E+03  0.95184789673E+03  0.00000000000E+00 0. -1.
        -13    1    3    3    0    0 -0.39612561741E+03  0.10106162983E+04 -0.20612127603E+03  0.11048741048E+04  0.00000000000E+00 0.  1.
         22    1    1    2    0    0  0.77451393931E+03 -0.18488828084E+04 -0.18734934815E+04  0.27437597027E+04  0.00000000000E+00 0. -1.
<mgrwt>
<rscale>  0 0.41999576E+04</rscale>
<asrwt>0</asrwt>
<pdfrwt beam="1">  1        2 0.19043233E+00 0.41999576E+04</pdfrwt>
<pdfrwt beam="2">  1       -2 0.54810332E+00 0.41999576E+04</pdfrwt>
<totfact> 0.12223547E-02</totfact>
</mgrwt>
</event>
<event>
 6    1  0.2402799E-005  0.2429480E+04  0.7818608E-02  0.8428549E-01
         -1   -1    0    0    0  501 -0.00000000000E+00  0.00000000000E+00  0.11375321954E+04  0.11375321954E+04  0.00000000000E+00 0.  1.
          1   -1    0    0  501    0  0.00000000000E+00 -0.00000000000E+00 -0.12971878642E+04  0.12971878642E+04  0.00000000000E+00 0. -1.
         23    2    1    2    0    0  0.87531127450E+03  0.20069933237E+03 -0.89696300648E+03  0.12727940037E+04  0.94930982845E+02 0.  0.
         11    1    3    3    0    0  0.39385948444E+03  0.93116464927E+02 -0.33825156728E+03  0.52745624680E+03  0.00000000000E+00 0.  1.
        -11    1    3    3    0    0  0.48145179006E+03  0.10758286744E+03 -0.55871143920E+03  0.74533775687E+03  0.00000000000E+00 0. -1.
         22    1    1    2    0    0 -0.87531127450E+03 -0.20069933237E+03  0.73730733768E+03  0.11619260559E+04  0.00000000000E+00 0.  1.
<mgrwt>
<rscale>  0 0.24294797E+04</rscale>
<asrwt>0</asrwt>
<pdfrwt beam="1">  1        1 0.19956736E+00 0.24294797E+04</pdfrwt>
<pdfrwt beam="2">  1       -1 0.17500495E+00 0.24294797E+04</pdfrwt>
<totfact> 0.18372684E+00</totfact>
</mgrwt>
</event>
<event>
 6    1  0.1690590E-005  0.2305681E+04  0.7818608E-02  0.8475684E-01
         -1   -1    0    0    0  501 -0.00000000000E+00  0.00000000000E+00  0.97322660769E+03  0.97322660769E+03  0.00000000000E+00 0.  1.
          1   -1    0    0  501    0  0.00000000000E+00 -0.00000000000E+00 -0.13656034335E+04  0.13656034335E+04  0.00000000000E+00 0. -1.
         23    2    1    2    0    0 -0.32435744665E+03  0.55877638523E+03 -0.11627424931E+04  0.13333937860E+04  0.92358439494E+02 0.  0.
         13    1    3    3    0    0 -0.15710048220E+03  0.30116860678E+03 -0.52122365066E+03  0.62213920084E+03  0.00000000000E+00 0. -1.
        -13    1    3    3    0    0 -0.16725696445E+03  0.25760777844E+03 -0.64151884245E+03  0.71125458514E+03  0.00000000000E+00 0.  1.
         22    1    1    2    0    0  0.32435744665E+03 -0.55877638523E+03  0.77036566731E+03  0.10054362552E+04  0.00000000000E+00 0.  1.
<mgrwt>
<rscale>  0 0.23056813E+04</rscale>
<asrwt>0</asrwt>
<pdfrwt beam="1">  1        1 0.21009283E+00 0.23056813E+04</pdfrwt>
<pdfrwt beam="2">  1       -1 0.14972717E+00 0.23056813E+04</pdfrwt>
<totfact> 0.25736009E+00</totfact>
</mgrwt>
</event>
<event>
 6    1  0.1568961E-005  0.4607606E+04  0.7818608E-02  0.7892064E-01
         -1   -1    0    0    0  501 -0.00000000000E+00  0.00000000000E+00  0.19997267325E+04  0.19997267325E+04  0.00000000000E+00 0.  1.
          1   -1    0    0  501    0  0.00000000000E+00 -0.00000000000E+00 -0.26541164597E+04  0.26541164597E+04  0.00000000000E+00 0. -1.
         23    2    1    2    0    0  0.16997330603E+04 -0.91223173544E+03  0.94309838546E+03  0.21492020032E+04  0.91517596389E+02 0.  0.
         13    1    3    3    0    0  0.24544324743E+03 -0.97036519948E+02  0.12093413015E+03  0.29031627194E+03  0.00000000000E+00 0. -1.
        -13    1    3    3    0    0  0.14542898128E+04 -0.81519521549E+03  0.82216425531E+03  0.18588857312E+04  0.00000000000E+00 0.  1.
         22    1    1    2    0    0 -0.16997330603E+04  0.91223173544E+03 -0.15974881127E+04  0.25046411890E+04  0.00000000000E+00 0. -1.
<mgrwt>
<rscale>  0 0.46076057E+04</rscale>
<asrwt>0</asrwt>
<pdfrwt beam="1">  1        1 0.40832561E+00 0.46076057E+04</pdfrwt>
<pdfrwt beam="2">  1       -1 0.30765027E+00 0.46076057E+04</pdfrwt>
<totfact> 0.23198602E-02</totfact>
</mgrwt>
</event>
<event>
 6    1  0.1568961E-005  0.2438934E+04  0.7818608E-02  0.8425070E-01
          2   -1    0    0  501    0  0.00000000000E+00  0.00000000000E+00  0.34181358806E+04  0.34181358806E+04  0.00000000000E+00 0.  1.
         -2   -1    0    0    0  501 -0.00000000000E+00 -0.00000000000E+00 -0.43506150120E+03  0.43506150120E+03  0.00000000000E+00 0. -1.
         23    2    1    2    0    0  0.43689178766E+03 -0.98203584363E+03  0.23982200603E+04  0.26295457129E+04  0.88217720925E+02 0.  0.
         11    1    3    3    0    0  0.14949751090E+03 -0.37964722801E+03  0.81645499244E+03  0.91273231463E+03  0.00000000000E+00 0. -1.
        -11    1    3    3    0    0  0.28739427676E+03 -0.60238861562E+03  0.15817650678E+04  0.17168133982E+04  0.00000000000E+00 0.  1.
         22    1    1    2    0    0 -0.43689178766E+03  0.98203584363E+03  0.58485431915E+03  0.12236516690E+04  0.00000000000E+00 0.  1.
<mgrwt>
<rscale>  0 0.24389336E+04</rscale>
<asrwt>0</asrwt>
<pdfrwt beam="1">  1        2 0.52586704E+00 0.24389336E+04</pdfrwt>
<pdfrwt beam="2">  1       -2 0.66932541E-01 0.24389336E+04</pdfrwt>
<totfact> 0.17043507E+00</totfact>
</mgrwt>
</event>
<event>
 6    1  0.1568961E-005  0.4123314E+04  0.7818608E-02  0.7980122E-01
          1   -1    0    0  501    0  0.00000000000E+00  0.00000000000E+00  0.17999017082E+04  0.17999017082E+04  0.00000000000E+00 0. -1.
         -1   -1    0    0    0  501 -0.00000000000E+00 -0.00000000000E+00 -0.23614783766E+04  0.23614783766E+04  0.00000000000E+00 0.  1.
         23    2    1    2    0    0  0.82535134088E+03  0.94219790914E+03  0.13704135144E+04  0.18588754047E+04  0.91884894222E+02 0.  0.
         13    1    3    3    0    0  0.56475700956E+03  0.66410056215E+03  0.89257638014E+03  0.12476668750E+04  0.00000000000E+00 0. -1.
        -13    1    3    3    0    0  0.26059433131E+03  0.27809734699E+03  0.47783713426E+03  0.61120852971E+03  0.00000000000E+00 0.  1.
         22    1    1    2    0    0 -0.82535134088E+03 -0.94219790914E+03 -0.19319901828E+04  0.23025046802E+04  0.00000000000E+00 0.  1.
<mgrwt>
<rscale>  0 0.41233137E+04</rscale>
<asrwt>0</asrwt>
<pdfrwt beam="1">  1        1 0.27690796E+00 0.41233137E+04</pdfrwt>
<pdfrwt beam="2">  1       -1 0.36330436E+00 0.41233137E+04</pdfrwt>
<totfact> 0.39984272E-02</totfact>
</mgrwt>
</event>
<event>
 6    1  0.1568961E-005  0.2553340E+04  0.7818608E-02  0.8384225E-01
          2   -1    0    0  501    0  0.00000000000E+00  0.00000000000E+00  0.15252651235E+04  0.15252651235E+04  0.00000000000E+00 0. -1.
         -2   -1    0    0    0  501 -0.00000000000E+00 -0.00000000000E+00 -0.10685922204E+04  0.10685922204E+04  0.00000000000E+00 0.  1.
         23    2    1    2    0    0 -0.10581799318E+03  0.35244050358E+03 -0.10114779188E+04  0.10802924817E+04  0.92371584553E+02 0.  0.
         13    1    3    3    0    0 -0.59241922856E+02  0.13132887054E+03 -0.28282164868E+03  0.31740346977E+03  0.00000000000E+00 0.  1.
        -13    1    3    3    0    0 -0.46576070325E+02  0.22111163303E+03 -0.72865627008E+03  0.76288901193E+03  0.00000000000E+00 0. -1.
         22    1    1    2    0    0  0.10581799318E+03 -0.35244050358E+03  0.14681508219E+04  0.15135648622E+04  0.00000000000E+00 0. -1.
<mgrwt>
<rscale>  0 0.25533401E+04</rscale>
<asrwt>0</asrwt>
<pdfrwt beam="1">  1        2 0.23465617E+00 0.25533401E+04</pdfrwt>
<pdfrwt beam="2">  1       -2 0.16439880E+00 0.25533401E+04</pdfrwt>
<totfact> 0.25512353E+00</totfact>
</mgrwt>
</event>
<event>
 6    1  0.1568961E-005  0.4232648E+04  0.7818608E-02  0.7959191E-01
          1   -1    0    0  501    0  0.00000000000E+00  0.00000000000E+00  0.34834234047E+04  0.34834234047E+04  0.00000000000E+00 0. -1.
         -1   -1    0    0    0  501 -0.00000000000E+00 -0.00000000000E+00 -0.12857545318E+04  0.12857545318E+04  0.00000000000E+00 0.  1.
         23    2    1    2    0    0 -0.16319261113E+04  0.70403791481E+03 -0.19339092218E+03  0.17899130671E+04  0.86813135397E+02 0.  0.
         13    1    3    3    0    0 -0.98932839199E+03  0.46863108843E+03 -0.13667922813E+03  0.11032075850E+04  0.00000000000E+00 0. -1.
        -13    1    3    3    0    0 -0.64259771935E+03  0.23540682638E+03 -0.56711694054E+02  0.68670548204E+03  0.00000000000E+00 0.  1.
         22    1    1    2    0    0  0.16319261113E+04 -0.70403791481E+03  0.23910597952E+04  0.29792648695E+04  0.00000000000E+00 0. -1.
<mgrwt>
<rscale>  0 0.42326481E+04</rscale>
<asrwt>0</asrwt>
<pdfrwt beam="1">  1        1 0.53591129E+00 0.42326481E+04</pdfrwt>
<pdfrwt beam="2">  1       -1 0.19780839E+00 0.42326481E+04</pdfrwt>
<totfact> 0.30777462E-02</totfact>
</mgrwt>
</event>
<event>
 6    1  0.1568961E-005  0.2552852E+04  0.7818608E-02  0.8384395E-01
          2   -1    0    0  501    0  0.00000000000E+00  0.00000000000E+00  0.10617065744E+04  0.10617065744E+04  0.00000000000E+00 0. -1.
         -2   -1    0    0    0  501 -0.00000000000E+00 -0.00000000000E+00 -0.15345706892E+04  0.15345706892E+04  0.00000000000E+00 0.  1.
         23    2    1    2    0    0 -0.86642810987E+03  0.91091198104E+02 -0.11832656407E+04  0.14721484437E+04  0.90045476135E+02 0.  0.
         11    1    3    3    0    0 -0.61503577787E+03  0.25045889874E+02 -0.85145203603E+03  0.10506506909E+04  0.00000000000E+00 0. -1.
        -11    1    3    3    0    0 -0.25139233199E+03  0.66045308230E+02 -0.33181360467E+03  0.42149775274E+03  0.00000000000E+00 0.  1.
         22    1    1    2    0    0  0.86642810987E+03 -0.91091198104E+02  0.71040152589E+03  0.11241288200E+04  0.00000000000E+00 0. -1.
<mgrwt>
<rscale>  0 0.25528524E+04</rscale>
<asrwt>0</asrwt>
<pdfrwt beam="1">  1        2 0.16333947E+00 0.25528524E+04</pdfrwt>
<pdfrwt beam="2">  1       -2 0.23608780E+00 0.25528524E+04</pdfrwt>
<totfact> 0.16008294E+00</totfact>
</mgrwt>
</event>
<event>
 6    1  0.1568961E-005  0.6449689E+03  0.7818608E-02  0.9816266E-01
         -2   -1    0    0    0  501 -0.00000000000E+00  0.00000000000E+00  0.47488363189E+02  0.47488363189E+02  0.00000000000E+00 0.  1.
          2   -1    0    0  501    0  0.00000000000E+00 -0.00000000000E+00 -0.21899304556E+04  0.21899304556E+04  0.00000000000E+00 0. -1.
         23    2    1    2    0    0  0.91290340838E+02 -0.29301994430E+03 -0.82925754311E+03  0.88884613829E+03  0.90469722289E+02 0.  0.
         11    1    3    3    0    0  0.19156254366E+02 -0.38054827940E+02 -0.49565687856E+02  0.65359692651E+02  0.00000000000E+00 0.  1.
        -11    1    3    3    0    0  0.72134086472E+02 -0.25496511636E+03 -0.77969185526E+03  0.82348644564E+03  0.00000000000E+00 0. -1.
         22    1    1    2    0    0 -0.91290340838E+02  0.29301994430E+03 -0.13131845493E+04  0.13485726805E+04  0.00000000000E+00 0. -1.
<mgrwt>
<rscale>  0 0.64496888E+03</rscale>
<asrwt>0</asrwt>
<pdfrwt beam="1">  1        2 0.33691237E+00 0.64496888E+03</pdfrwt>
<pdfrwt beam="2">  1       -2 0.73059023E-02 0.64496888E+03</pdfrwt>
<totfact> 0.61682507E+02</totfact>
</mgrwt>
</event>
<event>
 6    1  0.1568961E-005  0.5200172E+03  0.7818608E-02  0.1008682E+00
         -1   -1    0    0    0  501 -0.00000000000E+00  0.00000000000E+00  0.42932555115E+03  0.42932555115E+03  0.00000000000E+00 0.  1.
          1   -1    0    0  501    0  0.00000000000E+00 -0.00000000000E+00 -0.15746666485E+03  0.15746666485E+03  0.00000000000E+00 0. -1.
         23    2    1    2    0    0 -0.21065622130E+03 -0.97541659341E+02  0.25040602203E+03  0.35365996969E+03  0.92096576564E+02 0.  0.
         13    1    3    3    0    0 -0.45212802971E+02  0.14290020579E+02  0.69964005460E+02  0.84518425805E+02  0.00000000000E+00 0. -1.
        -13    1    3    3    0    0 -0.16544341833E+03 -0.11183167992E+03  0.18044201657E+03  0.26914154389E+03  0.00000000000E+00 0.  1.
         22    1    1    2    0    0  0.21065622130E+03  0.97541659341E+02  0.21452864268E+02  0.23313224630E+03  0.00000000000E+00 0. -1.
<mgrwt>
<rscale>  0 0.52001716E+03</rscale>
<asrwt>0</asrwt>
<pdfrwt beam="1">  1        1 0.24225641E-01 0.52001716E+03</pdfrwt>
<pdfrwt beam="2">  1       -1 0.66050084E-01 0.52001716E+03</pdfrwt>
<totfact> 0.47867398E+02</totfact>
</mgrwt>
</event>
<event>
 6    1  0.1568961E-005  0.3723586E+04  0.7818608E-02  0.8062755E-01
         -1   -1    0    0    0  501 -0.00000000000E+00  0.00000000000E+00  0.18190560598E+04  0.18190560598E+04  0.00000000000E+00 0.  1.
          1   -1    0    0  501    0  0.00000000000E+00 -0.00000000000E+00 -0.19055336678E+04  0.19055336678E+04  0.00000000000E+00 0. -1.
         23    2    1    2    0    0  0.77642134917E+03 -0.12692671710E+04 -0.11607488519E+04  0.18893981932E+04  0.92835189306E+02 0.  0.
         11    1    3    3    0    0  0.56214182530E+02 -0.11171346572E+03 -0.69101925502E+02  0.14288110039E+03  0.00000000000E+00 0. -1.
        -11    1    3    3    0    0  0.72020716664E+03 -0.11575537053E+04 -0.10916469264E+04  0.17465170928E+04  0.00000000000E+00 0.  1.
         22    1    1    2    0    0 -0.77642134917E+03  0.12692671710E+04  0.10742712439E+04  0.18351915345E+04  0.00000000000E+00 0. -1.
<mgrwt>
<rscale>  0 0.37235857E+04</rscale>
<asrwt>0</asrwt>
<pdfrwt beam="1">  1        1 0.29315903E+00 0.37235857E+04</pdfrwt>
<pdfrwt beam="2">  1       -1 0.27985478E+00 0.37235857E+04</pdfrwt>
<totfact> 0.12336909E-01</totfact>
</mgrwt>
</event>
<event>
 6    1  0.1568961E-005  0.8929131E+03  0.7818608E-02  0.9434484E-01
          2   -1    0    0  501    0  0.00000000000E+00  0.00000000000E+00  0.28250318000E+04  0.28250318000E+04  0.00000000000E+00 0. -1.
         -2   -1    0    0    0  501 -0.00000000000E+00 -0.00000000000E+00 -0.70556174870E+02  0.70556174870E+02  0.00000000000E+00 0.  1.
         23    2    1    2    0    0 -0.17346080656E+03  0.35096585127E+03  0.20551972719E+04  0.20941792805E+04  0.92115971141E+02 0.  0.
         11    1    3    3    0    0 -0.10381249333E+02  0.56737855166E+02  0.17903750755E+03  0.18809939834E+03  0.00000000000E+00 0. -1.
        -11    1    3    3    0    0 -0.16307955723E+03  0.29422799610E+03  0.18761597644E+04  0.19060798821E+04  0.00000000000E+00 0.  1.
         22    1    1    2    0    0  0.17346080656E+03 -0.35096585127E+03  0.69927835322E+03  0.80140869439E+03  0.00000000000E+00 0. -1.
<mgrwt>
<rscale>  0 0.89291307E+03</rscale>
<asrwt>0</asrwt>
<pdfrwt beam="1">  1        2 0.43462019E+00 0.89291307E+03</pdfrwt>
<pdfrwt beam="2">  1       -2 0.10854798E-01 0.89291307E+03</pdfrwt>
<totfact> 0.13844191E+02</totfact>
</mgrwt>
</event>
<event>
 6    1  0.1568961E-005  0.2113573E+04  0.7818608E-02  0.8555288E-01
          1   -1    0    0  501    0  0.00000000000E+00  0.00000000000E+00  0.15700899196E+04  0.15700899196E+04  0.00000000000E+00 0. -1.
         -1   -1    0    0    0  501 -0.00000000000E+00 -0.00000000000E+00 -0.71129522657E+03  0.71129522657E+03  0.00000000000E+00 0.  1.
         23    2    1    2    0    0 -0.90929238896E+03  0.37763448797E+03  0.83844543446E+03  0.12965833654E+04  0.93366062440E+02 0.  0.
         13    1    3    3    0    0 -0.27652273873E+03  0.73924509135E+02  0.26819867146E+03  0.39225015674E+03  0.00000000000E+00 0.  1.
        -13    1    3    3    0    0 -0.63276965023E+03  0.30370997883E+03  0.57024676300E+03  0.90433320862E+03  0.00000000000E+00 0. -1.
         22    1    1    2    0    0  0.90929238896E+03 -0.37763448797E+03  0.20349258544E+02  0.98480178079E+03  0.00000000000E+00 0.  1.
<mgrwt>
<rscale>  0 0.21135728E+04</rscale>
<asrwt>0</asrwt>
<pdfrwt beam="1">  1        1 0.24155229E+00 0.21135728E+04</pdfrwt>
<pdfrwt beam="2">  1       -1 0.10943004E+00 0.21135728E+04</pdfrwt>
<totfact> 0.41523689E+00</totfact>
</mgrwt>
</event>
<event>
 6    1  0.1568961E-005  0.1481129E+04  0.7818608E-02  0.8897100E-01
          1   -1    0    0  501    0  0.00000000000E+00  0.00000000000E+00  0.10242529219E+04  0.10242529219E+04  0.00000000000E+00 0. -1.
         -1   -1    0    0    0  501 -0.00000000000E+00 -0.00000000000E+00 -0.53544931690E+03  0.53544931690E+03  0.00000000000E+00 0.  1.
         23    2    1    2    0    0  0.97197929762E+02  0.39017961610E+03 -0.40589184341E+03  0.57880085958E+03  0.92599547144E+02 0.  0.
         11    1    3    3    0    0  0.89389997998E+01  0.11219497968E+03 -0.16904699111E+03  0.20308743040E+03  0.00000000000E+00 0. -1.
        -11    1    3    3    0    0  0.88258929962E+02  0.27798463642E+03 -0.23684485230E+03  0.37571342918E+03  0.00000000000E+00 0.  1.
         22    1    1    2    0    0 -0.97197929762E+02 -0.39017961610E+03  0.89469544845E+03  0.98090137927E+03  0.00000000000E+00 0. -1.
<mgrwt>
<rscale>  0 0.14811287E+04</rscale>
<asrwt>0</asrwt>
<pdfrwt beam="1">  1        1 0.15757737E+00 0.14811287E+04</pdfrwt>
<pdfrwt beam="2">  1       -1 0.82376818E-01 0.14811287E+04</pdfrwt>
<totfact> 0.20567062E+01</totfact>
</mgrwt>
</event>
<event>
 6    1  0.1568961E-005  0.2344219E+04  0.7818608E-02  0.8460687E-01
          2   -1    0    0  501    0  0.00000000000E+00  0.00000000000E+00  0.82669737324E+03  0.82669737324E+03  0.00000000000E+00 0. -1.
         -2   -1    0    0    0  501 -0.00000000000E+00 -0.00000000000E+00 -0.16618426327E+04  0.16618426327E+04  0.00000000000E+00 0.  1.
         23    2    1    2    0    0 -0.10292375967E+04 -0.41005913740E+03 -0.81844545268E+03  0.13804978542E+04  0.91884927048E+02 0.  0.
         11    1    3    3    0    0 -0.85532743990E+03 -0.30261931505E+03 -0.67073442409E+03  0.11282943530E+04  0.00000000000E+00 0. -1.
        -11    1    3    3    0    0 -0.17391015676E+03 -0.10743982236E+03 -0.14771102860E+03  0.25220350121E+03  0.00000000000E+00 0.  1.
         22    1    1    2    0    0  0.10292375967E+04  0.41005913740E+03 -0.16699806786E+02  0.11080421518E+04  0.00000000000E+00 0. -1.
<mgrwt>
<rscale>  0 0.23442192E+04</rscale>
<asrwt>0</asrwt>
<pdfrwt beam="1">  1        2 0.12718421E+00 0.23442192E+04</pdfrwt>
<pdfrwt beam="2">  1       -2 0.25566809E+00 0.23442192E+04</pdfrwt>
<totfact> 0.17657275E+00</totfact>
</mgrwt>
</event>
<event>
 6    1  0.1568961E-005  0.2824181E+04  0.7818608E-02  0.8295800E-01
         -2   -1    0    0    0  501 -0.00000000000E+00  0.00000000000E+00  0.88361827253E+03  0.88361827253E+03  0.00000000000E+00 0.  1.
          2   -1    0    0  501    0  0.00000000000E+00 -0.00000000000E+00 -0.22566294492E+04  0.22566294492E+04  0.00000000000E+00 0. -1.
         23    2    1    2    0    0  0.54737977723E+03 -0.34416015990E+03 -0.20813722657E+04  0.21811615585E+04  0.85348694527E+02 0.  0.
         11    1    3    3    0    0  0.29121235055E+03 -0.19327634555E+03 -0.98400557975E+03  0.10442352991E+04  0.00000000000E+00 0. -1.
        -11    1    3    3    0    0  0.25616742669E+03 -0.15088381435E+03 -0.10973666859E+04  0.11369262594E+04  0.00000000000E+00 0.  1.
         22    1    1    2    0    0 -0.54737977723E+03  0.34416015990E+03  0.70836108899E+03  0.95908616327E+03  0.00000000000E+00 0.  1.
<mgrwt>
<rscale>  0 0.28241806E+04</rscale>
<asrwt>0</asrwt>
<pdfrwt beam="1">  1        2 0.34717376E+00 0.28241806E+04</pdfrwt>
<pdfrwt beam="2">  1       -2 0.13594127E+00 0.28241806E+04</pdfrwt>
<totfact> 0.16145853E+00</totfact>
</mgrwt>
</event>
<event>
 6    1  0.1568961E-005  0.2900379E+04  0.7818608E-02  0.8272765E-01
          3   -1    0    0  501    0  0.00000000000E+00  0.00000000000E+00  0.15425857253E+04  0.15425857253E+04  0.00000000000E+00 0. -1.
         -3   -1    0    0    0  501 -0.00000000000E+00 -0.00000000000E+00 -0.13633276081E+04  0.13633276081E+04  0.00000000000E+00 0.  1.
         23    2    1    2    0    0 -0.13369688443E+04 -0.51614028285E+03 -0.12241423647E+03  0.14413681169E+04  0.93114559139E+02 0.  0.
         11    1    3    3    0    0 -0.61527814736E+03 -0.18800173760E+03 -0.57877231858E+02  0.64595791343E+03  0.00000000000E+00 0. -1.
        -11    1    3    3    0    0 -0.72169069691E+03 -0.32813854525E+03 -0.64537004608E+02  0.79541020351E+03  0.00000000000E+00 0.  1.
         22    1    1    2    0    0  0.13369688443E+04  0.51614028285E+03  0.30167235367E+03  0.14645452165E+04  0.00000000000E+00 0.  1.
<mgrwt>
<rscale>  0 0.29003791E+04</rscale>
<asrwt>0</asrwt>
<pdfrwt beam="1">  1        3 0.23732088E+00 0.29003791E+04</pdfrwt>
<pdfrwt beam="2">  1       -3 0.20974271E+00 0.29003791E+04</pdfrwt>
<totfact> 0.24946104E-02</totfact>
</mgrwt>
</event>
<event>
 6    1  0.1568961E-005  0.5321849E+04  0.7818608E-02  0.7780690E-01
          2   -1    0    0  501    0  0.00000000000E+00  0.00000000000E+00  0.37650983069E+04  0.37650983069E+04  0.00000000000E+00 0. -1.
         -2   -1    0    0    0  501 -0.00000000000E+00 -0.00000000000E+00 -0.18805667376E+04  0.18805667376E+04  0.00000000000E+00 0.  1.
         23    2    1    2    0    0 -0.38067487783E+03  0.13301785459E+04  0.33527977095E+04  0.36282177007E+04  0.91776229478E+02 0.  0.
         11    1    3    3    0    0 -0.10111322527E+03  0.27834564267E+03  0.63768815542E+03  0.70309769213E+03  0.00000000000E+00 0.  1.
        -11    1    3    3    0    0 -0.27956165256E+03  0.10518329032E+04  0.27151095541E+04  0.29251200086E+04  0.00000000000E+00 0. -1.
         22    1    1    2    0    0  0.38067487783E+03 -0.13301785459E+04 -0.14682661402E+04  0.20174473438E+04  0.00000000000E+00 0.  1.
<mgrwt>
<rscale>  0 0.53218488E+04</rscale>
<asrwt>0</asrwt>
<pdfrwt beam="1">  1        2 0.57924589E+00 0.53218488E+04</pdfrwt>
<pdfrwt beam="2">  1       -2 0.28931796E+00 0.53218488E+04</pdfrwt>
<totfact> 0.13638252E-02</totfact>
</mgrwt>
</event>
<event>
 6    1  0.1777094E-005  0.3437955E+04  0.7818608E-02  0.8128653E-01
          2   -1    0    0  501    0  0.00000000000E+00  0.00000000000E+00  0.19177551895E+04  0.19177551895E+04  0.00000000000E+00 0. -1.
         -2   -1    0    0    0  501 -0.00000000000E+00 -0.00000000000E+00 -0.15408037576E+04  0.15408037576E+04  0.00000000000E+00 0.  1.
         23    2    1    2    0    0  0.15443836143E+04  0.41996859874E+03  0.81616385687E+03  0.17989198519E+04  0.92167350781E+02 0.  0.
         13    1    3    3    0    0  0.64841452073E+03  0.22352327615E+03  0.35169991716E+03  0.77077680129E+03  0.00000000000E+00 0. -1.
        -13    1    3    3    0    0  0.89596909353E+03  0.19644532259E+03  0.46446393971E+03  0.10281430507E+04  0.00000000000E+00 0.  1.
         22    1    1    2    0    0 -0.15443836143E+04 -0.41996859874E+03 -0.43921242493E+03  0.16596390951E+04  0.00000000000E+00 0.  1.
<mgrwt>
<rscale>  0 0.34379554E+04</rscale>
<asrwt>0</asrwt>
<pdfrwt beam="1">  1        2 0.29503926E+00 0.34379554E+04</pdfrwt>
<pdfrwt beam="2">  1       -2 0.23704673E+00 0.34379554E+04</pdfrwt>
<totfact> 0.47372276E-01</totfact>
</mgrwt>
</event>
<event>
 6    1  0.1568961E-005  0.2627372E+04  0.7818608E-02  0.8358963E-01
         -2   -1    0    0    0  501 -0.00000000000E+00  0.00000000000E+00  0.87400443501E+03  0.87400443501E+03  0.00000000000E+00 0.  1.
          2   -1    0    0  501    0  0.00000000000E+00 -0.00000000000E+00 -0.19745561908E+04  0.19745561908E+04  0.00000000000E+00 0. -1.
         23    2    1    2    0    0  0.62408384376E+02  0.10807735145E+04 -0.13546032469E+04  0.17365766528E+04  0.93714026159E+02 0.  0.
         13    1    3    3    0    0  0.40726475147E+02  0.54143824656E+03 -0.75263360784E+03  0.92804707222E+03  0.00000000000E+00 0.  1.
        -13    1    3    3    0    0  0.21681909229E+02  0.53933526790E+03 -0.60196963906E+03  0.80852958062E+03  0.00000000000E+00 0. -1.
         22    1    1    2    0    0 -0.62408384376E+02 -0.10807735145E+04  0.25405149112E+03  0.11119839730E+04  0.00000000000E+00 0.  1.
<mgrwt>
<rscale>  0 0.26273720E+04</rscale>
<asrwt>0</asrwt>
<pdfrwt beam="1">  1        2 0.30377787E+00 0.26273720E+04</pdfrwt>
<pdfrwt beam="2">  1       -2 0.13446222E+00 0.26273720E+04</pdfrwt>
<totfact> 0.24281517E+00</totfact>
</mgrwt>
</event>
<event>
 6    1  0.1568961E-005  0.2627324E+04  0.7818608E-02  0.8358979E-01
          1   -1    0    0  501    0  0.00000000000E+00  0.00000000000E+00  0.21595102523E+04  0.21595102523E+04  0.00000000000E+00 0. -1.
         -1   -1    0    0    0  501 -0.00000000000E+00 -0.00000000000E+00 -0.79911988979E+03  0.79911988979E+03  0.00000000000E+00 0.  1.
         23    2    1    2    0    0  0.29727706607E+03  0.61942275284E+03 -0.57772938302E+03  0.90233095453E+03  0.91497053194E+02 0.  0.
         13    1    3    3    0    0  0.92849278058E+02  0.28916816092E+03 -0.22938339700E+03  0.38059946997E+03  0.00000000000E+00 0.  1.
        -13    1    3    3    0    0  0.20442778801E+03  0.33025459193E+03 -0.34834598602E+03  0.52173148455E+03  0.00000000000E+00 0. -1.
         22    1    1    2    0    0 -0.29727706607E+03 -0.61942275284E+03  0.19381197455E+04  0.20562991875E+04  0.00000000000E+00 0. -1.
<mgrwt>
<rscale>  0 0.26273238E+04</rscale>
<asrwt>0</asrwt>
<pdfrwt beam="1">  1        1 0.33223234E+00 0.26273238E+04</pdfrwt>
<pdfrwt beam="2">  1       -1 0.12294152E+00 0.26273238E+04</pdfrwt>
<totfact> 0.11893243E+00</totfact>
</mgrwt>
</event>
<event>
 6    1  0.1568961E-005  0.1278406E+04  0.7818608E-02  0.9046867E-01
          2   -1    0    0  501    0  0.00000000000E+00  0.00000000000E+00  0.23385305211E+04  0.23385305211E+04  0.00000000000E+00 0.  1.
         -2   -1    0    0    0  501 -0.00000000000E+00 -0.00000000000E+00 -0.17471667445E+03  0.17471667445E+03  0.00000000000E+00 0. -1.
         23    2    1    2    0    0  0.96934376064E+02 -0.50014107491E+03  0.33978413011E+03  0.61940935274E+03  0.93152150333E+02 0.  0.
         13    1    3    3    0    0  0.97171365817E+02 -0.44930445725E+03  0.27016075737E+03  0.53320127950E+03  0.00000000000E+00 0. -1.
        -13    1    3    3    0    0 -0.23698975347E+00 -0.50836617654E+02  0.69623372745E+02  0.86208073236E+02  0.00000000000E+00 0.  1.
         22    1    1    2    0    0 -0.96934376064E+02  0.50014107491E+03  0.18240297166E+04  0.18938378428E+04  0.00000000000E+00 0.  1.
<mgrwt>
<rscale>  0 0.12784057E+04</rscale>
<asrwt>0</asrwt>
<pdfrwt beam="1">  1        2 0.35977390E+00 0.12784057E+04</pdfrwt>
<pdfrwt beam="2">  1       -2 0.26879490E-01 0.12784057E+04</pdfrwt>
<totfact> 0.53360629E+01</totfact>
</mgrwt>
</event>
<event>
 6    1  0.1905230E-005  0.4812336E+04  0.7818608E-02  0.7858127E-01
          2   -1    0    0  501    0  0.00000000000E+00  0.00000000000E+00  0.20151757494E+04  0.20151757494E+04  0.00000000000E+00 0. -1.
         -2   -1    0    0    0  501 -0.00000000000E+00 -0.00000000000E+00 -0.28730225203E+04  0.28730225203E+04  0.00000000000E+00 0.  1.
         23    2    1    2    0    0 -0.33834998016E+01  0.20504106850E+04  0.84844879247E+03  0.22206825762E+04  0.85850601237E+02 0.  0.
         13    1    3    3    0    0 -0.36730578537E+02  0.76031841708E+03  0.33807287819E+03  0.83290245631E+03  0.00000000000E+00 0.  1.
        -13    1    3    3    0    0  0.33347078735E+02  0.12900922679E+04  0.51037591428E+03  0.13877801199E+04  0.00000000000E+00 0. -1.
         22    1    1    2    0    0  0.33834998016E+01 -0.20504106850E+04 -0.17062955634E+04  0.26675156935E+04  0.00000000000E+00 0.  1.
<mgrwt>
<rscale>  0 0.48123364E+04</rscale>
<asrwt>0</asrwt>
<pdfrwt beam="1">  1        2 0.31002704E+00 0.48123364E+04</pdfrwt>
<pdfrwt beam="2">  1       -2 0.44200346E+00 0.48123364E+04</pdfrwt>
<totfact> 0.19017962E-02</totfact>
</mgrwt>
</event>
<event>
 6    1  0.1637832E-005  0.2511147E+04  0.7818608E-02  0.8399025E-01
          2   -1    0    0  501    0  0.00000000000E+00  0.00000000000E+00  0.10704982399E+04  0.10704982399E+04  0.00000000000E+00 0. -1.
         -2   -1    0    0    0  501 -0.00000000000E+00 -0.00000000000E+00 -0.14726463892E+04  0.14726463892E+04  0.00000000000E+00 0.  1.
         23    2    1    2    0    0 -0.56397865985E+03  0.44160764537E+03  0.84094228743E+03  0.11084449829E+04  0.91526542894E+02 0.  0.
         13    1    3    3    0    0 -0.31066246939E+03  0.28689264448E+03  0.44887839366E+03  0.61669309356E+03  0.00000000000E+00 0. -1.
        -13    1    3    3    0    0 -0.25331619047E+03  0.15471500089E+03  0.39206389377E+03  0.49175188932E+03  0.00000000000E+00 0.  1.
         22    1    1    2    0    0  0.56397865985E+03 -0.44160764537E+03 -0.12430904367E+04  0.14346996462E+04  0.00000000000E+00 0.  1.
<mgrwt>
<rscale>  0 0.25111474E+04</rscale>
<asrwt>0</asrwt>
<pdfrwt beam="1">  1        2 0.16469204E+00 0.25111474E+04</pdfrwt>
<pdfrwt beam="2">  1       -2 0.22656098E+00 0.25111474E+04</pdfrwt>
<totfact> 0.18192332E+00</totfact>
</mgrwt>
</event>
<event>
 6    1  0.1568961E-005  0.4030034E+03  0.7818608E-02  0.1042745E+00
         -1   -1    0    0    0  501 -0.00000000000E+00  0.00000000000E+00  0.18595737064E+03  0.18595737064E+03  0.00000000000E+00 0.  1.
          1   -1    0    0  501    0  0.00000000000E+00 -0.00000000000E+00 -0.21834543421E+03  0.21834543421E+03  0.00000000000E+00 0. -1.
         23    2    1    2    0    0 -0.33794325380E+02  0.14987217265E+03 -0.13104187726E+03  0.22172049596E+03  0.91565715033E+02 0.  0.
         11    1    3    3    0    0 -0.78243394119E+01 -0.10719627378E+02 -0.74136458751E+00  0.13292114949E+02  0.00000000000E+00 0. -1.
        -11    1    3    3    0    0 -0.25969985969E+02  0.16059180003E+03 -0.13030051268E+03  0.20842838101E+03  0.00000000000E+00 0.  1.
         22    1    1    2    0    0  0.33794325380E+02 -0.14987217265E+03  0.98653813692E+02  0.18258230889E+03  0.00000000000E+00 0. -1.
<mgrwt>
<rscale>  0 0.40300344E+03</rscale>
<asrwt>0</asrwt>
<pdfrwt beam="1">  1        1 0.33591605E-01 0.40300344E+03</pdfrwt>
<pdfrwt beam="2">  1       -1 0.28608826E-01 0.40300344E+03</pdfrwt>
<totfact> 0.14610032E+03</totfact>
</mgrwt>
</event>
<event>
 6    1  0.1568961E-005  0.4999387E+04  0.7818608E-02  0.7828602E-01
          2   -1    0    0  501    0  0.00000000000E+00  0.00000000000E+00  0.24318816792E+04  0.24318816792E+04  0.00000000000E+00 0. -1.
         -2   -1    0    0    0  501 -0.00000000000E+00 -0.00000000000E+00 -0.25693963118E+04  0.25693963118E+04  0.00000000000E+00 0.  1.
         23    2    1    2    0    0 -0.85505355325E+03 -0.19878875231E+04 -0.13188457098E+04  0.25358456765E+04  0.91355927655E+02 0.  0.
         11    1    3    3    0    0 -0.27366811104E+03 -0.61633814528E+03 -0.46009018237E+03  0.81636384060E+03  0.00000000000E+00 0.  1.
        -11    1    3    3    0    0 -0.58138544220E+03 -0.13715493778E+04 -0.85875552739E+03  0.17194818359E+04  0.00000000000E+00 0. -1.
         22    1    1    2    0    0  0.85505355325E+03  0.19878875231E+04  0.11813310772E+04  0.24654323145E+04  0.00000000000E+00 0. -1.
<mgrwt>
<rscale>  0 0.49993871E+04</rscale>
<asrwt>0</asrwt>
<pdfrwt beam="1">  1        2 0.37413564E+00 0.49993871E+04</pdfrwt>
<pdfrwt beam="2">  1       -2 0.39529174E+00 0.49993871E+04</pdfrwt>
<totfact> 0.22121434E-02</totfact>
</mgrwt>
</event>
<event>
 6    1  0.1568961E-005  0.2323937E+04  0.7818608E-02  0.8468542E-01
         -1   -1    0    0    0  501 -0.00000000000E+00  0.00000000000E+00  0.92644678386E+03  0.92644678386E+03  0.00000000000E+00 0.  1.
          1   -1    0    0  501    0  0.00000000000E+00 -0.00000000000E+00 -0.14573650427E+04  0.14573650427E+04  0.00000000000E+00 0. -1.
         23    2    1    2    0    0 -0.49438097505E+03 -0.84252112426E+03  0.37622750147E+03  0.10507072456E+04  0.90466512048E+02 0.  0.
         11    1    3    3    0    0 -0.14590092831E+03 -0.27089119072E+03  0.75630631280E+02  0.31684240638E+03  0.00000000000E+00 0. -1.
        -11    1    3    3    0    0 -0.34848004674E+03 -0.57162993353E+03  0.30059687019E+03  0.73386483923E+03  0.00000000000E+00 0.  1.
         22    1    1    2    0    0  0.49438097505E+03  0.84252112426E+03 -0.90714576030E+03  0.13331045809E+04  0.00000000000E+00 0. -1.
<mgrwt>
<rscale>  0 0.23239373E+04</rscale>
<asrwt>0</asrwt>
<pdfrwt beam="1">  1        1 0.22421000E+00 0.23239373E+04</pdfrwt>
<pdfrwt beam="2">  1       -1 0.14253028E+00 0.23239373E+04</pdfrwt>
<totfact> 0.25264447E+00</totfact>
</mgrwt>
</event>
<event>
 6    1  0.1568961E-005  0.4991244E+03  0.7818608E-02  0.1014008E+00
          2   -1    0    0  501    0  0.00000000000E+00  0.00000000000E+00  0.63430638321E+03  0.63430638321E+03  0.00000000000E+00 0. -1.
         -2   -1    0    0    0  501 -0.00000000000E+00 -0.00000000000E+00 -0.98188024643E+02  0.98188024643E+02  0.00000000000E+00 0.  1.
         23    2    1    2    0    0  0.14851688257E+03  0.37369224633E+02  0.55030853780E+03  0.57869231247E+03  0.92690789031E+02 0.  0.
         11    1    3    3    0    0  0.74601753730E+02 -0.20181275319E+02  0.16565033822E+03  0.18279152082E+03  0.00000000000E+00 0. -1.
        -11    1    3    3    0    0  0.73915128842E+02  0.57550499953E+02  0.38465819958E+03  0.39590079164E+03  0.00000000000E+00 0.  1.
         22    1    1    2    0    0 -0.14851688257E+03 -0.37369224633E+02 -0.14190179236E+02  0.15380209539E+03  0.00000000000E+00 0.  1.
<mgrwt>
<rscale>  0 0.49912440E+03</rscale>
<asrwt>0</asrwt>
<pdfrwt beam="1">  1        2 0.97585595E-01 0.49912440E+03</pdfrwt>
<pdfrwt beam="2">  1       -2 0.15105850E-01 0.49912440E+03</pdfrwt>
<totfact> 0.16044467E+03</totfact>
</mgrwt>
</event>
<event>
 6    1  0.1568961E-005  0.3548560E+04  0.7818608E-02  0.8102377E-01
         -2   -1    0    0    0  501 -0.00000000000E+00  0.00000000000E+00  0.17440587835E+04  0.17440587835E+04  0.00000000000E+00 0.  1.
          2   -1    0    0  501    0  0.00000000000E+00 -0.00000000000E+00 -0.18050244004E+04  0.18050244004E+04  0.00000000000E+00 0. -1.
         23    2    1    2    0    0  0.59978978230E+03  0.14942311348E+04  0.71229297918E+03  0.17629131686E+04  0.89594000237E+02 0.  0.
         13    1    3    3    0    0  0.17861044297E+03  0.38070883026E+03  0.15210947960E+03  0.44718921897E+03  0.00000000000E+00 0. -1.
        -13    1    3    3    0    0  0.42117933932E+03  0.11135223045E+04  0.56018349958E+03  0.13157239497E+04  0.00000000000E+00 0.  1.
         22    1    1    2    0    0 -0.59978978230E+03 -0.14942311348E+04 -0.77325859614E+03  0.17861700153E+04  0.00000000000E+00 0. -1.
<mgrwt>
<rscale>  0 0.35485595E+04</rscale>
<asrwt>0</asrwt>
<pdfrwt beam="1">  1        2 0.27769606E+00 0.35485595E+04</pdfrwt>
<pdfrwt beam="2">  1       -2 0.26831674E+00 0.35485595E+04</pdfrwt>
<totfact> 0.34825904E-01</totfact>
</mgrwt>
</event>
<event>
 6    1  0.1568961E-005  0.9555313E+03  0.7818608E-02  0.9358709E-01
          2   -1    0    0  501    0  0.00000000000E+00  0.00000000000E+00  0.34958490849E+04  0.34958490849E+04  0.00000000000E+00 0. -1.
         -2   -1    0    0    0  501 -0.00000000000E+00 -0.00000000000E+00 -0.65294583560E+02  0.65294583560E+02  0.00000000000E+00 0.  1.
         23    2    1    2    0    0  0.45619527369E+03 -0.70753513842E+02  0.21221774671E+04  0.21737105525E+04  0.90885515106E+02 0.  0.
         13    1    3    3    0    0  0.28172143778E+03 -0.39989970906E+01  0.11774273901E+04  0.12106685011E+04  0.00000000000E+00 0. -1.
        -13    1    3    3    0    0  0.17447383591E+03 -0.66754516751E+02  0.94475007692E+03  0.96304205140E+03  0.00000000000E+00 0.  1.
         22    1    1    2    0    0 -0.45619527369E+03  0.70753513842E+02  0.13083770343E+04  0.13874331159E+04  0.00000000000E+00 0. -1.
<mgrwt>
<rscale>  0 0.95553129E+03</rscale>
<asrwt>0</asrwt>
<pdfrwt beam="1">  1        2 0.53782279E+00 0.95553129E+03</pdfrwt>
<pdfrwt beam="2">  1       -2 0.10045323E-01 0.95553129E+03</pdfrwt>
<totfact> 0.58376209E+01</totfact>
</mgrwt>
</event>
<event>
 6    1  0.1568961E-005  0.1337140E+04  0.7818608E-02  0.9000621E-01
         -1   -1    0    0    0  501 -0.00000000000E+00  0.00000000000E+00  0.35644684689E+03  0.35644684689E+03  0.00000000000E+00 0.  1.
          1   -1    0    0  501    0  0.00000000000E+00 -0.00000000000E+00 -0.12540034002E+04  0.12540034002E+04  0.00000000000E+00 0. -1.
         23    2    1    2    0    0  0.32642541209E+03 -0.88819222855E+02 -0.11420237188E+04  0.11930696066E+04  0.68952939540E+02 0.  0.
         11    1    3    3    0    0  0.26163340362E+03 -0.98419878334E+02 -0.94137275002E+03  0.98199855643E+03  0.00000000000E+00 0. -1.
        -11    1    3    3    0    0  0.64792008477E+02  0.96006554786E+01 -0.20065096881E+03  0.21107105020E+03  0.00000000000E+00 0.  1.
         22    1    1    2    0    0 -0.32642541209E+03  0.88819222855E+02  0.24446716553E+03  0.41738064046E+03  0.00000000000E+00 0.  1.
<mgrwt>
<rscale>  0 0.13371396E+04</rscale>
<asrwt>0</asrwt>
<pdfrwt beam="1">  1        1 0.19292360E+00 0.13371396E+04</pdfrwt>
<pdfrwt beam="2">  1       -1 0.54837976E-01 0.13371396E+04</pdfrwt>
<totfact> 0.32134496E+01</totfact>
</mgrwt>
</event>
<event>
 6    1  0.1568961E-005  0.1178390E+04  0.7818608E-02  0.9131985E-01
          2   -1    0    0  501    0  0.00000000000E+00  0.00000000000E+00  0.12848103847E+04  0.12848103847E+04  0.00000000000E+00 0. -1.
         -2   -1    0    0    0  501 -0.00000000000E+00 -0.00000000000E+00 -0.27019618062E+03  0.27019618062E+03  0.00000000000E+00 0.  1.
         23    2    1    2    0    0 -0.40239689122E+03 -0.19329742892E+03  0.10625498085E+02  0.45624340801E+03  0.93584144254E+02 0.  0.
         13    1    3    3    0    0 -0.10135098797E+03 -0.13232072238E+02 -0.19898274634E+02  0.10412997566E+03  0.00000000000E+00 0.  1.
        -13    1    3    3    0    0 -0.30104590325E+03 -0.18006535668E+03  0.30523772719E+02  0.35211343235E+03  0.00000000000E+00 0. -1.
         22    1    1    2    0    0  0.40239689122E+03  0.19329742892E+03  0.10039887060E+04  0.10987631573E+04  0.00000000000E+00 0. -1.
<mgrwt>
<rscale>  0 0.11783902E+04</rscale>
<asrwt>0</asrwt>
<pdfrwt beam="1">  1        2 0.19766313E+00 0.11783902E+04</pdfrwt>
<pdfrwt beam="2">  1       -2 0.41568644E-01 0.11783902E+04</pdfrwt>
<totfact> 0.91362142E+01</totfact>
</mgrwt>
</event>
<event>
 6    1  0.1568961E-005  0.1436269E+04  0.7818608E-02  0.8927975E-01
         -1   -1    0    0    0  501 -0.00000000000E+00  0.00000000000E+00  0.17174956670E+04  0.17174956670E+04  0.00000000000E+00 0.  1.
          1   -1    0    0  501    0  0.00000000000E+00 -0.00000000000E+00 -0.30027287287E+03  0.30027287287E+03  0.00000000000E+00 0. -1.
         23    2    1    2    0    0  0.91514864127E+02  0.58910265387E+03  0.12663669933E+04  0.14028096959E+04  0.93663088360E+02 0.  0.
         13    1    3    3    0    0  0.64226566997E+02  0.14602444974E+03  0.34181693858E+03  0.37720950588E+03  0.00000000000E+00 0. -1.
        -13    1    3    3    0    0  0.27288297130E+02  0.44307820413E+03  0.92455005467E+03  0.10256001900E+04  0.00000000000E+00 0.  1.
         22    1    1    2    0    0 -0.91514864127E+02 -0.58910265387E+03  0.15085580089E+03  0.61495884400E+03  0.00000000000E+00 0. -1.
<mgrwt>
<rscale>  0 0.14362693E+04</rscale>
<asrwt>0</asrwt>
<pdfrwt beam="1">  1        1 0.46195827E-01 0.14362693E+04</pdfrwt>
<pdfrwt beam="2">  1       -1 0.26423010E+00 0.14362693E+04</pdfrwt>
<totfact> 0.48022140E+00</totfact>
</mgrwt>
</event>
<event>
 6    1  0.1568961E-005  0.3976821E+04  0.7818608E-02  0.8009239E-01
          2   -1    0    0  501    0  0.00000000000E+00  0.00000000000E+00  0.41813116663E+04  0.41813116663E+04  0.00000000000E+00 0. -1.
         -2   -1    0    0    0  501 -0.00000000000E+00 -0.00000000000E+00 -0.94558273080E+03  0.94558273080E+03  0.00000000000E+00 0.  1.
         23    2    1    2    0    0  0.97668301970E+03 -0.98396089959E+03 -0.21698555822E+03  0.14062323393E+04  0.91202449788E+02 0.  0.
         13    1    3    3    0    0  0.38714043178E+03 -0.40470850919E+03 -0.13180095398E+03  0.57535917721E+03  0.00000000000E+00 0.  1.
        -13    1    3    3    0    0  0.58954258792E+03 -0.57925239040E+03 -0.85184604247E+02  0.83087316213E+03  0.00000000000E+00 0. -1.
         22    1    1    2    0    0 -0.97668301970E+03  0.98396089959E+03  0.34527144938E+04  0.37206620578E+04  0.00000000000E+00 0. -1.
<mgrwt>
<rscale>  0 0.39768209E+04</rscale>
<asrwt>0</asrwt>
<pdfrwt beam="1">  1        2 0.64327871E+00 0.39768209E+04</pdfrwt>
<pdfrwt beam="2">  1       -2 0.14547427E+00 0.39768209E+04</pdfrwt>
<totfact> 0.61683926E-02</totfact>
</mgrwt>
</event>
<event>
 6    1  0.1568961E-005  0.8836315E+03  0.7818608E-02  0.9446277E-01
          2   -1    0    0  501    0  0.00000000000E+00  0.00000000000E+00  0.47998146325E+03  0.47998146325E+03  0.00000000000E+00 0.  1.
         -2   -1    0    0    0  501 -0.00000000000E+00 -0.00000000000E+00 -0.40668480072E+03  0.40668480072E+03  0.00000000000E+00 0. -1.
         23    2    1    2    0    0 -0.22425188709E+03 -0.10100406921E+03  0.39995721933E+03  0.47776792669E+03  0.88349779937E+02 0.  0.
         11    1    3    3    0    0 -0.67282305905E+02  0.74666512318E+01  0.13777222341E+03  0.15350519572E+03  0.00000000000E+00 0.  1.
        -11    1    3    3    0    0 -0.15696958119E+03 -0.10847072044E+03  0.26218499593E+03  0.32426273098E+03  0.00000000000E+00 0. -1.
         22    1    1    2    0    0  0.22425188709E+03  0.10100406921E+03 -0.32666055680E+03  0.40889833728E+03  0.00000000000E+00 0. -1.
<mgrwt>
<rscale>  0 0.88363152E+03</rscale>
<asrwt>0</asrwt>
<pdfrwt beam="1">  1        2 0.73843302E-01 0.88363152E+03</pdfrwt>
<pdfrwt beam="2">  1       -2 0.62566893E-01 0.88363152E+03</pdfrwt>
<totfact> 0.15369691E+02</totfact>
</mgrwt>
</event>
<event>
 6    1  0.1568961E-005  0.1977201E+04  0.7818608E-02  0.8617355E-01
          1   -1    0    0  501    0  0.00000000000E+00  0.00000000000E+00  0.77115835036E+03  0.77115835036E+03  0.00000000000E+00 0. -1.
         -1   -1    0    0    0  501 -0.00000000000E+00 -0.00000000000E+00 -0.12673544896E+04  0.12673544896E+04  0.00000000000E+00 0.  1.
         23    2    1    2    0    0 -0.13538774930E+03 -0.12205061660E+02 -0.12559941368E+04  0.12666502853E+04  0.91667154589E+02 0.  0.
         13    1    3    3    0    0 -0.10425519461E+03 -0.24430622444E+02 -0.57821723225E+03  0.58804861074E+03  0.00000000000E+00 0. -1.
        -13    1    3    3    0    0 -0.31132554684E+02  0.12225560784E+02 -0.67777690459E+03  0.67860167454E+03  0.00000000000E+00 0.  1.
         22    1    1    2    0    0  0.13538774930E+03  0.12205061660E+02  0.75979799759E+03  0.77186255469E+03  0.00000000000E+00 0. -1.
<mgrwt>
<rscale>  0 0.19772010E+04</rscale>
<asrwt>0</asrwt>
<pdfrwt beam="1">  1        1 0.11863975E+00 0.19772010E+04</pdfrwt>
<pdfrwt beam="2">  1       -1 0.19497761E+00 0.19772010E+04</pdfrwt>
<totfact> 0.35531030E+00</totfact>
</mgrwt>
</event>
<event>
 6    1  0.1568961E-005  0.2586673E+04  0.7818608E-02  0.8372742E-01
         -1   -1    0    0    0  501 -0.00000000000E+00  0.00000000000E+00  0.82355634997E+03  0.82355634997E+03  0.00000000000E+00 0.  1.
          1   -1    0    0  501    0  0.00000000000E+00 -0.00000000000E+00 -0.20310930121E+04  0.20310930121E+04  0.00000000000E+00 0. -1.
         23    2    1    2    0    0 -0.13264263480E+03 -0.13272617601E+03 -0.20149519290E+04  0.20257164821E+04  0.91025728227E+02 0.  0.
         13    1    3    3    0    0 -0.11333892787E+03 -0.70173063412E+02 -0.10298231640E+04  0.10384150039E+04  0.00000000000E+00 0. -1.
        -13    1    3    3    0    0 -0.19303706934E+02 -0.62553112596E+02 -0.98512876504E+03  0.98730147813E+03  0.00000000000E+00 0.  1.
         22    1    1    2    0    0  0.13264263480E+03  0.13272617601E+03  0.80741526687E+03  0.82893287999E+03  0.00000000000E+00 0.  1.
<mgrwt>
<rscale>  0 0.25866732E+04</rscale>
<asrwt>0</asrwt>
<pdfrwt beam="1">  1        1 0.31247584E+00 0.25866732E+04</pdfrwt>
<pdfrwt beam="2">  1       -1 0.12670098E+00 0.25866732E+04</pdfrwt>
<totfact> 0.13539688E+00</totfact>
</mgrwt>
</event>
<event>
 6    1  0.1568961E-005  0.9032088E+03  0.7818608E-02  0.9421579E-01
          1   -1    0    0  501    0  0.00000000000E+00  0.00000000000E+00  0.30674531657E+04  0.30674531657E+04  0.00000000000E+00 0. -1.
         -1   -1    0    0    0  501 -0.00000000000E+00 -0.00000000000E+00 -0.66487257974E+02  0.66487257974E+02  0.00000000000E+00 0.  1.
         23    2    1    2    0    0  0.24431198435E+03 -0.24814783143E+03  0.24882439218E+04  0.25141424511E+04  0.91042617041E+02 0.  0.
         13    1    3    3    0    0  0.32479745882E+02 -0.84126944119E+02  0.74356586114E+03  0.74901432995E+03  0.00000000000E+00 0. -1.
        -13    1    3    3    0    0  0.21183223847E+03 -0.16402088731E+03  0.17446780607E+04  0.17651281212E+04  0.00000000000E+00 0.  1.
         22    1    1    2    0    0 -0.24431198435E+03  0.24814783143E+03  0.51272198585E+03  0.61979797250E+03  0.00000000000E+00 0.  1.
<mgrwt>
<rscale>  0 0.90320884E+03</rscale>
<asrwt>0</asrwt>
<pdfrwt beam="1">  1        1 0.47191576E+00 0.90320884E+03</pdfrwt>
<pdfrwt beam="2">  1       -1 0.10228811E-01 0.90320884E+03</pdfrwt>
<totfact> 0.33760301E+01</totfact>
</mgrwt>
</event>
<event>
 6    1  0.1568961E-005  0.2436538E+04  0.7818608E-02  0.8425950E-01
         -1   -1    0    0    0  501 -0.00000000000E+00  0.00000000000E+00  0.85863989388E+03  0.85863989388E+03  0.00000000000E+00 0.  1.
          1   -1    0    0  501    0  0.00000000000E+00 -0.00000000000E+00 -0.17285239804E+04  0.17285239804E+04  0.00000000000E+00 0. -1.
         23    2    1    2    0    0 -0.65070255310E+03  0.12348679543E+02  0.65566924063E+03  0.92858639448E+03  0.93830892668E+02 0.  0.
         11    1    3    3    0    0 -0.30265386307E+03  0.51345067624E+02  0.29129807623E+03  0.42319055520E+03  0.00000000000E+00 0. -1.
        -11    1    3    3    0    0 -0.34804869003E+03 -0.38996388081E+02  0.36437116440E+03  0.50539583928E+03  0.00000000000E+00 0.  1.
         22    1    1    2    0    0  0.65070255310E+03 -0.12348679543E+02 -0.15255533271E+04  0.16585774797E+04  0.00000000000E+00 0. -1.
<mgrwt>
<rscale>  0 0.24365382E+04</rscale>
<asrwt>0</asrwt>
<pdfrwt beam="1">  1        1 0.26592676E+00 0.24365382E+04</pdfrwt>
<pdfrwt beam="2">  1       -1 0.13209845E+00 0.24365382E+04</pdfrwt>
<totfact> 0.19822001E+00</totfact>
</mgrwt>
</event>
<event>
 6    1  0.1568961E-005  0.1193322E+04  0.7818608E-02  0.9118722E-01
         -1   -1    0    0    0  501 -0.00000000000E+00  0.00000000000E+00  0.33221574353E+03  0.33221574353E+03  0.00000000000E+00 0.  1.
          1   -1    0    0  501    0  0.00000000000E+00 -0.00000000000E+00 -0.10716057369E+04  0.10716057369E+04  0.00000000000E+00 0. -1.
         23    2    1    2    0    0  0.16182598470E+03  0.55012195510E+03 -0.19747962632E+03  0.61484197453E+03  0.10104769181E+03 0.  0.
         13    1    3    3    0    0  0.60187707739E+02  0.35312301910E+03 -0.94827973475E+02  0.37055468063E+03  0.00000000000E+00 0.  1.
        -13    1    3    3    0    0  0.10163827696E+03  0.19699893600E+03 -0.10265165284E+03  0.24428729390E+03  0.00000000000E+00 0. -1.
         22    1    1    2    0    0 -0.16182598470E+03 -0.55012195510E+03 -0.54191036700E+03  0.78897950586E+03  0.00000000000E+00 0. -1.
<mgrwt>
<rscale>  0 0.11933219E+04</rscale>
<asrwt>0</asrwt>
<pdfrwt beam="1">  1        1 0.16486242E+00 0.11933219E+04</pdfrwt>
<pdfrwt beam="2">  1       -1 0.51110114E-01 0.11933219E+04</pdfrwt>
<totfact> 0.50761822E+01</totfact>
</mgrwt>
</event>
<event>
 6    1  0.1568961E-005  0.7354988E+03  0.7818608E-02  0.9658379E-01
         -2   -1    0    0    0  501 -0.00000000000E+00  0.00000000000E+00  0.50180606957E+02  0.50180606957E+02  0.00000000000E+00 0.  1.
          2   -1    0    0  501    0  0.00000000000E+00 -0.00000000000E+00 -0.26950575305E+04  0.26950575305E+04  0.00000000000E+00 0. -1.
         23    2    1    2    0    0  0.17668283181E+02  0.69932565491E+02 -0.26672818986E+04  0.26697085746E+04  0.88025079967E+02 0.  0.
         13    1    3    3    0    0 -0.81299590734E+01  0.53750571413E+00 -0.15289209023E+04  0.15289426120E+04  0.00000000000E+00 0.  1.
        -13    1    3    3    0    0  0.25798242254E+02  0.69395059777E+02 -0.11383609963E+04  0.11407659627E+04  0.00000000000E+00 0. -1.
         22    1    1    2    0    0 -0.17668283181E+02 -0.69932565491E+02  0.22404975122E+02  0.75529562801E+02  0.00000000000E+00 0.  1.
<mgrwt>
<rscale>  0 0.73549880E+03</rscale>
<asrwt>0</asrwt>
<pdfrwt beam="1">  1        2 0.41462422E+00 0.73549880E+03</pdfrwt>
<pdfrwt beam="2">  1       -2 0.77200937E-02 0.73549880E+03</pdfrwt>
<totfact> 0.29124247E+02</totfact>
</mgrwt>
</event>
<event>
 6    1  0.1568961E-005  0.3788813E+04  0.7818608E-02  0.8048560E-01
          2   -1    0    0  501    0  0.00000000000E+00  0.00000000000E+00  0.25860739419E+04  0.25860739419E+04  0.00000000000E+00 0. -1.
         -2   -1    0    0    0  501 -0.00000000000E+00 -0.00000000000E+00 -0.13877315346E+04  0.13877315346E+04  0.00000000000E+00 0.  1.
         23    2    1    2    0    0 -0.86456674045E+03 -0.14961999348E+04  0.14108957628E+04  0.22327515363E+04  0.91992803653E+02 0.  0.
         13    1    3    3    0    0 -0.38849730117E+03 -0.61067141697E+03  0.63368235624E+03  0.96197872176E+03  0.00000000000E+00 0.  1.
        -13    1    3    3    0    0 -0.47606943928E+03 -0.88552851782E+03  0.77721340655E+03  0.12707728146E+04  0.00000000000E+00 0. -1.
         22    1    1    2    0    0  0.86456674045E+03  0.14961999348E+04 -0.21255335555E+03  0.17410539402E+04  0.00000000000E+00 0.  1.
<mgrwt>
<rscale>  0 0.37888132E+04</rscale>
<asrwt>0</asrwt>
<pdfrwt beam="1">  1        2 0.39785753E+00 0.37888132E+04</pdfrwt>
<pdfrwt beam="2">  1       -2 0.21349716E+00 0.37888132E+04</pdfrwt>
<totfact> 0.27058162E-01</totfact>
</mgrwt>
</event>
<event>
 6    1  0.1568961E-005  0.3540209E+04  0.7818608E-02  0.8104327E-01
         -2   -1    0    0    0  501 -0.00000000000E+00  0.00000000000E+00  0.20742222329E+04  0.20742222329E+04  0.00000000000E+00 0. -1.
          2   -1    0    0  501    0  0.00000000000E+00 -0.00000000000E+00 -0.15105755728E+04  0.15105755728E+04  0.00000000000E+00 0.  1.
         23    2    1    2    0    0 -0.10955137402E+04  0.16186612878E+03 -0.11147668578E+04  0.15739713747E+04  0.91267422524E+02 0.  0.
         13    1    3    3    0    0 -0.31995160511E+03  0.55839493260E+01 -0.31801754848E+03  0.45114894574E+03  0.00000000000E+00 0. -1.
        -13    1    3    3    0    0 -0.77556213511E+03  0.15628217945E+03 -0.79674930930E+03  0.11228224289E+04  0.00000000000E+00 0.  1.
         22    1    1    2    0    0  0.10955137402E+04 -0.16186612878E+03  0.16784135179E+04  0.20108264310E+04  0.00000000000E+00 0. -1.
<mgrwt>
<rscale>  0 0.35402087E+04</rscale>
<asrwt>0</asrwt>
<pdfrwt beam="1">  1        2 0.23239624E+00 0.35402087E+04</pdfrwt>
<pdfrwt beam="2">  1       -2 0.31911111E+00 0.35402087E+04</pdfrwt>
<totfact> 0.24860995E-01</totfact>
</mgrwt>
</event>
<event>
 6    1  0.1568961E-005  0.2264092E+04  0.7818608E-02  0.8492215E-01
         -1   -1    0    0    0  501 -0.00000000000E+00  0.00000000000E+00  0.16177200476E+04  0.16177200476E+04  0.00000000000E+00 0.  1.
          1   -1    0    0  501    0  0.00000000000E+00 -0.00000000000E+00 -0.79218178745E+03  0.79218178745E+03  0.00000000000E+00 0. -1.
         23    2    1    2    0    0 -0.84128627264E+03 -0.99241036490E+02 -0.38299491609E+03  0.93404147108E+03  0.90205255297E+02 0.  0.
         13    1    3    3    0    0 -0.29838354827E+03 -0.78642454550E+02 -0.14320521838E+03  0.34018393864E+03  0.00000000000E+00 0. -1.
        -13    1    3    3    0    0 -0.54290272437E+03 -0.20598581941E+02 -0.23978969771E+03  0.59385753244E+03  0.00000000000E+00 0.  1.
         22    1    1    2    0    0  0.84128627264E+03  0.99241036490E+02  0.12085331762E+04  0.14758603640E+04  0.00000000000E+00 0.  1.
<mgrwt>
<rscale>  0 0.22640922E+04</rscale>
<asrwt>0</asrwt>
<pdfrwt beam="1">  1        1 0.12187412E+00 0.22640922E+04</pdfrwt>
<pdfrwt beam="2">  1       -1 0.24888001E+00 0.22640922E+04</pdfrwt>
<totfact> 0.14438958E+00</totfact>
</mgrwt>
</event>
<event>
 6    1  0.1568961E-005  0.2922380E+04  0.7818608E-02  0.8266250E-01
         -1   -1    0    0    0  501 -0.00000000000E+00  0.00000000000E+00  0.10012254841E+04  0.10012254841E+04  0.00000000000E+00 0.  1.
          1   -1    0    0  501    0  0.00000000000E+00 -0.00000000000E+00 -0.21324627347E+04  0.21324627347E+04  0.00000000000E+00 0. -1.
         23    2    1    2    0    0  0.10588776266E+04  0.49505716267E+03  0.37137264687E+03  0.12299708222E+04  0.92774771435E+02 0.  0.
         11    1    3    3    0    0  0.86400720246E+03  0.41879979044E+03  0.26968541225E+03  0.99731235426E+03  0.00000000000E+00 0.  1.
        -11    1    3    3    0    0  0.19487042414E+03  0.76257372225E+02  0.10168723462E+03  0.23265846795E+03  0.00000000000E+00 0. -1.
         22    1    1    2    0    0 -0.10588776266E+04 -0.49505716267E+03 -0.15026098974E+04  0.19037173966E+04  0.00000000000E+00 0. -1.
<mgrwt>
<rscale>  0 0.29223799E+04</rscale>
<asrwt>0</asrwt>
<pdfrwt beam="1">  1        1 0.32807119E+00 0.29223799E+04</pdfrwt>
<pdfrwt beam="2">  1       -1 0.15403469E+00 0.29223799E+04</pdfrwt>
<totfact> 0.67353562E-01</totfact>
</mgrwt>
</event>
<event>
 6    1  0.1568961E-005  0.2352038E+04  0.7818608E-02  0.8457681E-01
         -1   -1    0    0    0  501 -0.00000000000E+00  0.00000000000E+00  0.15780776890E+04  0.15780776890E+04  0.00000000000E+00 0.  1.
          1   -1    0    0  501    0  0.00000000000E+00 -0.00000000000E+00 -0.87639583000E+03  0.87639583000E+03  0.00000000000E+00 0. -1.
         23    2    1    2    0    0  0.41056467251E+03  0.17627746756E+03  0.14845766229E+04  0.15530516937E+04  0.91458832842E+02 0.  0.
         11    1    3    3    0    0  0.25127903209E+03  0.75508857836E+02  0.74570111870E+03  0.79051432498E+03  0.00000000000E+00 0. -1.
        -11    1    3    3    0    0  0.15928564042E+03  0.10076860972E+03  0.73887550419E+03  0.76253736869E+03  0.00000000000E+00 0.  1.
         22    1    1    2    0    0 -0.41056467251E+03 -0.17627746756E+03 -0.78289476388E+03  0.90142182534E+03  0.00000000000E+00 0. -1.
<mgrwt>
<rscale>  0 0.23520380E+04</rscale>
<asrwt>0</asrwt>
<pdfrwt beam="1">  1        1 0.13483013E+00 0.23520380E+04</pdfrwt>
<pdfrwt beam="2">  1       -1 0.24278118E+00 0.23520380E+04</pdfrwt>
<totfact> 0.13312399E+00</totfact>
</mgrwt>
</event>
<event>
 6    1  0.1568961E-005  0.1698256E+04  0.7818608E-02  0.8762360E-01
          1   -1    0    0  501    0  0.00000000000E+00  0.00000000000E+00  0.14165166602E+04  0.14165166602E+04  0.00000000000E+00 0. -1.
         -1   -1    0    0    0  501 -0.00000000000E+00 -0.00000000000E+00 -0.50900808267E+03  0.50900808267E+03  0.00000000000E+00 0.  1.
         23    2    1    2    0    0 -0.58464434856E+03 -0.61105751821E+03  0.40825150295E+03  0.94345655207E+03  0.90778142327E+02 0.  0.
         13    1    3    3    0    0 -0.25173347261E+03 -0.32866385351E+03  0.19630741589E+03  0.45817711790E+03  0.00000000000E+00 0. -1.
        -13    1    3    3    0    0 -0.33291087595E+03 -0.28239366470E+03  0.21194408707E+03  0.48527943417E+03  0.00000000000E+00 0.  1.
         22    1    1    2    0    0  0.58464434856E+03  0.61105751821E+03  0.49925707458E+03  0.98206819080E+03  0.00000000000E+00 0.  1.
<mgrwt>
<rscale>  0 0.16982561E+04</rscale>
<asrwt>0</asrwt>
<pdfrwt beam="1">  1        1 0.21792564E+00 0.16982561E+04</pdfrwt>
<pdfrwt beam="2">  1       -1 0.78308936E-01 0.16982561E+04</pdfrwt>
<totfact> 0.11621652E+01</totfact>
</mgrwt>
</event>
<event>
 6    1  0.1568961E-005  0.4951494E+04  0.7818608E-02  0.7836034E-01
          2   -1    0    0  501    0  0.00000000000E+00  0.00000000000E+00  0.32294576675E+04  0.32294576675E+04  0.00000000000E+00 0. -1.
         -2   -1    0    0    0  501 -0.00000000000E+00 -0.00000000000E+00 -0.18979419046E+04  0.18979419046E+04  0.00000000000E+00 0.  1.
         23    2    1    2    0    0  0.15195358467E+04  0.17820341383E+04 -0.16279028071E+03  0.23493453229E+04  0.91037968559E+02 0.  0.
         11    1    3    3    0    0  0.31116313402E+03  0.31897313950E+03 -0.50709159136E+02  0.44848386650E+03  0.00000000000E+00 0.  1.
        -11    1    3    3    0    0  0.12083727126E+04  0.14630609988E+04 -0.11208112157E+03  0.19008614564E+04  0.00000000000E+00 0. -1.
         22    1    1    2    0    0 -0.15195358467E+04 -0.17820341383E+04  0.14943060436E+04  0.27780542491E+04  0.00000000000E+00 0. -1.
<mgrwt>
<rscale>  0 0.49514939E+04</rscale>
<asrwt>0</asrwt>
<pdfrwt beam="1">  1        2 0.49683964E+00 0.49514939E+04</pdfrwt>
<pdfrwt beam="2">  1       -2 0.29199106E+00 0.49514939E+04</pdfrwt>
<totfact> 0.32219134E-02</totfact>
</mgrwt>
</event>
<event>
 6    1  0.1568961E-005  0.1950247E+04  0.7818608E-02  0.8630242E-01
          1   -1    0    0  501    0  0.00000000000E+00  0.00000000000E+00  0.12862800320E+04  0.12862800320E+04  0.00000000000E+00 0. -1.
         -1   -1    0    0    0  501 -0.00000000000E+00 -0.00000000000E+00 -0.73923681176E+03  0.73923681176E+03  0.00000000000E+00 0.  1.
         23    2    1    2    0    0  0.96296306497E+03 -0.10381134068E+03  0.17674366885E+03  0.98860005989E+03  0.89538232017E+02 0.  0.
         11    1    3    3    0    0  0.11238786516E+03  0.16608203282E+02  0.19437209884E+02  0.11525914185E+03  0.00000000000E+00 0. -1.
        -11    1    3    3    0    0  0.85057519980E+03 -0.12041954397E+03  0.15730645896E+03  0.87334091804E+03  0.00000000000E+00 0.  1.
         22    1    1    2    0    0 -0.96296306497E+03  0.10381134068E+03  0.37029955141E+03  0.10369167839E+04  0.00000000000E+00 0. -1.
<mgrwt>
<rscale>  0 0.19502467E+04</rscale>
<asrwt>0</asrwt>
<pdfrwt beam="1">  1        1 0.19788924E+00 0.19502467E+04</pdfrwt>
<pdfrwt beam="2">  1       -1 0.11372874E+00 0.19502467E+04</pdfrwt>
<totfact> 0.60770686E+00</totfact>
</mgrwt>
</event>
<event>
 6    1  0.1568961E-005  0.2957240E+04  0.7818608E-02  0.8256048E-01
         -1   -1    0    0    0  501 -0.00000000000E+00  0.00000000000E+00  0.18276436629E+04  0.18276436629E+04  0.00000000000E+00 0.  1.
          1   -1    0    0  501    0  0.00000000000E+00 -0.00000000000E+00 -0.11962492763E+04  0.11962492763E+04  0.00000000000E+00 0. -1.
         23    2    1    2    0    0  0.13032588890E+04 -0.55112994276E+03 -0.11745051074E+03  0.14229567675E+04  0.93719763264E+02 0.  0.
         13    1    3    3    0    0  0.89565942956E+03 -0.38751122965E+03 -0.38138243127E+02  0.97663979667E+03  0.00000000000E+00 0.  1.
        -13    1    3    3    0    0  0.40759945944E+03 -0.16361871311E+03 -0.79312267617E+02  0.44631697078E+03  0.00000000000E+00 0. -1.
         22    1    1    2    0    0 -0.13032588890E+04  0.55112994276E+03  0.74884489740E+03  0.16009361717E+04  0.00000000000E+00 0. -1.
<mgrwt>
<rscale>  0 0.29572402E+04</rscale>
<asrwt>0</asrwt>
<pdfrwt beam="1">  1        1 0.18403835E+00 0.29572402E+04</pdfrwt>
<pdfrwt beam="2">  1       -1 0.28117595E+00 0.29572402E+04</pdfrwt>
<totfact> 0.40167512E-01</totfact>
</mgrwt>
</event>
<event>
 6    1  0.1568961E-005  0.1534823E+04  0.7818608E-02  0.8861620E-01
         -1   -1    0    0    0  501 -0.00000000000E+00  0.00000000000E+00  0.44631634744E+03  0.44631634744E+03  0.00000000000E+00 0.  1.
          1   -1    0    0  501    0  0.00000000000E+00 -0.00000000000E+00 -0.13195138104E+04  0.13195138104E+04  0.00000000000E+00 0. -1.
         23    2    1    2    0    0  0.31888305585E+02  0.43818289415E+03 -0.11581630814E+04  0.12421637407E+04  0.92778891959E+02 0.  0.
         13    1    3    3    0    0  0.55634680557E+02  0.32292199542E+03 -0.91773209266E+03  0.97447730948E+03  0.00000000000E+00 0. -1.
        -13    1    3    3    0    0 -0.23746374972E+02  0.11526089873E+03 -0.24043098872E+03  0.26768643118E+03  0.00000000000E+00 0.  1.
         22    1    1    2    0    0 -0.31888305585E+02 -0.43818289415E+03  0.28496561844E+03  0.52366641715E+03  0.00000000000E+00 0.  1.
<mgrwt>
<rscale>  0 0.15348232E+04</rscale>
<asrwt>0</asrwt>
<pdfrwt beam="1">  1        1 0.20300212E+00 0.15348232E+04</pdfrwt>
<pdfrwt beam="2">  1       -1 0.68664054E-01 0.15348232E+04</pdfrwt>
<totfact> 0.18137569E+01</totfact>
</mgrwt>
</event>
<event>
 6    1  0.1568961E-005  0.3485835E+04  0.7818608E-02  0.8117155E-01
         -1   -1    0    0    0  501 -0.00000000000E+00  0.00000000000E+00  0.10284899002E+04  0.10284899002E+04  0.00000000000E+00 0.  1.
          1   -1    0    0  501    0  0.00000000000E+00 -0.00000000000E+00 -0.29536139406E+04  0.29536139406E+04  0.00000000000E+00 0. -1.
         23    2    1    2    0    0 -0.66615422874E+03  0.13911733108E+04 -0.18873418653E+04  0.24392000428E+04  0.92265352217E+02 0.  0.
         11    1    3    3    0    0 -0.16793537128E+03  0.31543674723E+03 -0.49524710757E+03  0.61071460436E+03  0.00000000000E+00 0. -1.
        -11    1    3    3    0    0 -0.49821885746E+03  0.10757365636E+04 -0.13920947578E+04  0.18284854385E+04  0.00000000000E+00 0.  1.
         22    1    1    2    0    0  0.66615422874E+03 -0.13911733108E+04 -0.37782175066E+02  0.15429037980E+04  0.00000000000E+00 0.  1.
<mgrwt>
<rscale>  0 0.34858354E+04</rscale>
<asrwt>0</asrwt>
<pdfrwt beam="1">  1        1 0.45440214E+00 0.34858354E+04</pdfrwt>
<pdfrwt beam="2">  1       -1 0.15822922E+00 0.34858354E+04</pdfrwt>
<totfact> 0.15897115E-01</totfact>
</mgrwt>
</event>
<event>
 6    1  0.1568961E-005  0.7904736E+03  0.7818608E-02  0.9573909E-01
          1   -1    0    0  501    0  0.00000000000E+00  0.00000000000E+00  0.11655043334E+04  0.11655043334E+04  0.00000000000E+00 0. -1.
         -1   -1    0    0    0  501 -0.00000000000E+00 -0.00000000000E+00 -0.13402964803E+03  0.13402964803E+03  0.00000000000E+00 0.  1.
         23    2    1    2    0    0 -0.12133699072E+03 -0.36931412157E+03  0.48089091130E+03  0.62554727681E+03  0.94539627932E+02 0.  0.
         13    1    3    3    0    0 -0.91926976284E+02 -0.28412404496E+03  0.29916870312E+03  0.42270433499E+03  0.00000000000E+00 0.  1.
        -13    1    3    3    0    0 -0.29410014441E+02 -0.85190076614E+02  0.18172220818E+03  0.20284294183E+03  0.00000000000E+00 0. -1.
         22    1    1    2    0    0  0.12133699072E+03  0.36931412157E+03  0.55058377403E+03  0.67398670457E+03  0.00000000000E+00 0.  1.
<mgrwt>
<rscale>  0 0.79047362E+03</rscale>
<asrwt>0</asrwt>
<pdfrwt beam="1">  1        1 0.17930835E+00 0.79047362E+03</pdfrwt>
<pdfrwt beam="2">  1       -1 0.20619947E-01 0.79047362E+03</pdfrwt>
<totfact> 0.22260242E+02</totfact>
</mgrwt>
</event>
<event>
 6    1  0.1771190E-005  0.4175813E+04  0.7818608E-02  0.7969989E-01
          1   -1    0    0  501    0  0.00000000000E+00  0.00000000000E+00  0.20913190368E+04  0.20913190368E+04  0.00000000000E+00 0. -1.
         -1   -1    0    0    0  501 -0.00000000000E+00 -0.00000000000E+00 -0.20844998648E+04  0.20844998648E+04  0.00000000000E+00 0.  1.
         23    2    1    2    0    0  0.94162171379E+03  0.69854418851E+03  0.17298307036E+04  0.20917401667E+04  0.91908795081E+02 0.  0.
         13    1    3    3    0    0  0.38700345046E+03  0.30414156337E+03  0.64986454901E+03  0.81522861413E+03  0.00000000000E+00 0. -1.
        -13    1    3    3    0    0  0.55461826333E+03  0.39440262514E+03  0.10799661546E+04  0.12765115526E+04  0.00000000000E+00 0.  1.
         22    1    1    2    0    0 -0.94162171379E+03 -0.69854418851E+03 -0.17230115316E+04  0.20840787349E+04  0.00000000000E+00 0.  1.
<mgrwt>
<rscale>  0 0.41758133E+04</rscale>
<asrwt>0</asrwt>
<pdfrwt beam="1">  1        1 0.32174139E+00 0.41758133E+04</pdfrwt>
<pdfrwt beam="2">  1       -1 0.32069229E+00 0.41758133E+04</pdfrwt>
<totfact> 0.48272470E-02</totfact>
</mgrwt>
</event>
<event>
 6    1  0.1568961E-005  0.1808050E+04  0.7818608E-02  0.8702030E-01
         -1   -1    0    0    0  501 -0.00000000000E+00  0.00000000000E+00  0.60628295142E+03  0.60628295142E+03  0.00000000000E+00 0.  1.
          1   -1    0    0  501    0  0.00000000000E+00 -0.00000000000E+00 -0.13479866038E+04  0.13479866038E+04  0.00000000000E+00 0. -1.
         23    2    1    2    0    0  0.66378841611E+03  0.41348637330E+03  0.11538711046E+03  0.79401500642E+03  0.74562744617E+02 0.  0.
         11    1    3    3    0    0  0.11320343137E+03  0.91075083142E+02 -0.18069285747E+01  0.14530296843E+03  0.00000000000E+00 0.  1.
        -11    1    3    3    0    0  0.55058498474E+03  0.32241129016E+03  0.11719403904E+03  0.64871203799E+03  0.00000000000E+00 0. -1.
         22    1    1    2    0    0 -0.66378841611E+03 -0.41348637330E+03 -0.85709076288E+03  0.11602545488E+04  0.00000000000E+00 0. -1.
<mgrwt>
<rscale>  0 0.18080501E+04</rscale>
<asrwt>0</asrwt>
<pdfrwt beam="1">  1        1 0.20738255E+00 0.18080501E+04</pdfrwt>
<pdfrwt beam="2">  1       -1 0.93274301E-01 0.18080501E+04</pdfrwt>
<totfact> 0.87963803E+00</totfact>
</mgrwt>
</event>
<event>
 6    1  0.1568961E-005  0.2395447E+04  0.7818608E-02  0.8441210E-01
          1   -1    0    0  501    0  0.00000000000E+00  0.00000000000E+00  0.15696807019E+04  0.15696807019E+04  0.00000000000E+00 0. -1.
         -1   -1    0    0    0  501 -0.00000000000E+00 -0.00000000000E+00 -0.91390655048E+03  0.91390655048E+03  0.00000000000E+00 0.  1.
         23    2    1    2    0    0 -0.24944550844E+03 -0.56274752760E+03 -0.73474586581E+03  0.96291182355E+03  0.91868662250E+02 0.  0.
         11    1    3    3    0    0 -0.19345213772E+03 -0.49657143782E+03 -0.59801673966E+03  0.80101869101E+03  0.00000000000E+00 0.  1.
        -11    1    3    3    0    0 -0.55993370718E+02 -0.66176089788E+02 -0.13672912615E+03  0.16189313254E+03  0.00000000000E+00 0. -1.
         22    1    1    2    0    0  0.24944550844E+03  0.56274752760E+03  0.13905200172E+04  0.15206754288E+04  0.00000000000E+00 0. -1.
<mgrwt>
<rscale>  0 0.23954469E+04</rscale>
<asrwt>0</asrwt>
<pdfrwt beam="1">  1        1 0.24148934E+00 0.23954469E+04</pdfrwt>
<pdfrwt beam="2">  1       -1 0.14060101E+00 0.23954469E+04</pdfrwt>
<totfact> 0.21754721E+00</totfact>
</mgrwt>
</event>
<event>
 6    1  0.1568961E-005  0.1762447E+04  0.7818608E-02  0.8726528E-01
         -2   -1    0    0    0  501 -0.00000000000E+00  0.00000000000E+00  0.12238447831E+04  0.12238447831E+04  0.00000000000E+00 0.  1.
          2   -1    0    0  501    0  0.00000000000E+00 -0.00000000000E+00 -0.63452087647E+03  0.63452087647E+03  0.00000000000E+00 0. -1.
         23    2    1    2    0    0  0.76645913337E+02  0.80030728868E+03 -0.78917386789E+02  0.81294097143E+03  0.90987453832E+02 0.  0.
         13    1    3    3    0    0  0.48306180867E+02  0.59856478869E+03 -0.97489751289E+02  0.60837286673E+03  0.00000000000E+00 0. -1.
        -13    1    3    3    0    0  0.28339732470E+02  0.20174249998E+03  0.18572364500E+02  0.20456810470E+03  0.00000000000E+00 0.  1.
         22    1    1    2    0    0 -0.76645913337E+02 -0.80030728868E+03  0.66824129345E+03  0.10454246882E+04  0.00000000000E+00 0.  1.
<mgrwt>
<rscale>  0 0.17624472E+04</rscale>
<asrwt>0</asrwt>
<pdfrwt beam="1">  1        2 0.97618597E-01 0.17624472E+04</pdfrwt>
<pdfrwt beam="2">  1       -2 0.18828381E+00 0.17624472E+04</pdfrwt>
<totfact> 0.69758540E+00</totfact>
</mgrwt>
</event>
<event>
 6    1  0.1568961E-005  0.3583508E+04  0.7818608E-02  0.8094280E-01
          2   -1    0    0  501    0  0.00000000000E+00  0.00000000000E+00  0.14967748359E+04  0.14967748359E+04  0.00000000000E+00 0. -1.
         -2   -1    0    0    0  501 -0.00000000000E+00 -0.00000000000E+00 -0.21448662362E+04  0.21448662362E+04  0.00000000000E+00 0.  1.
         23    2    1    2    0    0 -0.15582532128E+04 -0.79758252913E+03  0.58570889884E+02  0.17538745192E+04  0.91401935636E+02 0.  0.
         11    1    3    3    0    0 -0.12482770042E+04 -0.62722867999E+03  0.11458084523E+02  0.13970478102E+04  0.00000000000E+00 0. -1.
        -11    1    3    3    0    0 -0.30997620862E+03 -0.17035384914E+03  0.47112805361E+02  0.35682670900E+03  0.00000000000E+00 0.  1.
         22    1    1    2    0    0  0.15582532128E+04  0.79758252913E+03 -0.70666229021E+03  0.18877665530E+04  0.00000000000E+00 0.  1.
<mgrwt>
<rscale>  0 0.35835077E+04</rscale>
<asrwt>0</asrwt>
<pdfrwt beam="1">  1        2 0.23027305E+00 0.35835077E+04</pdfrwt>
<pdfrwt beam="2">  1       -2 0.32997942E+00 0.35835077E+04</pdfrwt>
<totfact> 0.21596730E-01</totfact>
</mgrwt>
</event>
<event>
 6    1  0.1568961E-005  0.3202379E+04  0.7818608E-02  0.8188189E-01
          2   -1    0    0  501    0  0.00000000000E+00  0.00000000000E+00  0.21456920555E+04  0.21456920555E+04  0.00000000000E+00 0.  1.
         -2   -1    0    0    0  501 -0.00000000000E+00 -0.00000000000E+00 -0.11948625760E+04  0.11948625760E+04  0.00000000000E+00 0. -1.
         23    2    1    2    0    0 -0.29548921695E+03 -0.15690098518E+04  0.36834986289E+03  0.16410287281E+04  0.90486865120E+02 0.  0.
         13    1    3    3    0    0 -0.15651040950E+03 -0.59675727507E+03  0.13419239650E+03  0.63136546699E+03  0.00000000000E+00 0.  1.
        -13    1    3    3    0    0 -0.13897880745E+03 -0.97225257671E+03  0.23415746639E+03  0.10096632611E+04  0.00000000000E+00 0. -1.
         22    1    1    2    0    0  0.29548921695E+03  0.15690098518E+04  0.58247961666E+03  0.16995259033E+04  0.00000000000E+00 0. -1.
<mgrwt>
<rscale>  0 0.32023786E+04</rscale>
<asrwt>0</asrwt>
<pdfrwt beam="1">  1        2 0.33010647E+00 0.32023786E+04</pdfrwt>
<pdfrwt beam="2">  1       -2 0.18382501E+00 0.32023786E+04</pdfrwt>
<totfact> 0.79601750E-01</totfact>
</mgrwt>
</event>
<event>
 6    1  0.1568961E-005  0.3526834E+04  0.7818608E-02  0.8107460E-01
          2   -1    0    0  501    0  0.00000000000E+00  0.00000000000E+00  0.30712476568E+04  0.30712476568E+04  0.00000000000E+00 0. -1.
         -2   -1    0    0    0  501 -0.00000000000E+00 -0.00000000000E+00 -0.10125004069E+04  0.10125004069E+04  0.00000000000E+00 0.  1.
         23    2    1    2    0    0 -0.13851016624E+04 -0.10067887167E+04  0.54788146583E+03  0.18001444306E+04  0.90640692656E+02 0.  0.
         11    1    3    3    0    0 -0.60592128057E+03 -0.47294223307E+03  0.28430620477E+03  0.81953948785E+03  0.00000000000E+00 0.  1.
        -11    1    3    3    0    0 -0.77918038183E+03 -0.53384648368E+03  0.26357526106E+03  0.98060494279E+03  0.00000000000E+00 0. -1.
         22    1    1    2    0    0  0.13851016624E+04  0.10067887167E+04  0.15108657841E+04  0.22836036331E+04  0.00000000000E+00 0. -1.
<mgrwt>
<rscale>  0 0.35268340E+04</rscale>
<asrwt>0</asrwt>
<pdfrwt beam="1">  1        2 0.47249964E+00 0.35268340E+04</pdfrwt>
<pdfrwt beam="2">  1       -2 0.15576929E+00 0.35268340E+04</pdfrwt>
<totfact> 0.34836240E-01</totfact>
</mgrwt>
</event>
<event>
 6    1  0.1568961E-005  0.6928664E+04  0.7818608E-02  0.7584837E-01
         -2   -1    0    0    0  501 -0.00000000000E+00  0.00000000000E+00  0.41748513698E+04  0.41748513698E+04  0.00000000000E+00 0.  1.
          2   -1    0    0  501    0  0.00000000000E+00 -0.00000000000E+00 -0.28747360920E+04  0.28747360920E+04  0.00000000000E+00 0. -1.
         23    2    1    2    0    0  0.11636353862E+04 -0.16236017166E+04  0.35292715838E+04  0.40563838799E+04  0.91446284496E+02 0.  0.
         11    1    3    3    0    0  0.12894497005E+03 -0.15878217942E+03  0.41412832334E+03  0.46188835663E+03  0.00000000000E+00 0. -1.
        -11    1    3    3    0    0  0.10346904161E+04 -0.14648195372E+04  0.31151432605E+04  0.35944955233E+04  0.00000000000E+00 0.  1.
         22    1    1    2    0    0 -0.11636353862E+04  0.16236017166E+04 -0.22291563060E+04  0.29932035819E+04  0.00000000000E+00 0. -1.
<mgrwt>
<rscale>  0 0.69286639E+04</rscale>
<asrwt>0</asrwt>
<pdfrwt beam="1">  1        2 0.44226709E+00 0.69286639E+04</pdfrwt>
<pdfrwt beam="2">  1       -2 0.64228483E+00 0.69286639E+04</pdfrwt>
<totfact> 0.47941907E-04</totfact>
</mgrwt>
</event>
<event>
 6    1  0.1568961E-005  0.3467640E+04  0.7818608E-02  0.8121502E-01
          2   -1    0    0  501    0  0.00000000000E+00  0.00000000000E+00  0.19848138767E+04  0.19848138767E+04  0.00000000000E+00 0. -1.
         -2   -1    0    0    0  501 -0.00000000000E+00 -0.00000000000E+00 -0.15145661711E+04  0.15145661711E+04  0.00000000000E+00 0.  1.
         23    2    1    2    0    0  0.12611466693E+04  0.51552081133E+03  0.13154759662E+04  0.18960511853E+04  0.90996984677E+02 0.  0.
         13    1    3    3    0    0  0.26970310277E+03  0.12606542971E+03  0.24061960725E+03  0.38279243933E+03  0.00000000000E+00 0. -1.
        -13    1    3    3    0    0  0.99144356655E+03  0.38945538162E+03  0.10748563590E+04  0.15132587460E+04  0.00000000000E+00 0.  1.
         22    1    1    2    0    0 -0.12611466693E+04 -0.51552081133E+03 -0.84522826064E+03  0.16033288624E+04  0.00000000000E+00 0.  1.
<mgrwt>
<rscale>  0 0.34676401E+04</rscale>
<asrwt>0</asrwt>
<pdfrwt beam="1">  1        2 0.30535598E+00 0.34676401E+04</pdfrwt>
<pdfrwt beam="2">  1       -2 0.23301018E+00 0.34676401E+04</pdfrwt>
<totfact> 0.45955749E-01</totfact>
</mgrwt>
</event>
<event>
 6    1  0.1568961E-005  0.2002342E+04  0.7818608E-02  0.8605526E-01
         -1   -1    0    0    0  501 -0.00000000000E+00  0.00000000000E+00  0.66605553283E+03  0.66605553283E+03  0.00000000000E+00 0.  1.
          1   -1    0    0  501    0  0.00000000000E+00 -0.00000000000E+00 -0.15048951222E+04  0.15048951222E+04  0.00000000000E+00 0. -1.
         23    2    1    2    0    0 -0.72004036226E+03  0.37215333591E+03  0.21252288436E+03  0.84342691516E+03  0.96160054763E+02 0.  0.
         13    1    3    3    0    0 -0.22605087395E+03  0.16489917947E+03  0.89588311614E+02  0.29379721337E+03  0.00000000000E+00 0.  1.
        -13    1    3    3    0    0 -0.49398948831E+03  0.20725415644E+03  0.12293457275E+03  0.54962970180E+03  0.00000000000E+00 0. -1.
         22    1    1    2    0    0  0.72004036226E+03 -0.37215333591E+03 -0.10513624737E+04  0.13275237399E+04  0.00000000000E+00 0. -1.
<mgrwt>
<rscale>  0 0.20023424E+04</rscale>
<asrwt>0</asrwt>
<pdfrwt beam="1">  1        1 0.23152233E+00 0.20023424E+04</pdfrwt>
<pdfrwt beam="2">  1       -1 0.10247008E+00 0.20023424E+04</pdfrwt>
<totfact> 0.54237430E+00</totfact>
</mgrwt>
</event>
<event>
 6    1  0.1568961E-005  0.3732466E+04  0.7818608E-02  0.8060805E-01
         -2   -1    0    0    0  501 -0.00000000000E+00  0.00000000000E+00  0.25455502980E+04  0.25455502980E+04  0.00000000000E+00 0.  1.
          2   -1    0    0  501    0  0.00000000000E+00 -0.00000000000E+00 -0.13682016569E+04  0.13682016569E+04  0.00000000000E+00 0. -1.
         23    2    1    2    0    0  0.14004092318E+03 -0.98946085273E+03  0.22402850481E+04  0.24548215095E+04  0.92883299555E+02 0.  0.
         11    1    3    3    0    0  0.72761003002E+02 -0.65735371664E+03  0.13831823452E+04  0.15331671378E+04  0.00000000000E+00 0. -1.
        -11    1    3    3    0    0  0.67279920176E+02 -0.33210713609E+03  0.85710270288E+03  0.92165437165E+03  0.00000000000E+00 0.  1.
         22    1    1    2    0    0 -0.14004092318E+03  0.98946085273E+03 -0.10629364071E+04  0.14589304455E+04  0.00000000000E+00 0. -1.
<mgrwt>
<rscale>  0 0.37324663E+04</rscale>
<asrwt>0</asrwt>
<pdfrwt beam="1">  1        2 0.21049256E+00 0.37324663E+04</pdfrwt>
<pdfrwt beam="2">  1       -2 0.39162312E+00 0.37324663E+04</pdfrwt>
<totfact> 0.10236216E-01</totfact>
</mgrwt>
</event>
<event>
 6    1  0.1568961E-005  0.8457927E+03  0.7818608E-02  0.9496001E-01
         -2   -1    0    0    0  501 -0.00000000000E+00  0.00000000000E+00  0.13248550714E+03  0.13248550714E+03  0.00000000000E+00 0.  1.
          2   -1    0    0  501    0  0.00000000000E+00 -0.00000000000E+00 -0.13498933411E+04  0.13498933411E+04  0.00000000000E+00 0. -1.
         23    2    1    2    0    0 -0.22837523909E+03  0.12369069056E+03 -0.11896379723E+04  0.12211781553E+04  0.92644185527E+02 0.  0.
         11    1    3    3    0    0 -0.12525849074E+03  0.19986563018E+02 -0.63778336839E+03  0.65027438609E+03  0.00000000000E+00 0.  1.
        -11    1    3    3    0    0 -0.10311674835E+03  0.10370412755E+03 -0.55185460388E+03  0.57090376920E+03  0.00000000000E+00 0. -1.
         22    1    1    2    0    0  0.22837523909E+03 -0.12369069056E+03 -0.27769861651E+02  0.26120069292E+03  0.00000000000E+00 0.  1.
<mgrwt>
<rscale>  0 0.84579266E+03</rscale>
<asrwt>0</asrwt>
<pdfrwt beam="1">  1        2 0.20767592E+00 0.84579266E+03</pdfrwt>
<pdfrwt beam="2">  1       -2 0.20382383E-01 0.84579266E+03</pdfrwt>
<totfact> 0.32092844E+02</totfact>
</mgrwt>
</event>
<event>
 6    1  0.1568961E-005  0.4694293E+04  0.7818608E-02  0.7877477E-01
         -2   -1    0    0    0  501 -0.00000000000E+00  0.00000000000E+00  0.19508716684E+04  0.19508716684E+04  0.00000000000E+00 0.  1.
          2   -1    0    0  501    0  0.00000000000E+00 -0.00000000000E+00 -0.28239159347E+04  0.28239159347E+04  0.00000000000E+00 0. -1.
         23    2    1    2    0    0 -0.91400971879E+03 -0.20775631481E+04  0.16812978430E+03  0.22776440741E+04  0.87820861358E+02 0.  0.
         11    1    3    3    0    0 -0.39907060427E+03 -0.99347038158E+03  0.52515013598E+02  0.10719135100E+04  0.00000000000E+00 0. -1.
        -11    1    3    3    0    0 -0.51493911452E+03 -0.10840927665E+04  0.11561477070E+03  0.12057305641E+04  0.00000000000E+00 0.  1.
         22    1    1    2    0    0  0.91400971879E+03  0.20775631481E+04 -0.10411740506E+04  0.24971435289E+04  0.00000000000E+00 0.  1.
<mgrwt>
<rscale>  0 0.46942934E+04</rscale>
<asrwt>0</asrwt>
<pdfrwt beam="1">  1        2 0.43444860E+00 0.46942934E+04</pdfrwt>
<pdfrwt beam="2">  1       -2 0.30013410E+00 0.46942934E+04</pdfrwt>
<totfact> 0.52908592E-02</totfact>
</mgrwt>
</event>
<event>
 6    1  0.1568961E-005  0.3227032E+04  0.7818608E-02  0.8181714E-01
         -2   -1    0    0    0  501 -0.00000000000E+00  0.00000000000E+00  0.21026955260E+04  0.21026955260E+04  0.00000000000E+00 0. -1.
          2   -1    0    0  501    0  0.00000000000E+00 -0.00000000000E+00 -0.12381410733E+04  0.12381410733E+04  0.00000000000E+00 0.  1.
         23    2    1    2    0    0 -0.16026431602E+04  0.10506221187E+03  0.28276403575E+03  0.16326260570E+04  0.77518868111E+02 0.  0.
         13    1    3    3    0    0 -0.56519644274E+03  0.37435682441E+02  0.13743161152E+03  0.58286867908E+03  0.00000000000E+00 0.  1.
        -13    1    3    3    0    0 -0.10374467174E+04  0.67626529425E+02  0.14533242422E+03  0.10497573779E+04  0.00000000000E+00 0. -1.
         22    1    1    2    0    0  0.16026431602E+04 -0.10506221187E+03  0.58179041695E+03  0.17082105422E+04  0.00000000000E+00 0. -1.
<mgrwt>
<rscale>  0 0.32270319E+04</rscale>
<asrwt>0</asrwt>
<pdfrwt beam="1">  1        2 0.19048324E+00 0.32270319E+04</pdfrwt>
<pdfrwt beam="2">  1       -2 0.32349162E+00 0.32270319E+04</pdfrwt>
<totfact> 0.34399967E-01</totfact>
</mgrwt>
</event>
<event>
 6    1  0.1568961E-005  0.2300006E+04  0.7818608E-02  0.8477919E-01
         -1   -1    0    0    0  501 -0.00000000000E+00  0.00000000000E+00  0.89105351356E+03  0.89105351356E+03  0.00000000000E+00 0.  1.
          1   -1    0    0  501    0  0.00000000000E+00 -0.00000000000E+00 -0.14842060677E+04  0.14842060677E+04  0.00000000000E+00 0. -1.
         23    2    1    2    0    0 -0.10066371153E+04  0.24480458738E+03  0.21452763256E+03  0.10616405908E+04  0.88380263549E+02 0.  0.
         11    1    3    3    0    0 -0.53703821080E+03  0.93353654518E+02  0.86799506587E+02  0.55195932732E+03  0.00000000000E+00 0.  1.
        -11    1    3    3    0    0 -0.46959890454E+03  0.15145093286E+03  0.12772812597E+03  0.50968126351E+03  0.00000000000E+00 0. -1.
         22    1    1    2    0    0  0.10066371153E+04 -0.24480458738E+03 -0.80768018669E+03  0.13136189904E+04  0.00000000000E+00 0. -1.
<mgrwt>
<rscale>  0 0.23000061E+04</rscale>
<asrwt>0</asrwt>
<pdfrwt beam="1">  1        1 0.22833939E+00 0.23000061E+04</pdfrwt>
<pdfrwt beam="2">  1       -1 0.13708516E+00 0.23000061E+04</pdfrwt>
<totfact> 0.26852813E+00</totfact>
</mgrwt>
</event>
<event>
 6    1  0.1568961E-005  0.1461469E+04  0.7818608E-02  0.8910488E-01
         -3   -1    0    0    0  501 -0.00000000000E+00  0.00000000000E+00  0.35844253858E+03  0.35844253858E+03  0.00000000000E+00 0.  1.
          3   -1    0    0  501    0  0.00000000000E+00 -0.00000000000E+00 -0.14897019938E+04  0.14897019938E+04  0.00000000000E+00 0. -1.
         23    2    1    2    0    0 -0.54812471520E+03 -0.15531639610E+02 -0.11731670712E+04  0.12982007321E+04  0.91226249214E+02 0.  0.
         13    1    3    3    0    0 -0.33812055216E+03 -0.38594583380E+02 -0.80007303667E+03  0.86944345053E+03  0.00000000000E+00 0.  1.
        -13    1    3    3    0    0 -0.21000416304E+03  0.23062943770E+02 -0.37309403452E+03  0.42875728153E+03  0.00000000000E+00 0. -1.
         22    1    1    2    0    0  0.54812471520E+03  0.15531639610E+02  0.41907615966E+02  0.54994380033E+03  0.00000000000E+00 0.  1.
<mgrwt>
<rscale>  0 0.14614685E+04</rscale>
<asrwt>0</asrwt>
<pdfrwt beam="1">  1        3 0.22918492E+00 0.14614685E+04</pdfrwt>
<pdfrwt beam="2">  1       -3 0.55145006E-01 0.14614685E+04</pdfrwt>
<totfact> 0.80523275E-01</totfact>
</mgrwt>
</event>
<event>
 6    1  0.1568961E-005  0.1839269E+04  0.7818608E-02  0.8685691E-01
         -1   -1    0    0    0  501 -0.00000000000E+00  0.00000000000E+00  0.36388841910E+03  0.36388841910E+03  0.00000000000E+00 0.  1.
          1   -1    0    0  501    0  0.00000000000E+00 -0.00000000000E+00 -0.23241404076E+04  0.23241404076E+04  0.00000000000E+00 0. -1.
         23    2    1    2    0    0 -0.71875095183E+02  0.84281436625E+03 -0.15015511257E+04  0.17257873982E+04  0.90466984983E+02 0.  0.
         11    1    3    3    0    0  0.15179539289E+02  0.12158924385E+03 -0.25730372287E+03  0.28499047078E+03  0.00000000000E+00 0.  1.
        -11    1    3    3    0    0 -0.87054634473E+02  0.72122512239E+03 -0.12442474028E+04  0.14407969274E+04  0.00000000000E+00 0. -1.
         22    1    1    2    0    0  0.71875095183E+02 -0.84281436625E+03 -0.45870086284E+03  0.96224142856E+03  0.00000000000E+00 0.  1.
<mgrwt>
<rscale>  0 0.18392692E+04</rscale>
<asrwt>0</asrwt>
<pdfrwt beam="1">  1        1 0.35756007E+00 0.18392692E+04</pdfrwt>
<pdfrwt beam="2">  1       -1 0.55982832E-01 0.18392692E+04</pdfrwt>
<totfact> 0.54412366E+00</totfact>
</mgrwt>
</event>
<event>
 6    1  0.1568961E-005  0.1830565E+04  0.7818608E-02  0.8690212E-01
          2   -1    0    0  501    0  0.00000000000E+00  0.00000000000E+00  0.12975141083E+04  0.12975141083E+04  0.00000000000E+00 0. -1.
         -2   -1    0    0    0  501 -0.00000000000E+00 -0.00000000000E+00 -0.64565126981E+03  0.64565126981E+03  0.00000000000E+00 0.  1.
         23    2    1    2    0    0  0.23468899678E+03 -0.31758603666E+03  0.12006639581E+04  0.12670570401E+04  0.88880744027E+02 0.  0.
         11    1    3    3    0    0  0.10774836280E+03 -0.78095487521E+02  0.36241969907E+03  0.38607855824E+03  0.00000000000E+00 0. -1.
        -11    1    3    3    0    0  0.12694063398E+03 -0.23949054913E+03  0.83824425901E+03  0.88097848183E+03  0.00000000000E+00 0.  1.
         22    1    1    2    0    0 -0.23468899678E+03  0.31758603666E+03 -0.54880111960E+03  0.67610833803E+03  0.00000000000E+00 0.  1.
<mgrwt>
<rscale>  0 0.18305645E+04</rscale>
<asrwt>0</asrwt>
<pdfrwt beam="1">  1        2 0.19961755E+00 0.18305645E+04</pdfrwt>
<pdfrwt beam="2">  1       -2 0.99330965E-01 0.18305645E+04</pdfrwt>
<totfact> 0.13111789E+01</totfact>
</mgrwt>
</event>
<event>
 6    1  0.1568961E-005  0.3800976E+04  0.7818608E-02  0.8045945E-01
          1   -1    0    0  501    0  0.00000000000E+00  0.00000000000E+00  0.41075092864E+04  0.41075092864E+04  0.00000000000E+00 0. -1.
         -1   -1    0    0    0  501 -0.00000000000E+00 -0.00000000000E+00 -0.87932971419E+03  0.87932971419E+03  0.00000000000E+00 0.  1.
         23    2    1    2    0    0 -0.15058419969E+03 -0.59700889153E+03  0.39724314801E+04  0.40209165813E+04  0.91994954855E+02 0.  0.
         13    1    3    3    0    0 -0.83048721963E+02 -0.28377968360E+03  0.21961163308E+04  0.22159320697E+04  0.00000000000E+00 0. -1.
        -13    1    3    3    0    0 -0.67535477726E+02 -0.31322920794E+03  0.17763151493E+04  0.18049845116E+04  0.00000000000E+00 0.  1.
         22    1    1    2    0    0  0.15058419969E+03  0.59700889153E+03 -0.74425190789E+03  0.96592241933E+03  0.00000000000E+00 0.  1.
<mgrwt>
<rscale>  0 0.38009762E+04</rscale>
<asrwt>0</asrwt>
<pdfrwt beam="1">  1        1 0.63192450E+00 0.38009762E+04</pdfrwt>
<pdfrwt beam="2">  1       -1 0.13528150E+00 0.38009762E+04</pdfrwt>
<totfact> 0.27940647E-02</totfact>
</mgrwt>
</event>
<event>
 6    1  0.1568961E-005  0.1129944E+04  0.7818608E-02  0.9176488E-01
         -2   -1    0    0    0  501 -0.00000000000E+00  0.00000000000E+00  0.26119577144E+03  0.26119577144E+03  0.00000000000E+00 0.  1.
          2   -1    0    0  501    0  0.00000000000E+00 -0.00000000000E+00 -0.12220461906E+04  0.12220461906E+04  0.00000000000E+00 0. -1.
         23    2    1    2    0    0 -0.51159824695E+03 -0.23088821366E+03 -0.49629687588E+03  0.75464596419E+03  0.90209804208E+02 0.  0.
         11    1    3    3    0    0 -0.28651699566E+03 -0.14146130686E+03 -0.33897217201E+03  0.46583840926E+03  0.00000000000E+00 0. -1.
        -11    1    3    3    0    0 -0.22508125128E+03 -0.89426906796E+02 -0.15732470387E+03  0.28880755494E+03  0.00000000000E+00 0.  1.
         22    1    1    2    0    0  0.51159824695E+03  0.23088821366E+03 -0.46455354323E+03  0.72859599780E+03  0.00000000000E+00 0.  1.
<mgrwt>
<rscale>  0 0.11299439E+04</rscale>
<asrwt>0</asrwt>
<pdfrwt beam="1">  1        2 0.18800711E+00 0.11299439E+04</pdfrwt>
<pdfrwt beam="2">  1       -2 0.40183965E-01 0.11299439E+04</pdfrwt>
<totfact> 0.10666592E+02</totfact>
</mgrwt>
</event>
<event>
 6    1  0.1568961E-005  0.2407769E+04  0.7818608E-02  0.8436601E-01
          2   -1    0    0  501    0  0.00000000000E+00  0.00000000000E+00  0.11456989684E+04  0.11456989684E+04  0.00000000000E+00 0.  1.
         -2   -1    0    0    0  501 -0.00000000000E+00 -0.00000000000E+00 -0.12650248456E+04  0.12650248456E+04  0.00000000000E+00 0. -1.
         23    2    1    2    0    0 -0.80781265834E+03  0.38668249859E+03  0.74319604451E+03  0.11673297851E+04  0.90740403515E+02 0.  0.
         11    1    3    3    0    0 -0.15527754380E+03  0.10503990403E+03  0.18761216637E+03  0.26522221253E+03  0.00000000000E+00 0. -1.
        -11    1    3    3    0    0 -0.65253511455E+03  0.28164259456E+03  0.55558387813E+03  0.90210757254E+03  0.00000000000E+00 0.  1.
         22    1    1    2    0    0  0.80781265834E+03 -0.38668249859E+03 -0.86252192172E+03  0.12433940289E+04  0.00000000000E+00 0. -1.
<mgrwt>
<rscale>  0 0.24077688E+04</rscale>
<asrwt>0</asrwt>
<pdfrwt beam="1">  1        2 0.17626138E+00 0.24077688E+04</pdfrwt>
<pdfrwt beam="2">  1       -2 0.19461921E+00 0.24077688E+04</pdfrwt>
<totfact> 0.26495208E+00</totfact>
</mgrwt>
</event>
<event>
 6    1  0.1568961E-005  0.1267337E+04  0.7818608E-02  0.9055876E-01
          2   -1    0    0  501    0  0.00000000000E+00  0.00000000000E+00  0.15124140569E+04  0.15124140569E+04  0.00000000000E+00 0.  1.
         -2   -1    0    0    0  501 -0.00000000000E+00 -0.00000000000E+00 -0.26549346865E+03  0.26549346865E+03  0.00000000000E+00 0. -1.
         23    2    1    2    0    0 -0.30980657580E+03  0.11259244392E+03  0.13808429234E+04  0.14221093177E+04  0.83729083423E+02 0.  0.
         11    1    3    3    0    0 -0.10435851045E+03  0.81145096747E+02  0.52335197481E+03  0.53978932462E+03  0.00000000000E+00 0. -1.
        -11    1    3    3    0    0 -0.20544806535E+03  0.31447347168E+02  0.85749094860E+03  0.88231999305E+03  0.00000000000E+00 0.  1.
         22    1    1    2    0    0  0.30980657580E+03 -0.11259244392E+03 -0.13392233521E+03  0.35579820784E+03  0.00000000000E+00 0. -1.
<mgrwt>
<rscale>  0 0.12673375E+04</rscale>
<asrwt>0</asrwt>
<pdfrwt beam="1">  1        2 0.23267908E+00 0.12673375E+04</pdfrwt>
<pdfrwt beam="2">  1       -2 0.40845150E-01 0.12673375E+04</pdfrwt>
<totfact> 0.69618336E+01</totfact>
</mgrwt>
</event>
<event>
 6    1  0.1568961E-005  0.1787315E+04  0.7818608E-02  0.8713074E-01
          1   -1    0    0  501    0  0.00000000000E+00  0.00000000000E+00  0.23785135934E+04  0.23785135934E+04  0.00000000000E+00 0.  1.
         -1   -1    0    0    0  501 -0.00000000000E+00 -0.00000000000E+00 -0.33576605470E+03  0.33576605470E+03  0.00000000000E+00 0. -1.
         23    2    1    2    0    0 -0.86131625829E+03  0.10770596314E+03  0.71784647814E+03  0.11303512749E+04  0.94467810085E+02 0.  0.
         11    1    3    3    0    0 -0.15906951184E+02  0.84889786325E+01  0.33937786367E+02  0.38430029894E+02  0.00000000000E+00 0. -1.
        -11    1    3    3    0    0 -0.84540930710E+03  0.99216984505E+02  0.68390869177E+03  0.10919212450E+04  0.00000000000E+00 0.  1.
         22    1    1    2    0    0  0.86131625829E+03 -0.10770596314E+03  0.13249010606E+04  0.15839283733E+04  0.00000000000E+00 0.  1.
<mgrwt>
<rscale>  0 0.17873154E+04</rscale>
<asrwt>0</asrwt>
<pdfrwt beam="1">  1        1 0.36592516E+00 0.17873154E+04</pdfrwt>
<pdfrwt beam="2">  1       -1 0.51656318E-01 0.17873154E+04</pdfrwt>
<totfact> 0.58607063E+00</totfact>
</mgrwt>
</event>
<event>
 6    1  0.1568961E-005  0.2121783E+04  0.7818608E-02  0.8551708E-01
          1   -1    0    0  501    0  0.00000000000E+00  0.00000000000E+00  0.31434920348E+04  0.31434920348E+04  0.00000000000E+00 0. -1.
         -1   -1    0    0    0  501 -0.00000000000E+00 -0.00000000000E+00 -0.35803833497E+03  0.35803833497E+03  0.00000000000E+00 0.  1.
         23    2    1    2    0    0 -0.10019514869E+04  0.35569727353E+02  0.19576779044E+04  0.22013823955E+04  0.91704340894E+02 0.  0.
         11    1    3    3    0    0 -0.53327596226E+03 -0.13970959763E+02  0.11087644138E+04  0.12304214583E+04  0.00000000000E+00 0. -1.
        -11    1    3    3    0    0 -0.46867552464E+03  0.49540687116E+02  0.84891349058E+03  0.97096093719E+03  0.00000000000E+00 0.  1.
         22    1    1    2    0    0  0.10019514869E+04 -0.35569727353E+02  0.82777579547E+03  0.13001479743E+04  0.00000000000E+00 0.  1.
<mgrwt>
<rscale>  0 0.21217829E+04</rscale>
<asrwt>0</asrwt>
<pdfrwt beam="1">  1        1 0.48361414E+00 0.21217829E+04</pdfrwt>
<pdfrwt beam="2">  1       -1 0.55082823E-01 0.21217829E+04</pdfrwt>
<totfact> 0.14352053E+00</totfact>
</mgrwt>
</event>
<event>
 6    1  0.1568961E-005  0.9100229E+03  0.7818608E-02  0.9413138E-01
          1   -1    0    0  501    0  0.00000000000E+00  0.00000000000E+00  0.11134692836E+04  0.11134692836E+04  0.00000000000E+00 0. -1.
         -1   -1    0    0    0  501 -0.00000000000E+00 -0.00000000000E+00 -0.18593723292E+03  0.18593723292E+03  0.00000000000E+00 0.  1.
         23    2    1    2    0    0  0.36623136424E+03  0.40182811112E+02  0.83744107271E+03  0.92012238191E+03  0.97865095794E+02 0.  0.
         11    1    3    3    0    0  0.14815235993E+03  0.29106279573E+00  0.44970357207E+03  0.47347915393E+03  0.00000000000E+00 0. -1.
        -11    1    3    3    0    0  0.21807900431E+03  0.39891748317E+02  0.38773750064E+03  0.44664322798E+03  0.00000000000E+00 0.  1.
         22    1    1    2    0    0 -0.36623136424E+03 -0.40182811112E+02  0.90090978002E+02  0.37928413463E+03  0.00000000000E+00 0.  1.
<mgrwt>
<rscale>  0 0.91002285E+03</rscale>
<asrwt>0</asrwt>
<pdfrwt beam="1">  1        1 0.17130296E+00 0.91002285E+03</pdfrwt>
<pdfrwt beam="2">  1       -1 0.28605729E-01 0.91002285E+03</pdfrwt>
<totfact> 0.13819090E+02</totfact>
</mgrwt>
</event>
<event>
 6    1  0.1568961E-005  0.2142040E+04  0.7818608E-02  0.8542947E-01
          2   -1    0    0  501    0  0.00000000000E+00  0.00000000000E+00  0.15378363381E+04  0.15378363381E+04  0.00000000000E+00 0. -1.
         -2   -1    0    0    0  501 -0.00000000000E+00 -0.00000000000E+00 -0.74590739299E+03  0.74590739299E+03  0.00000000000E+00 0.  1.
         23    2    1    2    0    0  0.73672294331E+03  0.74787776676E+03  0.60997443467E+03  0.12182911075E+04  0.10041196344E+03 0.  0.
         13    1    3    3    0    0  0.30463956058E+03  0.25418767953E+03  0.26427460228E+03  0.47671553751E+03  0.00000000000E+00 0.  1.
        -13    1    3    3    0    0  0.43208338274E+03  0.49369008722E+03  0.34569983239E+03  0.74157556997E+03  0.00000000000E+00 0. -1.
         22    1    1    2    0    0 -0.73672294331E+03 -0.74787776676E+03  0.18195451039E+03  0.10654526236E+04  0.00000000000E+00 0.  1.
<mgrwt>
<rscale>  0 0.21420397E+04</rscale>
<asrwt>0</asrwt>
<pdfrwt beam="1">  1        2 0.23659021E+00 0.21420397E+04</pdfrwt>
<pdfrwt beam="2">  1       -2 0.11475498E+00 0.21420397E+04</pdfrwt>
<totfact> 0.65795679E+00</totfact>
</mgrwt>
</event>
<event>
 6    1  0.1568961E-005  0.8460859E+03  0.7818608E-02  0.9495605E-01
          1   -1    0    0  501    0  0.00000000000E+00  0.00000000000E+00  0.91783181559E+03  0.91783181559E+03  0.00000000000E+00 0. -1.
         -1   -1    0    0    0  501 -0.00000000000E+00 -0.00000000000E+00 -0.19498706790E+03  0.19498706790E+03  0.00000000000E+00 0.  1.
         23    2    1    2    0    0  0.16984652810E+03  0.35884969737E+03  0.19134817456E+03  0.44941134988E+03  0.87951629239E+02 0.  0.
         13    1    3    3    0    0  0.82600068244E+02  0.19609470324E+03  0.14953884481E+03  0.26007262451E+03  0.00000000000E+00 0. -1.
        -13    1    3    3    0    0  0.87246459852E+02  0.16275499413E+03  0.41809329750E+02  0.18933872537E+03  0.00000000000E+00 0.  1.
         22    1    1    2    0    0 -0.16984652810E+03 -0.35884969737E+03  0.53149657313E+03  0.66340753361E+03  0.00000000000E+00 0.  1.
<mgrwt>
<rscale>  0 0.84608589E+03</rscale>
<asrwt>0</asrwt>
<pdfrwt beam="1">  1        1 0.14120489E+00 0.84608589E+03</pdfrwt>
<pdfrwt beam="2">  1       -1 0.29998011E-01 0.84608589E+03</pdfrwt>
<totfact> 0.18104974E+02</totfact>
</mgrwt>
</event>
<event>
 6    1  0.1568961E-005  0.2294833E+04  0.7818608E-02  0.8479961E-01
          1   -1    0    0  501    0  0.00000000000E+00  0.00000000000E+00  0.18530746762E+04  0.18530746762E+04  0.00000000000E+00 0. -1.
         -1   -1    0    0    0  501 -0.00000000000E+00 -0.00000000000E+00 -0.71047561879E+03  0.71047561879E+03  0.00000000000E+00 0.  1.
         23    2    1    2    0    0 -0.26788023828E+03  0.80413543088E+03 -0.28915759454E+03  0.89972316345E+03  0.86579692217E+02 0.  0.
         11    1    3    3    0    0 -0.19338469123E+03  0.65164026245E+03 -0.20304409403E+03  0.70940790422E+03  0.00000000000E+00 0. -1.
        -11    1    3    3    0    0 -0.74495547043E+02  0.15249516843E+03 -0.86113500514E+02  0.19031525923E+03  0.00000000000E+00 0.  1.
         22    1    1    2    0    0  0.26788023828E+03 -0.80413543088E+03  0.14317566519E+04  0.16638271315E+04  0.00000000000E+00 0. -1.
<mgrwt>
<rscale>  0 0.22948328E+04</rscale>
<asrwt>0</asrwt>
<pdfrwt beam="1">  1        1 0.28508841E+00 0.22948328E+04</pdfrwt>
<pdfrwt beam="2">  1       -1 0.10930394E+00 0.22948328E+04</pdfrwt>
<totfact> 0.26263116E+00</totfact>
</mgrwt>
</event>
<event>
 6    1  0.1568961E-005  0.1427779E+04  0.7818608E-02  0.8933953E-01
         -2   -1    0    0    0  501 -0.00000000000E+00  0.00000000000E+00  0.55582753042E+03  0.55582753042E+03  0.00000000000E+00 0.  1.
          2   -1    0    0  501    0  0.00000000000E+00 -0.00000000000E+00 -0.91689930398E+03  0.91689930398E+03  0.00000000000E+00 0. -1.
         23    2    1    2    0    0 -0.67283104921E+02 -0.20009541666E+03  0.51897882986E+03  0.56771067071E+03  0.91603426864E+02 0.  0.
         11    1    3    3    0    0 -0.56078432405E+02 -0.10909819874E+03  0.18969781555E+03  0.22590367145E+03  0.00000000000E+00 0.  1.
        -11    1    3    3    0    0 -0.11204672516E+02 -0.90997217918E+02  0.32928101431E+03  0.34180699926E+03  0.00000000000E+00 0. -1.
         22    1    1    2    0    0  0.67283104921E+02  0.20009541666E+03 -0.88005060342E+03  0.90501616370E+03  0.00000000000E+00 0. -1.
<mgrwt>
<rscale>  0 0.14277785E+04</rscale>
<asrwt>0</asrwt>
<pdfrwt beam="1">  1        2 0.14106143E+00 0.14277785E+04</pdfrwt>
<pdfrwt beam="2">  1       -2 0.85511928E-01 0.14277785E+04</pdfrwt>
<totfact> 0.32983862E+01</totfact>
</mgrwt>
</event>
<event>
 6    1  0.1568961E-005  0.3429442E+04  0.7818608E-02  0.8130718E-01
         -2   -1    0    0    0  501 -0.00000000000E+00  0.00000000000E+00  0.10823852451E+04  0.10823852451E+04  0.00000000000E+00 0.  1.
          2   -1    0    0  501    0  0.00000000000E+00 -0.00000000000E+00 -0.27164709072E+04  0.27164709072E+04  0.00000000000E+00 0. -1.
         23    2    1    2    0    0  0.57434501459E+03 -0.41611257481E+03  0.91026390724E+03  0.11575048689E+04  0.90638127094E+02 0.  0.
         11    1    3    3    0    0  0.76829362868E+02 -0.92135523715E+02  0.18067414000E+03  0.21687519589E+03  0.00000000000E+00 0. -1.
        -11    1    3    3    0    0  0.49751565172E+03 -0.32397705109E+03  0.72958976724E+03  0.94062967304E+03  0.00000000000E+00 0.  1.
         22    1    1    2    0    0 -0.57434501459E+03  0.41611257481E+03 -0.25443495693E+04  0.26413512833E+04  0.00000000000E+00 0. -1.
<mgrwt>
<rscale>  0 0.34294420E+04</rscale>
<asrwt>0</asrwt>
<pdfrwt beam="1">  1        2 0.41791859E+00 0.34294420E+04</pdfrwt>
<pdfrwt beam="2">  1       -2 0.16652081E+00 0.34294420E+04</pdfrwt>
<totfact> 0.48413632E-01</totfact>
</mgrwt>
</event>
<event>
 6    1  0.1568961E-005  0.2354146E+04  0.7818608E-02  0.8456873E-01
          2   -1    0    0  501    0  0.00000000000E+00  0.00000000000E+00  0.23532547139E+04  0.23532547139E+04  0.00000000000E+00 0. -1.
         -2   -1    0    0    0  501 -0.00000000000E+00 -0.00000000000E+00 -0.58875960745E+03  0.58875960745E+03  0.00000000000E+00 0.  1.
         23    2    1    2    0    0  0.62055179911E+03 -0.88554354017E+03  0.14590053588E+04  0.18183614022E+04  0.92030728254E+02 0.  0.
         11    1    3    3    0    0  0.21624927525E+03 -0.23750581160E+03  0.44866819743E+03  0.55179335895E+03  0.00000000000E+00 0.  1.
        -11    1    3    3    0    0  0.40430252386E+03 -0.64803772857E+03  0.10103371614E+04  0.12665680432E+04  0.00000000000E+00 0. -1.
         22    1    1    2    0    0 -0.62055179911E+03  0.88554354017E+03  0.30548974767E+03  0.11236529192E+04  0.00000000000E+00 0.  1.
<mgrwt>
<rscale>  0 0.23541464E+04</rscale>
<asrwt>0</asrwt>
<pdfrwt beam="1">  1        2 0.36203918E+00 0.23541464E+04</pdfrwt>
<pdfrwt beam="2">  1       -2 0.90578403E-01 0.23541464E+04</pdfrwt>
<totfact> 0.39732153E+00</totfact>
</mgrwt>
</event>
<event>
 6    1  0.1568961E-005  0.4300217E+03  0.7818608E-02  0.1033853E+00
          1   -1    0    0  501    0  0.00000000000E+00  0.00000000000E+00  0.32601337804E+03  0.32601337804E+03  0.00000000000E+00 0.  1.
         -1   -1    0    0    0  501 -0.00000000000E+00 -0.00000000000E+00 -0.14180295458E+03  0.14180295458E+03  0.00000000000E+00 0. -1.
         23    2    1    2    0    0 -0.12758712366E+03 -0.14819826467E+03  0.16461394345E+03  0.27128332826E+03  0.90860849866E+02 0.  0.
         13    1    3    3    0    0 -0.92538528777E+02 -0.74598554819E+02  0.14489952741E+03  0.18741450513E+03  0.00000000000E+00 0. -1.
        -13    1    3    3    0    0 -0.35048594885E+02 -0.73599709848E+02  0.19714416036E+02  0.83868823127E+02  0.00000000000E+00 0.  1.
         22    1    1    2    0    0  0.12758712366E+03  0.14819826467E+03  0.19596480016E+02  0.19653300436E+03  0.00000000000E+00 0. -1.
<mgrwt>
<rscale>  0 0.43002167E+03</rscale>
<asrwt>0</asrwt>
<pdfrwt beam="1">  1        1 0.50155904E-01 0.43002167E+03</pdfrwt>
<pdfrwt beam="2">  1       -1 0.21815839E-01 0.43002167E+03</pdfrwt>
<totfact> 0.13836200E+03</totfact>
</mgrwt>
</event>
<event>
 6    1  0.1568961E-005  0.2079746E+04  0.7818608E-02  0.8570218E-01
         -1   -1    0    0    0  501 -0.00000000000E+00  0.00000000000E+00  0.68228086180E+03  0.68228086180E+03  0.00000000000E+00 0.  1.
          1   -1    0    0  501    0  0.00000000000E+00 -0.00000000000E+00 -0.15848832163E+04  0.15848832163E+04  0.00000000000E+00 0. -1.
         23    2    1    2    0    0 -0.40200237106E+03 -0.82284865026E+03 -0.98456089771E+03  0.13477060799E+04  0.90915944952E+02 0.  0.
         13    1    3    3    0    0 -0.20593218948E+03 -0.38746257567E+03 -0.40885969781E+03  0.59975125402E+03  0.00000000000E+00 0.  1.
        -13    1    3    3    0    0 -0.19607018158E+03 -0.43538607459E+03 -0.57570119991E+03  0.74795482593E+03  0.00000000000E+00 0. -1.
         22    1    1    2    0    0  0.40200237106E+03  0.82284865026E+03  0.81958543209E+02  0.91945799816E+03  0.00000000000E+00 0.  1.
<mgrwt>
<rscale>  0 0.20797456E+04</rscale>
<asrwt>0</asrwt>
<pdfrwt beam="1">  1        1 0.24382819E+00 0.20797456E+04</pdfrwt>
<pdfrwt beam="2">  1       -1 0.10496629E+00 0.20797456E+04</pdfrwt>
<totfact> 0.44859032E+00</totfact>
</mgrwt>
</event>
<event>
 6    1  0.1568961E-005  0.3275532E+04  0.7818608E-02  0.8169149E-01
          1   -1    0    0  501    0  0.00000000000E+00  0.00000000000E+00  0.23325005503E+04  0.23325005503E+04  0.00000000000E+00 0. -1.
         -1   -1    0    0    0  501 -0.00000000000E+00 -0.00000000000E+00 -0.11499576170E+04  0.11499576170E+04  0.00000000000E+00 0.  1.
         23    2    1    2    0    0  0.10688100031E+04  0.68262334922E+03 -0.50604160718E+03  0.13706704862E+04  0.11970803571E+03 0.  0.
         11    1    3    3    0    0  0.70770902705E+03  0.50832703584E+03 -0.31520949973E+03  0.92660966488E+03  0.00000000000E+00 0.  1.
        -11    1    3    3    0    0  0.36110097604E+03  0.17429631338E+03 -0.19083210745E+03  0.44406082127E+03  0.00000000000E+00 0. -1.
         22    1    1    2    0    0 -0.10688100031E+04 -0.68262334922E+03  0.16885845406E+04  0.21117876811E+04  0.00000000000E+00 0. -1.
<mgrwt>
<rscale>  0 0.32755316E+04</rscale>
<asrwt>0</asrwt>
<pdfrwt beam="1">  1        1 0.35884624E+00 0.32755316E+04</pdfrwt>
<pdfrwt beam="2">  1       -1 0.17691656E+00 0.32755316E+04</pdfrwt>
<totfact> 0.32191900E-01</totfact>
</mgrwt>
</event>
<event>
 6    1  0.1568961E-005  0.1766279E+04  0.7818608E-02  0.8724440E-01
         -1   -1    0    0    0  501 -0.00000000000E+00  0.00000000000E+00  0.14109412499E+04  0.14109412499E+04  0.00000000000E+00 0. -1.
          1   -1    0    0  501    0  0.00000000000E+00 -0.00000000000E+00 -0.55277658418E+03  0.55277658418E+03  0.00000000000E+00 0.  1.
         23    2    1    2    0    0 -0.28487501395E+02 -0.16134514164E+03  0.13923776758E+04  0.14049447740E+04  0.91161578902E+02 0.  0.
         11    1    3    3    0    0 -0.80734763776E+00 -0.25827343923E+02  0.60210255499E+03  0.60265677647E+03  0.00000000000E+00 0. -1.
        -11    1    3    3    0    0 -0.27680153757E+02 -0.13551779771E+03  0.79027512083E+03  0.80228799755E+03  0.00000000000E+00 0.  1.
         22    1    1    2    0    0  0.28487501395E+02  0.16134514164E+03 -0.53421301011E+03  0.55877306004E+03  0.00000000000E+00 0.  1.
<mgrwt>
<rscale>  0 0.17662789E+04</rscale>
<asrwt>0</asrwt>
<pdfrwt beam="1">  1        1 0.85042552E-01 0.17662789E+04</pdfrwt>
<pdfrwt beam="2">  1       -1 0.21706788E+00 0.17662789E+04</pdfrwt>
<totfact> 0.41965351E+00</totfact>
</mgrwt>
</event>
<event>
 6    1  0.1568961E-005  0.3235320E+04  0.7818608E-02  0.8179551E-01
          2   -1    0    0  501    0  0.00000000000E+00  0.00000000000E+00  0.29526926828E+04  0.29526926828E+04  0.00000000000E+00 0. -1.
         -2   -1    0    0    0  501 -0.00000000000E+00 -0.00000000000E+00 -0.88625001847E+03  0.88625001847E+03  0.00000000000E+00 0.  1.
         23    2    1    2    0    0  0.15333551095E+03 -0.15775898400E+04  0.65897729001E+03  0.17192115244E+04  0.95580931786E+02 0.  0.
         13    1    3    3    0    0  0.96274129910E+02 -0.94026280444E+03  0.44322844546E+03  0.10439417150E+04  0.00000000000E+00 0. -1.
        -13    1    3    3    0    0  0.57061381039E+02 -0.63732703560E+03  0.21574884456E+03  0.67526980937E+03  0.00000000000E+00 0.  1.
         22    1    1    2    0    0 -0.15333551095E+03  0.15775898400E+04  0.14074653743E+04  0.21197311769E+04  0.00000000000E+00 0.  1.
<mgrwt>
<rscale>  0 0.32353200E+04</rscale>
<asrwt>0</asrwt>
<pdfrwt beam="1">  1        2 0.45426041E+00 0.32353200E+04</pdfrwt>
<pdfrwt beam="2">  1       -2 0.13634616E+00 0.32353200E+04</pdfrwt>
<totfact> 0.60145228E-01</totfact>
</mgrwt>
</event>
<event>
 6    1  0.1568961E-005  0.3901102E+04  0.7818608E-02  0.8024800E-01
          2   -1    0    0  501    0  0.00000000000E+00  0.00000000000E+00  0.25837858831E+04  0.25837858831E+04  0.00000000000E+00 0. -1.
         -2   -1    0    0    0  501 -0.00000000000E+00 -0.00000000000E+00 -0.14725096753E+04  0.14725096753E+04  0.00000000000E+00 0.  1.
         23    2    1    2    0    0 -0.11535316406E+04 -0.77599768333E+03  0.19769315966E+04  0.24185633146E+04  0.91555005217E+02 0.  0.
         13    1    3    3    0    0 -0.65703603053E+03 -0.42904589032E+03  0.11917701645E+04  0.14269172528E+04  0.00000000000E+00 0.  1.
        -13    1    3    3    0    0 -0.49649561010E+03 -0.34695179301E+03  0.78516143206E+03  0.99164606181E+03  0.00000000000E+00 0. -1.
         22    1    1    2    0    0  0.11535316406E+04  0.77599768333E+03 -0.86565538876E+03  0.16377322438E+04  0.00000000000E+00 0.  1.
<mgrwt>
<rscale>  0 0.39011023E+04</rscale>
<asrwt>0</asrwt>
<pdfrwt beam="1">  1        2 0.39750552E+00 0.39011023E+04</pdfrwt>
<pdfrwt beam="2">  1       -2 0.22653995E+00 0.39011023E+04</pdfrwt>
<totfact> 0.22230814E-01</totfact>
</mgrwt>
</event>
<event>
 6    1  0.1568961E-005  0.2028021E+04  0.7818608E-02  0.8593631E-01
          2   -1    0    0  501    0  0.00000000000E+00  0.00000000000E+00  0.89154058106E+03  0.89154058106E+03  0.00000000000E+00 0. -1.
         -2   -1    0    0    0  501 -0.00000000000E+00 -0.00000000000E+00 -0.11533040816E+04  0.11533040816E+04  0.00000000000E+00 0.  1.
         23    2    1    2    0    0 -0.16718057606E+03 -0.99112794772E+03 -0.10980260949E+02  0.10089024891E+04  0.86485331723E+02 0.  0.
         11    1    3    3    0    0 -0.14645124477E+03 -0.94855824330E+03  0.20286499601E+01  0.95979936625E+03  0.00000000000E+00 0.  1.
        -11    1    3    3    0    0 -0.20729331288E+02 -0.42569704414E+02 -0.13008910909E+02  0.49103122839E+02  0.00000000000E+00 0. -1.
         22    1    1    2    0    0  0.16718057606E+03  0.99112794772E+03 -0.25078323962E+03  0.10359421736E+04  0.00000000000E+00 0. -1.
<mgrwt>
<rscale>  0 0.20280211E+04</rscale>
<asrwt>0</asrwt>
<pdfrwt beam="1">  1        2 0.13716009E+00 0.20280211E+04</pdfrwt>
<pdfrwt beam="2">  1       -2 0.17743140E+00 0.20280211E+04</pdfrwt>
<totfact> 0.52015814E+00</totfact>
</mgrwt>
</event>
<event>
 6    1  0.1789798E-005  0.2588506E+04  0.7818608E-02  0.8372116E-01
          1   -1    0    0  501    0  0.00000000000E+00  0.00000000000E+00  0.14346687331E+04  0.14346687331E+04  0.00000000000E+00 0. -1.
         -1   -1    0    0    0  501 -0.00000000000E+00 -0.00000000000E+00 -0.11675803262E+04  0.11675803262E+04  0.00000000000E+00 0.  1.
         23    2    1    2    0    0 -0.10050704266E+04 -0.59110342698E+02  0.94872701258E+03  0.13863988284E+04  0.91423039003E+02 0.  0.
         13    1    3    3    0    0 -0.18375422117E+03 -0.37335453498E+02  0.14484790681E+03  0.23693979403E+03  0.00000000000E+00 0.  1.
        -13    1    3    3    0    0 -0.82131620543E+03 -0.21774889199E+02  0.80387910578E+03  0.11494590344E+04  0.00000000000E+00 0. -1.
         22    1    1    2    0    0  0.10050704266E+04  0.59110342698E+02 -0.68163860575E+03  0.12158502309E+04  0.00000000000E+00 0.  1.
<mgrwt>
<rscale>  0 0.25885061E+04</rscale>
<asrwt>0</asrwt>
<pdfrwt beam="1">  1        1 0.22071827E+00 0.25885061E+04</pdfrwt>
<pdfrwt beam="2">  1       -1 0.17962774E+00 0.25885061E+04</pdfrwt>
<totfact> 0.13411705E+00</totfact>
</mgrwt>
</event>
<event>
 6    1  0.1568961E-005  0.1730774E+04  0.7818608E-02  0.8744005E-01
          2   -1    0    0  501    0  0.00000000000E+00  0.00000000000E+00  0.11576704365E+04  0.11576704365E+04  0.00000000000E+00 0. -1.
         -2   -1    0    0    0  501 -0.00000000000E+00 -0.00000000000E+00 -0.64689772480E+03  0.64689772480E+03  0.00000000000E+00 0.  1.
         23    2    1    2    0    0 -0.72397494011E+03  0.42546499107E+03  0.50284015193E+02  0.84685734264E+03  0.97358636280E+02 0.  0.
         11    1    3    3    0    0 -0.55937789991E+03  0.28419550200E+03  0.55540322425E+02  0.62988526390E+03  0.00000000000E+00 0.  1.
        -11    1    3    3    0    0 -0.16459704020E+03  0.14126948907E+03 -0.52563072328E+01  0.21697207874E+03  0.00000000000E+00 0. -1.
         22    1    1    2    0    0  0.72397494011E+03 -0.42546499107E+03  0.46048869647E+03  0.95771081862E+03  0.00000000000E+00 0. -1.
<mgrwt>
<rscale>  0 0.17307737E+04</rscale>
<asrwt>0</asrwt>
<pdfrwt beam="1">  1        2 0.17810314E+00 0.17307737E+04</pdfrwt>
<pdfrwt beam="2">  1       -2 0.99522727E-01 0.17307737E+04</pdfrwt>
<totfact> 0.15931665E+01</totfact>
</mgrwt>
</event>
<event>
 6    1  0.1568961E-005  0.1990287E+04  0.7818608E-02  0.8611175E-01
         -2   -1    0    0    0  501 -0.00000000000E+00  0.00000000000E+00  0.49161979880E+03  0.49161979880E+03  0.00000000000E+00 0.  1.
          2   -1    0    0  501    0  0.00000000000E+00 -0.00000000000E+00 -0.20143838578E+04  0.20143838578E+04  0.00000000000E+00 0. -1.
         23    2    1    2    0    0  0.42139554849E+03 -0.24275282283E+03 -0.18532140546E+04  0.19180407829E+04  0.89302695382E+02 0.  0.
         11    1    3    3    0    0  0.25165801651E+03 -0.19017776948E+03 -0.12512730692E+04  0.12904199452E+04  0.00000000000E+00 0.  1.
        -11    1    3    3    0    0  0.16973753198E+03 -0.52575053347E+02 -0.60194098537E+03  0.62762083766E+03  0.00000000000E+00 0. -1.
         22    1    1    2    0    0 -0.42139554849E+03  0.24275282283E+03  0.33044999559E+03  0.58796287371E+03  0.00000000000E+00 0.  1.
<mgrwt>
<rscale>  0 0.19902874E+04</rscale>
<asrwt>0</asrwt>
<pdfrwt beam="1">  1        2 0.30990521E+00 0.19902874E+04</pdfrwt>
<pdfrwt beam="2">  1       -2 0.75633815E-01 0.19902874E+04</pdfrwt>
<totfact> 0.95572192E+00</totfact>
</mgrwt>
</event>
<event>
 6    1  0.1568961E-005  0.3309098E+04  0.7818608E-02  0.8160584E-01
         -1   -1    0    0    0  501 -0.00000000000E+00  0.00000000000E+00  0.10315208463E+04  0.10315208463E+04  0.00000000000E+00 0.  1.
          1   -1    0    0  501    0  0.00000000000E+00 -0.00000000000E+00 -0.26538792327E+04  0.26538792327E+04  0.00000000000E+00 0. -1.
         23    2    1    2    0    0  0.58496679405E+03  0.82041331247E+03 -0.22716489184E+04  0.24867164892E+04  0.90032970604E+02 0.  0.
         11    1    3    3    0    0  0.23396185401E+03  0.37499961923E+03 -0.10828013012E+04  0.11695390209E+04  0.00000000000E+00 0. -1.
        -11    1    3    3    0    0  0.35100494004E+03  0.44541369324E+03 -0.11888476172E+04  0.13171774683E+04  0.00000000000E+00 0.  1.
         22    1    1    2    0    0 -0.58496679405E+03 -0.82041331247E+03  0.64929053205E+03  0.11986835898E+04  0.00000000000E+00 0.  1.
<mgrwt>
<rscale>  0 0.33090976E+04</rscale>
<asrwt>0</asrwt>
<pdfrwt beam="1">  1        1 0.40828910E+00 0.33090976E+04</pdfrwt>
<pdfrwt beam="2">  1       -1 0.15869552E+00 0.33090976E+04</pdfrwt>
<totfact> 0.26203636E-01</totfact>
</mgrwt>
</event>
<event>
 6    1  0.1673395E-005  0.3728629E+04  0.7818608E-02  0.8061647E-01
          2   -1    0    0  501    0  0.00000000000E+00  0.00000000000E+00  0.27095658711E+04  0.27095658711E+04  0.00000000000E+00 0. -1.
         -2   -1    0    0    0  501 -0.00000000000E+00 -0.00000000000E+00 -0.12827397712E+04  0.12827397712E+04  0.00000000000E+00 0.  1.
         23    2    1    2    0    0  0.88968361910E+03  0.14708642139E+04  0.14833527121E+04  0.22723714181E+04  0.91422731331E+02 0.  0.
         11    1    3    3    0    0  0.15727920544E+03  0.32860240393E+03  0.29884374730E+03  0.47119409338E+03  0.00000000000E+00 0. -1.
        -11    1    3    3    0    0  0.73240441366E+03  0.11422618099E+04  0.11845089648E+04  0.18011773247E+04  0.00000000000E+00 0.  1.
         22    1    1    2    0    0 -0.88968361910E+03 -0.14708642139E+04 -0.56526612193E+02  0.17199342242E+04  0.00000000000E+00 0.  1.
<mgrwt>
<rscale>  0 0.37286287E+04</rscale>
<asrwt>0</asrwt>
<pdfrwt beam="1">  1        2 0.41685629E+00 0.37286287E+04</pdfrwt>
<pdfrwt beam="2">  1       -2 0.19734458E+00 0.37286287E+04</pdfrwt>
<totfact> 0.29261844E-01</totfact>
</mgrwt>
</event>
<event>
 6    1  0.1568961E-005  0.1032797E+04  0.7818608E-02  0.9273288E-01
         -1   -1    0    0    0  501 -0.00000000000E+00  0.00000000000E+00  0.32279682742E+03  0.32279682742E+03  0.00000000000E+00 0.  1.
          1   -1    0    0  501    0  0.00000000000E+00 -0.00000000000E+00 -0.82611493365E+03  0.82611493365E+03  0.00000000000E+00 0. -1.
         23    2    1    2    0    0 -0.19167498277E+03 -0.40934607727E+03 -0.52147681474E+03  0.69654769454E+03  0.94536302387E+02 0.  0.
         13    1    3    3    0    0 -0.97224267745E+02 -0.13906528268E+03 -0.14251583582E+03  0.22159078172E+03  0.00000000000E+00 0. -1.
        -13    1    3    3    0    0 -0.94450715021E+02 -0.27028079459E+03 -0.37896097892E+03  0.47495691282E+03  0.00000000000E+00 0.  1.
         22    1    1    2    0    0  0.19167498277E+03  0.40934607727E+03  0.18158708504E+02  0.45236406653E+03  0.00000000000E+00 0.  1.
<mgrwt>
<rscale>  0 0.10327967E+04</rscale>
<asrwt>0</asrwt>
<pdfrwt beam="1">  1        1 0.12709460E+00 0.10327967E+04</pdfrwt>
<pdfrwt beam="2">  1       -1 0.49661051E-01 0.10327967E+04</pdfrwt>
<totfact> 0.85369402E+01</totfact>
</mgrwt>
</event>
<event>
 6    1  0.1568961E-005  0.1943943E+04  0.7818608E-02  0.8633287E-01
          1   -1    0    0  501    0  0.00000000000E+00  0.00000000000E+00  0.11000816271E+04  0.11000816271E+04  0.00000000000E+00 0. -1.
         -1   -1    0    0    0  501 -0.00000000000E+00 -0.00000000000E+00 -0.85878050060E+03  0.85878050060E+03  0.00000000000E+00 0.  1.
         23    2    1    2    0    0 -0.41062362582E+03  0.28513158829E+03 -0.71648289432E+03  0.87846312027E+03  0.91858211875E+02 0.  0.
         11    1    3    3    0    0 -0.18325384304E+03  0.89974753731E+02 -0.23430579578E+03  0.31076781242E+03  0.00000000000E+00 0. -1.
        -11    1    3    3    0    0 -0.22736978278E+03  0.19515683456E+03 -0.48217709854E+03  0.56769530785E+03  0.00000000000E+00 0.  1.
         22    1    1    2    0    0  0.41062362582E+03 -0.28513158829E+03  0.95778402084E+03  0.10803990075E+04  0.00000000000E+00 0. -1.
<mgrwt>
<rscale>  0 0.19439431E+04</rscale>
<asrwt>0</asrwt>
<pdfrwt beam="1">  1        1 0.16924333E+00 0.19439431E+04</pdfrwt>
<pdfrwt beam="2">  1       -1 0.13212008E+00 0.19439431E+04</pdfrwt>
<totfact> 0.57522543E+00</totfact>
</mgrwt>
</event>
<event>
 6    1  0.1568961E-005  0.2614283E+04  0.7818608E-02  0.8363366E-01
          2   -1    0    0  501    0  0.00000000000E+00  0.00000000000E+00  0.17160034774E+04  0.17160034774E+04  0.00000000000E+00 0. -1.
         -2   -1    0    0    0  501 -0.00000000000E+00 -0.00000000000E+00 -0.99569702316E+03  0.99569702316E+03  0.00000000000E+00 0.  1.
         23    2    1    2    0    0 -0.90746829836E+03  0.64248985137E+03 -0.34912545895E+03  0.11689832424E+04  0.91330790509E+02 0.  0.
         13    1    3    3    0    0 -0.71695625365E+03  0.54509551003E+03 -0.30165905599E+03  0.94981765132E+03  0.00000000000E+00 0.  1.
        -13    1    3    3    0    0 -0.19051204471E+03  0.97394341340E+02 -0.47466402960E+02  0.21916559109E+03  0.00000000000E+00 0. -1.
         22    1    1    2    0    0  0.90746829836E+03 -0.64248985137E+03  0.10694319132E+04  0.15427172581E+04  0.00000000000E+00 0. -1.
<mgrwt>
<rscale>  0 0.26142835E+04</rscale>
<asrwt>0</asrwt>
<pdfrwt beam="1">  1        2 0.26400054E+00 0.26142835E+04</pdfrwt>
<pdfrwt beam="2">  1       -2 0.15318416E+00 0.26142835E+04</pdfrwt>
<totfact> 0.24054113E+00</totfact>
</mgrwt>
</event>
<event>
 6    1  0.1568961E-005  0.1202614E+04  0.7818608E-02  0.9110571E-01
          2   -1    0    0  501    0  0.00000000000E+00  0.00000000000E+00  0.18668372316E+04  0.18668372316E+04  0.00000000000E+00 0. -1.
         -2   -1    0    0    0  501 -0.00000000000E+00 -0.00000000000E+00 -0.19368063068E+03  0.19368063068E+03  0.00000000000E+00 0.  1.
         23    2    1    2    0    0  0.39309913863E+03  0.22447469183E+03  0.15104209406E+04  0.15794786589E+04  0.92008673952E+02 0.  0.
         11    1    3    3    0    0  0.14951748550E+03  0.97524044279E+02  0.75052478485E+03  0.77146216392E+03  0.00000000000E+00 0.  1.
        -11    1    3    3    0    0  0.24358165313E+03  0.12695064755E+03  0.75989615576E+03  0.80801649500E+03  0.00000000000E+00 0. -1.
         22    1    1    2    0    0 -0.39309913863E+03 -0.22447469183E+03  0.16273566035E+03  0.48103920341E+03  0.00000000000E+00 0.  1.
<mgrwt>
<rscale>  0 0.12026142E+04</rscale>
<asrwt>0</asrwt>
<pdfrwt beam="1">  1        2 0.28720572E+00 0.12026142E+04</pdfrwt>
<pdfrwt beam="2">  1       -2 0.29797021E-01 0.12026142E+04</pdfrwt>
<totfact> 0.81214861E+01</totfact>
</mgrwt>
</event>
<event>
 6    1  0.1568961E-005  0.1083335E+04  0.7818608E-02  0.9221588E-01
          1   -1    0    0  501    0  0.00000000000E+00  0.00000000000E+00  0.59160419394E+03  0.59160419394E+03  0.00000000000E+00 0. -1.
         -1   -1    0    0    0  501 -0.00000000000E+00 -0.00000000000E+00 -0.49594623750E+03  0.49594623750E+03  0.00000000000E+00 0.  1.
         23    2    1    2    0    0  0.20354504159E+03 -0.35775913524E+03  0.39556496771E+03  0.57827015672E+03  0.92209260229E+02 0.  0.
         13    1    3    3    0    0  0.30706347836E+02 -0.62665433131E+02  0.25279959953E+02  0.74222049838E+02  0.00000000000E+00 0.  1.
        -13    1    3    3    0    0  0.17283869376E+03 -0.29509370210E+03  0.37028500776E+03  0.50404810688E+03  0.00000000000E+00 0. -1.
         22    1    1    2    0    0 -0.20354504159E+03  0.35775913524E+03 -0.29990701128E+03  0.50928027472E+03  0.00000000000E+00 0.  1.
<mgrwt>
<rscale>  0 0.10833354E+04</rscale>
<asrwt>0</asrwt>
<pdfrwt beam="1">  1        1 0.91016030E-01 0.10833354E+04</pdfrwt>
<pdfrwt beam="2">  1       -1 0.76299421E-01 0.10833354E+04</pdfrwt>
<totfact> 0.60162644E+01</totfact>
</mgrwt>
</event>
<event>
 6    1  0.1763252E-005  0.3783700E+04  0.7818608E-02  0.8049662E-01
         -2   -1    0    0    0  501 -0.00000000000E+00  0.00000000000E+00  0.14435868081E+04  0.14435868081E+04  0.00000000000E+00 0.  1.
          2   -1    0    0  501    0  0.00000000000E+00 -0.00000000000E+00 -0.24793075090E+04  0.24793075090E+04  0.00000000000E+00 0. -1.
         23    2    1    2    0    0 -0.40527289394E+03 -0.86176239466E+03  0.11754024123E+04  0.15154172215E+04  0.89654787870E+02 0.  0.
         13    1    3    3    0    0 -0.21518661173E+03 -0.49146244507E+03  0.72795292768E+03  0.90429866621E+03  0.00000000000E+00 0. -1.
        -13    1    3    3    0    0 -0.19008628221E+03 -0.37029994959E+03  0.44744948467E+03  0.61111855534E+03  0.00000000000E+00 0.  1.
         22    1    1    2    0    0  0.40527289394E+03  0.86176239466E+03 -0.22111231133E+04  0.24074770955E+04  0.00000000000E+00 0. -1.
<mgrwt>
<rscale>  0 0.37836996E+04</rscale>
<asrwt>0</asrwt>
<pdfrwt beam="1">  1        2 0.38143192E+00 0.37836996E+04</pdfrwt>
<pdfrwt beam="2">  1       -2 0.22209028E+00 0.37836996E+04</pdfrwt>
<totfact> 0.27544210E-01</totfact>
</mgrwt>
</event>
<event>
 6    1  0.1568961E-005  0.2069467E+04  0.7818608E-02  0.8574814E-01
         -1   -1    0    0    0  501 -0.00000000000E+00  0.00000000000E+00  0.10835811046E+04  0.10835811046E+04  0.00000000000E+00 0.  1.
          1   -1    0    0  501    0  0.00000000000E+00 -0.00000000000E+00 -0.98808755979E+03  0.98808755979E+03  0.00000000000E+00 0. -1.
         23    2    1    2    0    0 -0.47552261941E+02 -0.10275504970E+04 -0.43750939378E+02  0.10336367440E+04  0.91485148638E+02 0.  0.
         11    1    3    3    0    0 -0.36507351541E+02 -0.27217880295E+03 -0.44410140357E+02  0.27818401834E+03  0.00000000000E+00 0.  1.
        -11    1    3    3    0    0 -0.11044910399E+02 -0.75537169401E+03  0.65920097929E+00  0.75545272565E+03  0.00000000000E+00 0. -1.
         22    1    1    2    0    0  0.47552261941E+02  0.10275504970E+04  0.13924448420E+03  0.10380319204E+04  0.00000000000E+00 0.  1.
<mgrwt>
<rscale>  0 0.20694666E+04</rscale>
<asrwt>0</asrwt>
<pdfrwt beam="1">  1        1 0.15201347E+00 0.20694666E+04</pdfrwt>
<pdfrwt beam="2">  1       -1 0.16670479E+00 0.20694666E+04</pdfrwt>
<totfact> 0.37104794E+00</totfact>
</mgrwt>
</event>
<event>
 6    1  0.1568961E-005  0.2463253E+04  0.7818608E-02  0.8416195E-01
         -1   -1    0    0    0  501 -0.00000000000E+00  0.00000000000E+00  0.12882790661E+04  0.12882790661E+04  0.00000000000E+00 0.  1.
          1   -1    0    0  501    0  0.00000000000E+00 -0.00000000000E+00 -0.11774653180E+04  0.11774653180E+04  0.00000000000E+00 0. -1.
         23    2    1    2    0    0 -0.58577003377E+03  0.51277426309E+03  0.10086072910E+04  0.12774274134E+04  0.92022560517E+02 0.  0.
         13    1    3    3    0    0 -0.50224028102E+03  0.41601964458E+03  0.88743433038E+03  0.11012980229E+04  0.00000000000E+00 0. -1.
        -13    1    3    3    0    0 -0.83529752746E+02  0.96754618506E+02  0.12117296062E+03  0.17612939045E+03  0.00000000000E+00 0.  1.
         22    1    1    2    0    0  0.58577003377E+03 -0.51277426309E+03 -0.89779354286E+03  0.11883169707E+04  0.00000000000E+00 0. -1.
<mgrwt>
<rscale>  0 0.24632531E+04</rscale>
<asrwt>0</asrwt>
<pdfrwt beam="1">  1        1 0.18114851E+00 0.24632531E+04</pdfrwt>
<pdfrwt beam="2">  1       -1 0.19819678E+00 0.24632531E+04</pdfrwt>
<totfact> 0.15324074E+00</totfact>
</mgrwt>
</event>
<event>
 6    1  0.1568961E-005  0.3132055E+04  0.7818608E-02  0.8206995E-01
         -1   -1    0    0    0  501 -0.00000000000E+00  0.00000000000E+00  0.18086823364E+04  0.18086823364E+04  0.00000000000E+00 0.  1.
          1   -1    0    0  501    0  0.00000000000E+00 -0.00000000000E+00 -0.13559277608E+04  0.13559277608E+04  0.00000000000E+00 0. -1.
         23    2    1    2    0    0 -0.93877205687E+03 -0.94114380145E+01  0.14911960280E+04  0.17647021717E+04  0.95533297115E+02 0.  0.
         11    1    3    3    0    0 -0.32872103222E+03 -0.96978950472E+01  0.44012638483E+03  0.54942042264E+03  0.00000000000E+00 0.  1.
        -11    1    3    3    0    0 -0.61005102464E+03  0.28645703275E+00  0.10510696432E+04  0.12152817490E+04  0.00000000000E+00 0. -1.
         22    1    1    2    0    0  0.93877205687E+03  0.94114380145E+01 -0.10384414524E+04  0.13999079255E+04  0.00000000000E+00 0. -1.
<mgrwt>
<rscale>  0 0.31320553E+04</rscale>
<asrwt>0</asrwt>
<pdfrwt beam="1">  1        1 0.20860427E+00 0.31320553E+04</pdfrwt>
<pdfrwt beam="2">  1       -1 0.27825882E+00 0.31320553E+04</pdfrwt>
<totfact> 0.31721635E-01</totfact>
</mgrwt>
</event>
<event>
 6    1  0.1568961E-005  0.1906916E+04  0.7818608E-02  0.8651422E-01
          2   -1    0    0  501    0  0.00000000000E+00  0.00000000000E+00  0.20431870202E+04  0.20431870202E+04  0.00000000000E+00 0. -1.
         -2   -1    0    0    0  501 -0.00000000000E+00 -0.00000000000E+00 -0.44493327483E+03  0.44493327483E+03  0.00000000000E+00 0.  1.
         23    2    1    2    0    0 -0.90460844736E+03  0.13296123713E+03  0.11435893630E+04  0.14669862028E+04  0.90866685664E+02 0.  0.
         13    1    3    3    0    0 -0.43964111562E+03  0.94012763699E+02  0.61695185544E+03  0.76338214691E+03  0.00000000000E+00 0. -1.
        -13    1    3    3    0    0 -0.46496733174E+03  0.38948473429E+02  0.52663750751E+03  0.70360405591E+03  0.00000000000E+00 0.  1.
         22    1    1    2    0    0  0.90460844736E+03 -0.13296123713E+03  0.45466438238E+03  0.10211340922E+04  0.00000000000E+00 0. -1.
<mgrwt>
<rscale>  0 0.19069157E+04</rscale>
<asrwt>0</asrwt>
<pdfrwt beam="1">  1        2 0.31433646E+00 0.19069157E+04</pdfrwt>
<pdfrwt beam="2">  1       -2 0.68451274E-01 0.19069157E+04</pdfrwt>
<totfact> 0.11548693E+01</totfact>
</mgrwt>
</event>
<event>
 6    1  0.1568961E-005  0.9529673E+03  0.7818608E-02  0.9361689E-01
         -1   -1    0    0    0  501 -0.00000000000E+00  0.00000000000E+00  0.43562227499E+03  0.43562227499E+03  0.00000000000E+00 0.  1.
          1   -1    0    0  501    0  0.00000000000E+00 -0.00000000000E+00 -0.52117780797E+03  0.52117780797E+03  0.00000000000E+00 0. -1.
         23    2    1    2    0    0  0.27443538259E+03 -0.29742718428E+03  0.20111995251E+03  0.46085599021E+03  0.90339909505E+02 0.  0.
         13    1    3    3    0    0  0.10254990838E+02 -0.51654261788E+02  0.37593076762E+02  0.64703686281E+02  0.00000000000E+00 0.  1.
        -13    1    3    3    0    0  0.26418039175E+03 -0.24577292249E+03  0.16352687575E+03  0.39615230393E+03  0.00000000000E+00 0. -1.
         22    1    1    2    0    0 -0.27443538259E+03  0.29742718428E+03 -0.28667548548E+03  0.49594409276E+03  0.00000000000E+00 0. -1.
<mgrwt>
<rscale>  0 0.95296729E+03</rscale>
<asrwt>0</asrwt>
<pdfrwt beam="1">  1        1 0.80181201E-01 0.95296729E+03</pdfrwt>
<pdfrwt beam="2">  1       -1 0.67018812E-01 0.95296729E+03</pdfrwt>
<totfact> 0.94895279E+01</totfact>
</mgrwt>
</event>
<event>
 6    1  0.1568961E-005  0.2554249E+04  0.7818608E-02  0.8383910E-01
         -1   -1    0    0    0  501 -0.00000000000E+00  0.00000000000E+00  0.19079381518E+04  0.19079381518E+04  0.00000000000E+00 0.  1.
          1   -1    0    0  501    0  0.00000000000E+00 -0.00000000000E+00 -0.85487413174E+03  0.85487413174E+03  0.00000000000E+00 0. -1.
         23    2    1    2    0    0  0.58464267998E+03 -0.44748463254E+03  0.16537983187E+04  0.18125853332E+04  0.91472136049E+02 0.  0.
         13    1    3    3    0    0  0.34525458265E+03 -0.21116347940E+03  0.94502071564E+03  0.10280344814E+04  0.00000000000E+00 0. -1.
        -13    1    3    3    0    0  0.23938809733E+03 -0.23632115314E+03  0.70877760303E+03  0.78455085184E+03  0.00000000000E+00 0.  1.
         22    1    1    2    0    0 -0.58464267998E+03  0.44748463254E+03 -0.60073429862E+03  0.95022695034E+03  0.00000000000E+00 0. -1.
<mgrwt>
<rscale>  0 0.25542490E+04</rscale>
<asrwt>0</asrwt>
<pdfrwt beam="1">  1        1 0.13151910E+00 0.25542490E+04</pdfrwt>
<pdfrwt beam="2">  1       -1 0.29352894E+00 0.25542490E+04</pdfrwt>
<totfact> 0.63810973E-01</totfact>
</mgrwt>
</event>
<event>
 6    1  0.1568961E-005  0.2549295E+04  0.7818608E-02  0.8385631E-01
         -1   -1    0    0    0  501 -0.00000000000E+00  0.00000000000E+00  0.87641809011E+03  0.87641809011E+03  0.00000000000E+00 0.  1.
          1   -1    0    0  501    0  0.00000000000E+00 -0.00000000000E+00 -0.18538260379E+04  0.18538260379E+04  0.00000000000E+00 0. -1.
         23    2    1    2    0    0 -0.49942137366E+03  0.11719929532E+03 -0.17371053134E+04  0.18135667198E+04  0.91279757695E+02 0.  0.
         11    1    3    3    0    0 -0.28119529432E+03  0.31752886789E+02 -0.10565171315E+04  0.10937584233E+04  0.00000000000E+00 0. -1.
        -11    1    3    3    0    0 -0.21822607934E+03  0.85446408528E+02 -0.68058818192E+03  0.71980829657E+03  0.00000000000E+00 0.  1.
         22    1    1    2    0    0  0.49942137366E+03 -0.11719929532E+03  0.75969736562E+03  0.91667740816E+03  0.00000000000E+00 0.  1.
<mgrwt>
<rscale>  0 0.25492953E+04</rscale>
<asrwt>0</asrwt>
<pdfrwt beam="1">  1        1 0.28520400E+00 0.25492953E+04</pdfrwt>
<pdfrwt beam="2">  1       -1 0.13483355E+00 0.25492953E+04</pdfrwt>
<totfact> 0.15307355E+00</totfact>
</mgrwt>
</event>
<event>
 6    1  0.1568961E-005  0.1848634E+04  0.7818608E-02  0.8680855E-01
          2   -1    0    0  501    0  0.00000000000E+00  0.00000000000E+00  0.91201470956E+03  0.91201470956E+03  0.00000000000E+00 0.  1.
         -2   -1    0    0    0  501 -0.00000000000E+00 -0.00000000000E+00 -0.93678561357E+03  0.93678561357E+03  0.00000000000E+00 0. -1.
         23    2    1    2    0    0 -0.73856143589E+03 -0.51707924859E+03  0.18128787109E+03  0.92397376496E+03  0.89544861474E+02 0.  0.
         11    1    3    3    0    0 -0.59925391862E+03 -0.39434298552E+03  0.11331370747E+03  0.72625866295E+03  0.00000000000E+00 0. -1.
        -11    1    3    3    0    0 -0.13930751727E+03 -0.12273626307E+03  0.67974163630E+02  0.19771510200E+03  0.00000000000E+00 0.  1.
         22    1    1    2    0    0  0.73856143589E+03  0.51707924859E+03 -0.20605877511E+03  0.92482655818E+03  0.00000000000E+00 0. -1.
<mgrwt>
<rscale>  0 0.18486344E+04</rscale>
<asrwt>0</asrwt>
<pdfrwt beam="1">  1        2 0.14030996E+00 0.18486344E+04</pdfrwt>
<pdfrwt beam="2">  1       -2 0.14412086E+00 0.18486344E+04</pdfrwt>
<totfact> 0.90092964E+00</totfact>
</mgrwt>
</event>
<event>
 6    1  0.1568961E-005  0.2454650E+04  0.7818608E-02  0.8419322E-01
         -1   -1    0    0    0  501 -0.00000000000E+00  0.00000000000E+00  0.12492197289E+04  0.12492197289E+04  0.00000000000E+00 0.  1.
          1   -1    0    0  501    0  0.00000000000E+00 -0.00000000000E+00 -0.12058144607E+04  0.12058144607E+04  0.00000000000E+00 0. -1.
         23    2    1    2    0    0 -0.48757040825E+03 -0.79345526947E+03 -0.77505231915E+03  0.12152079962E+04  0.93424884284E+02 0.  0.
         13    1    3    3    0    0 -0.48423578740E+03 -0.77303063583E+03 -0.74037960215E+03  0.11748287607E+04  0.00000000000E+00 0.  1.
        -13    1    3    3    0    0 -0.33346208534E+01 -0.20424633641E+02 -0.34672717000E+02  0.40379235503E+02  0.00000000000E+00 0. -1.
         22    1    1    2    0    0  0.48757040825E+03  0.79345526947E+03  0.81845758735E+03  0.12398261934E+04  0.00000000000E+00 0.  1.
<mgrwt>
<rscale>  0 0.24546505E+04</rscale>
<asrwt>0</asrwt>
<pdfrwt beam="1">  1        1 0.18550992E+00 0.24546505E+04</pdfrwt>
<pdfrwt beam="2">  1       -1 0.19218765E+00 0.24546505E+04</pdfrwt>
<totfact> 0.16097927E+00</totfact>
</mgrwt>
</event>
<event>
 6    1  0.1568961E-005  0.1965027E+04  0.7818608E-02  0.8623148E-01
         -2   -1    0    0    0  501 -0.00000000000E+00  0.00000000000E+00  0.83973403000E+03  0.83973403000E+03  0.00000000000E+00 0. -1.
          2   -1    0    0  501    0  0.00000000000E+00 -0.00000000000E+00 -0.11495699203E+04  0.11495699203E+04  0.00000000000E+00 0.  1.
         23    2    1    2    0    0  0.54922897896E+03 -0.68450404507E+03 -0.59780475478E+03  0.10656566551E+04  0.89751449668E+02 0.  0.
         11    1    3    3    0    0  0.14381692043E+03 -0.22268076390E+03 -0.14347666171E+03  0.30142259648E+03  0.00000000000E+00 0.  1.
        -11    1    3    3    0    0  0.40541205853E+03 -0.46182328117E+03 -0.45432809307E+03  0.76423405864E+03  0.00000000000E+00 0. -1.
         22    1    1    2    0    0 -0.54922897896E+03  0.68450404507E+03  0.28796886445E+03  0.92364729521E+03  0.00000000000E+00 0. -1.
<mgrwt>
<rscale>  0 0.19650272E+04</rscale>
<asrwt>0</asrwt>
<pdfrwt beam="1">  1        2 0.17685691E+00 0.19650272E+04</pdfrwt>
<pdfrwt beam="2">  1       -2 0.12918985E+00 0.19650272E+04</pdfrwt>
<totfact> 0.83521191E+00</totfact>
</mgrwt>
</event>
<event>
 6    1  0.1568961E-005  0.4429164E+04  0.7818608E-02  0.7923157E-01
          2   -1    0    0  501    0  0.00000000000E+00  0.00000000000E+00  0.27797917681E+04  0.27797917681E+04  0.00000000000E+00 0. -1.
         -2   -1    0    0    0  501 -0.00000000000E+00 -0.00000000000E+00 -0.17642952014E+04  0.17642952014E+04  0.00000000000E+00 0.  1.
         23    2    1    2    0    0  0.18047235571E+04 -0.71742686417E+03 -0.58188169132E+03  0.20294606111E+04  0.91627757870E+02 0.  0.
         13    1    3    3    0    0  0.12586971921E+04 -0.45953488309E+03 -0.42081165646E+03  0.14044833144E+04  0.00000000000E+00 0.  1.
        -13    1    3    3    0    0  0.54602636501E+03 -0.25789198108E+03 -0.16107003487E+03  0.62497729665E+03  0.00000000000E+00 0. -1.
         22    1    1    2    0    0 -0.18047235571E+04  0.71742686417E+03  0.15973782580E+04  0.25146263584E+04  0.00000000000E+00 0. -1.
<mgrwt>
<rscale>  0 0.44291639E+04</rscale>
<asrwt>0</asrwt>
<pdfrwt beam="1">  1        2 0.42766027E+00 0.44291639E+04</pdfrwt>
<pdfrwt beam="2">  1       -2 0.27143003E+00 0.44291639E+04</pdfrwt>
<totfact> 0.86077909E-02</totfact>
</mgrwt>
</event>
<event>
 6    1  0.1568961E-005  0.3995768E+04  0.7818608E-02  0.8005401E-01
         -2   -1    0    0    0  501 -0.00000000000E+00  0.00000000000E+00  0.10834397239E+04  0.10834397239E+04  0.00000000000E+00 0.  1.
          2   -1    0    0  501    0  0.00000000000E+00 -0.00000000000E+00 -0.36841370869E+04  0.36841370869E+04  0.00000000000E+00 0. -1.
         23    2    1    2    0    0  0.11470587028E+04  0.16178317930E+04 -0.10229588542E+04  0.22333348768E+04  0.90644780369E+02 0.  0.
         13    1    3    3    0    0  0.16859752688E+03  0.29595569884E+03 -0.18213336277E+03  0.38624793020E+03  0.00000000000E+00 0. -1.
        -13    1    3    3    0    0  0.97846117590E+03  0.13218760941E+04 -0.84082549147E+03  0.18470869466E+04  0.00000000000E+00 0.  1.
         22    1    1    2    0    0 -0.11470587028E+04 -0.16178317930E+04 -0.15777385088E+04  0.25342419340E+04  0.00000000000E+00 0. -1.
<mgrwt>
<rscale>  0 0.39957680E+04</rscale>
<asrwt>0</asrwt>
<pdfrwt beam="1">  1        2 0.56679032E+00 0.39957680E+04</pdfrwt>
<pdfrwt beam="2">  1       -2 0.16668304E+00 0.39957680E+04</pdfrwt>
<totfact> 0.10627026E-01</totfact>
</mgrwt>
</event>
<event>
 6    1  0.1568961E-005  0.3188768E+04  0.7818608E-02  0.8191790E-01
         -1   -1    0    0    0  501 -0.00000000000E+00  0.00000000000E+00  0.11407042529E+04  0.11407042529E+04  0.00000000000E+00 0.  1.
          1   -1    0    0  501    0  0.00000000000E+00 -0.00000000000E+00 -0.22285001047E+04  0.22285001047E+04  0.00000000000E+00 0. -1.
         23    2    1    2    0    0 -0.15733828144E+04 -0.33490457072E+01 -0.80825353309E+03  0.17711778858E+04  0.90844001776E+02 0.  0.
         13    1    3    3    0    0 -0.63882515601E+03 -0.21541671124E+02 -0.37315920356E+03  0.74014148293E+03  0.00000000000E+00 0.  1.
        -13    1    3    3    0    0 -0.93455765840E+03  0.18192625416E+02 -0.43509432953E+03  0.10310364029E+04  0.00000000000E+00 0. -1.
         22    1    1    2    0    0  0.15733828144E+04  0.33490457072E+01 -0.27954231870E+03  0.15980264718E+04  0.00000000000E+00 0.  1.
<mgrwt>
<rscale>  0 0.31887675E+04</rscale>
<asrwt>0</asrwt>
<pdfrwt beam="1">  1        1 0.34284617E+00 0.31887675E+04</pdfrwt>
<pdfrwt beam="2">  1       -1 0.17549296E+00 0.31887675E+04</pdfrwt>
<totfact> 0.39130202E-01</totfact>
</mgrwt>
</event>
<event>
 6    1  0.1620244E-005  0.3336214E+04  0.7818608E-02  0.8153741E-01
         -1   -1    0    0    0  501 -0.00000000000E+00  0.00000000000E+00  0.18506234009E+04  0.18506234009E+04  0.00000000000E+00 0.  1.
          1   -1    0    0  501    0  0.00000000000E+00 -0.00000000000E+00 -0.15035911219E+04  0.15035911219E+04  0.00000000000E+00 0. -1.
         23    2    1    2    0    0 -0.51674737324E+03  0.79908279337E+03 -0.12021985633E+04  0.15360623396E+04  0.92978314762E+02 0.  0.
         13    1    3    3    0    0 -0.85958777654E+02  0.16790259175E+03 -0.18933766354E+03  0.26726193632E+03  0.00000000000E+00 0. -1.
        -13    1    3    3    0    0 -0.43078859558E+03  0.63118020162E+03 -0.10128608998E+04  0.12688004032E+04  0.00000000000E+00 0.  1.
         22    1    1    2    0    0  0.51674737324E+03 -0.79908279337E+03  0.15492308424E+04  0.18181521832E+04  0.00000000000E+00 0.  1.
<mgrwt>
<rscale>  0 0.33362140E+04</rscale>
<asrwt>0</asrwt>
<pdfrwt beam="1">  1        1 0.23132171E+00 0.33362140E+04</pdfrwt>
<pdfrwt beam="2">  1       -1 0.28471129E+00 0.33362140E+04</pdfrwt>
<totfact> 0.22317493E-01</totfact>
</mgrwt>
</event>
<event>
 6    1  0.1568961E-005  0.4144318E+04  0.7818608E-02  0.7976049E-01
         -2   -1    0    0    0  501 -0.00000000000E+00  0.00000000000E+00  0.23600418165E+04  0.23600418165E+04  0.00000000000E+00 0.  1.
          2   -1    0    0  501    0  0.00000000000E+00 -0.00000000000E+00 -0.18193930924E+04  0.18193930924E+04  0.00000000000E+00 0. -1.
         23    2    1    2    0    0 -0.67034550002E+03  0.30842123872E+03 -0.16816715516E+04  0.18378127879E+04  0.71062550148E+02 0.  0.
         11    1    3    3    0    0 -0.25659226174E+03  0.15474178447E+03 -0.70557092114E+03  0.76656045646E+03  0.00000000000E+00 0.  1.
        -11    1    3    3    0    0 -0.41375323828E+03  0.15367945425E+03 -0.97610063047E+03  0.10712523315E+04  0.00000000000E+00 0. -1.
         22    1    1    2    0    0  0.67034550002E+03 -0.30842123872E+03  0.22223202757E+04  0.23416221210E+04  0.00000000000E+00 0.  1.
<mgrwt>
<rscale>  0 0.41443184E+04</rscale>
<asrwt>0</asrwt>
<pdfrwt beam="1">  1        2 0.27990663E+00 0.41443184E+04</pdfrwt>
<pdfrwt beam="2">  1       -2 0.36308336E+00 0.41443184E+04</pdfrwt>
<totfact> 0.84343806E-02</totfact>
</mgrwt>
</event>
<event>
 6    1  0.1568961E-005  0.2651826E+04  0.7818608E-02  0.8350807E-01
         -1   -1    0    0    0  501 -0.00000000000E+00  0.00000000000E+00  0.16223454903E+04  0.16223454903E+04  0.00000000000E+00 0.  1.
          1   -1    0    0  501    0  0.00000000000E+00 -0.00000000000E+00 -0.10836443444E+04  0.10836443444E+04  0.00000000000E+00 0. -1.
         23    2    1    2    0    0  0.10020845061E+04 -0.76734307316E+03 -0.13962072457E+03  0.12731223219E+04  0.91420733503E+02 0.  0.
         11    1    3    3    0    0  0.73349553686E+03 -0.55738993544E+03 -0.61019627153E+02  0.92326737060E+03  0.00000000000E+00 0. -1.
        -11    1    3    3    0    0  0.26858896922E+03 -0.20995313772E+03 -0.78601097413E+02  0.34985495128E+03  0.00000000000E+00 0.  1.
         22    1    1    2    0    0 -0.10020845061E+04  0.76734307316E+03  0.67832187050E+03  0.14328675128E+04  0.00000000000E+00 0. -1.
<mgrwt>
<rscale>  0 0.26518262E+04</rscale>
<asrwt>0</asrwt>
<pdfrwt beam="1">  1        1 0.16671451E+00 0.26518262E+04</pdfrwt>
<pdfrwt beam="2">  1       -1 0.24959161E+00 0.26518262E+04</pdfrwt>
<totfact> 0.80231002E-01</totfact>
</mgrwt>
</event>
<event>
 6    1  0.1568961E-005  0.2258364E+04  0.7818608E-02  0.8494521E-01
         -4   -1    0    0    0  501 -0.00000000000E+00  0.00000000000E+00  0.13332270140E+04  0.13332270140E+04  0.00000000000E+00 0.  1.
          4   -1    0    0  501    0  0.00000000000E+00 -0.00000000000E+00 -0.95636564739E+03  0.95636564739E+03  0.00000000000E+00 0. -1.
         23    2    1    2    0    0  0.14536916572E+03  0.11174643884E+04  0.15349014908E+03  0.11407873887E+04  0.89318456930E+02 0.  0.
         13    1    3    3    0    0  0.46582717476E+02  0.21093984162E+03  0.59491440031E+02  0.22406427155E+03  0.00000000000E+00 0.  1.
        -13    1    3    3    0    0  0.98786448244E+02  0.90652454677E+03  0.93998709054E+02  0.91672311718E+03  0.00000000000E+00 0. -1.
         22    1    1    2    0    0 -0.14536916572E+03 -0.11174643884E+04  0.22337121751E+03  0.11488052727E+04  0.00000000000E+00 0.  1.
<mgrwt>
<rscale>  0 0.22583645E+04</rscale>
<asrwt>0</asrwt>
<pdfrwt beam="1">  1        4 0.14713318E+00 0.22583645E+04</pdfrwt>
<pdfrwt beam="2">  1       -4 0.20511185E+00 0.22583645E+04</pdfrwt>
<totfact> 0.69398187E-02</totfact>
</mgrwt>
</event>
<event>
 6    1  0.1568961E-005  0.1657695E+04  0.7818608E-02  0.8785867E-01
          1   -1    0    0  501    0  0.00000000000E+00  0.00000000000E+00  0.93209536334E+03  0.93209536334E+03  0.00000000000E+00 0. -1.
         -1   -1    0    0    0  501 -0.00000000000E+00 -0.00000000000E+00 -0.73703610284E+03  0.73703610284E+03  0.00000000000E+00 0.  1.
         23    2    1    2    0    0 -0.56662899982E+03  0.39885475112E+03  0.55300888004E+03  0.88920745318E+03  0.68684331922E+02 0.  0.
         13    1    3    3    0    0 -0.23113546048E+03  0.14191113282E+03  0.25351038521E+03  0.37125447622E+03  0.00000000000E+00 0. -1.
        -13    1    3    3    0    0 -0.33549353934E+03  0.25694361830E+03  0.29949849483E+03  0.51795297695E+03  0.00000000000E+00 0.  1.
         22    1    1    2    0    0  0.56662899982E+03 -0.39885475112E+03 -0.35794961954E+03  0.77992401300E+03  0.00000000000E+00 0.  1.
<mgrwt>
<rscale>  0 0.16576947E+04</rscale>
<asrwt>0</asrwt>
<pdfrwt beam="1">  1        1 0.14339929E+00 0.16576947E+04</pdfrwt>
<pdfrwt beam="2">  1       -1 0.11339017E+00 0.16576947E+04</pdfrwt>
<totfact> 0.11619790E+01</totfact>
</mgrwt>
</event>
<event>
 6    1  0.1568961E-005  0.4906745E+04  0.7818608E-02  0.7843056E-01
          1   -1    0    0  501    0  0.00000000000E+00  0.00000000000E+00  0.24523987555E+04  0.24523987555E+04  0.00000000000E+00 0. -1.
         -1   -1    0    0    0  501 -0.00000000000E+00 -0.00000000000E+00 -0.24543470661E+04  0.24543470661E+04  0.00000000000E+00 0.  1.
         23    2    1    2    0    0 -0.12979954875E+04  0.14984321769E+04 -0.14448198794E+04  0.24548140040E+04  0.92282369745E+02 0.  0.
         11    1    3    3    0    0 -0.44938526544E+03  0.47499646744E+03 -0.43635516405E+03  0.78611359871E+03  0.00000000000E+00 0. -1.
        -11    1    3    3    0    0 -0.84861022211E+03  0.10234357095E+04 -0.10084647153E+04  0.16687004053E+04  0.00000000000E+00 0.  1.
         22    1    1    2    0    0  0.12979954875E+04 -0.14984321769E+04  0.14428715687E+04  0.24519318176E+04  0.00000000000E+00 0. -1.
<mgrwt>
<rscale>  0 0.49067454E+04</rscale>
<asrwt>0</asrwt>
<pdfrwt beam="1">  1        1 0.37729212E+00 0.49067454E+04</pdfrwt>
<pdfrwt beam="2">  1       -1 0.37759186E+00 0.49067454E+04</pdfrwt>
<totfact> 0.10800190E-02</totfact>
</mgrwt>
</event>
<event>
 6    1  0.1568961E-005  0.1736262E+04  0.7818608E-02  0.8740949E-01
          1   -1    0    0  501    0  0.00000000000E+00  0.00000000000E+00  0.56302498774E+03  0.56302498774E+03  0.00000000000E+00 0. -1.
         -1   -1    0    0    0  501 -0.00000000000E+00 -0.00000000000E+00 -0.13385762289E+04  0.13385762289E+04  0.00000000000E+00 0.  1.
         23    2    1    2    0    0  0.52841193317E+02  0.19525444687E+03 -0.13108272019E+04  0.13293802411E+04  0.89818602158E+02 0.  0.
         13    1    3    3    0    0 -0.18771119203E+02  0.10216439498E+03 -0.61624471968E+03  0.62493797536E+03  0.00000000000E+00 0. -1.
        -13    1    3    3    0    0  0.71612312520E+02  0.93090051897E+02 -0.69458248224E+03  0.70444226570E+03  0.00000000000E+00 0.  1.
         22    1    1    2    0    0 -0.52841193317E+02 -0.19525444687E+03  0.53527596076E+03  0.57222097558E+03  0.00000000000E+00 0. -1.
<mgrwt>
<rscale>  0 0.17362625E+04</rscale>
<asrwt>0</asrwt>
<pdfrwt beam="1">  1        1 0.86619229E-01 0.17362625E+04</pdfrwt>
<pdfrwt beam="2">  1       -1 0.20593480E+00 0.17362625E+04</pdfrwt>
<totfact> 0.48769478E+00</totfact>
</mgrwt>
</event>
<event>
 6    1  0.1568961E-005  0.1862363E+04  0.7818608E-02  0.8673821E-01
          2   -1    0    0  501    0  0.00000000000E+00  0.00000000000E+00  0.12274579449E+04  0.12274579449E+04  0.00000000000E+00 0. -1.
         -2   -1    0    0    0  501 -0.00000000000E+00 -0.00000000000E+00 -0.70641857750E+03  0.70641857750E+03  0.00000000000E+00 0.  1.
         23    2    1    2    0    0  0.89079915646E+03 -0.19195946450E+03  0.73577502314E+02  0.91869491605E+03  0.90637336564E+02 0.  0.
         11    1    3    3    0    0  0.30446372031E+03 -0.10912903076E+03  0.17887271014E+02  0.32392477029E+03  0.00000000000E+00 0. -1.
        -11    1    3    3    0    0  0.58633543615E+03 -0.82830433738E+02  0.55690231299E+02  0.59477014577E+03  0.00000000000E+00 0.  1.
         22    1    1    2    0    0 -0.89079915646E+03  0.19195946450E+03  0.44746186509E+03  0.10151816063E+04  0.00000000000E+00 0.  1.
<mgrwt>
<rscale>  0 0.18623631E+04</rscale>
<asrwt>0</asrwt>
<pdfrwt beam="1">  1        2 0.18883968E+00 0.18623631E+04</pdfrwt>
<pdfrwt beam="2">  1       -2 0.10867978E+00 0.18623631E+04</pdfrwt>
<totfact> 0.11593623E+01</totfact>
</mgrwt>
</event>
<event>
 6    1  0.1568961E-005  0.5058178E+03  0.7818608E-02  0.1012271E+00
         -2   -1    0    0    0  501 -0.00000000000E+00  0.00000000000E+00  0.10653432954E+03  0.10653432954E+03  0.00000000000E+00 0.  1.
          2   -1    0    0  501    0  0.00000000000E+00 -0.00000000000E+00 -0.60039720926E+03  0.60039720926E+03  0.00000000000E+00 0. -1.
         23    2    1    2    0    0  0.32596563735E+02  0.17860350224E+03 -0.26812317322E+02  0.20583476689E+03  0.93205707551E+02 0.  0.
         13    1    3    3    0    0  0.63344822732E+01  0.16705078536E+03 -0.89802875305E+00  0.16717325447E+03  0.00000000000E+00 0.  1.
        -13    1    3    3    0    0  0.26262081462E+02  0.11552716874E+02 -0.25914288569E+02  0.38661512411E+02  0.00000000000E+00 0. -1.
         22    1    1    2    0    0 -0.32596563735E+02 -0.17860350224E+03 -0.46705056240E+03  0.50109677191E+03  0.00000000000E+00 0. -1.
<mgrwt>
<rscale>  0 0.50581781E+03</rscale>
<asrwt>0</asrwt>
<pdfrwt beam="1">  1        2 0.92368801E-01 0.50581781E+03</pdfrwt>
<pdfrwt beam="2">  1       -2 0.16389897E-01 0.50581781E+03</pdfrwt>
<totfact> 0.14934433E+03</totfact>
</mgrwt>
</event>
<event>
 6    1  0.1568961E-005  0.1388386E+04  0.7818608E-02  0.8962269E-01
         -1   -1    0    0    0  501 -0.00000000000E+00  0.00000000000E+00  0.37827603988E+03  0.37827603988E+03  0.00000000000E+00 0.  1.
          1   -1    0    0  501    0  0.00000000000E+00 -0.00000000000E+00 -0.12739476238E+04  0.12739476238E+04  0.00000000000E+00 0. -1.
         23    2    1    2    0    0 -0.48795592046E+03  0.14181165040E+02 -0.10321923157E+04  0.11453311741E+04  0.89779930871E+02 0.  0.
         11    1    3    3    0    0 -0.21901850611E+03  0.17906774030E+02 -0.56528700901E+03  0.60649745353E+03  0.00000000000E+00 0.  1.
        -11    1    3    3    0    0 -0.26893741434E+03 -0.37256089895E+01 -0.46690530669E+03  0.53883372056E+03  0.00000000000E+00 0. -1.
         22    1    1    2    0    0  0.48795592046E+03 -0.14181165040E+02  0.13652073182E+03  0.50689248956E+03  0.00000000000E+00 0.  1.
<mgrwt>
<rscale>  0 0.13883859E+04</rscale>
<asrwt>0</asrwt>
<pdfrwt beam="1">  1        1 0.19599195E+00 0.13883859E+04</pdfrwt>
<pdfrwt beam="2">  1       -1 0.58196313E-01 0.13883859E+04</pdfrwt>
<totfact> 0.27569675E+01</totfact>
</mgrwt>
</event>
<event>
 6    1  0.1568961E-005  0.2167947E+04  0.7818608E-02  0.8531889E-01
          1   -1    0    0  501    0  0.00000000000E+00  0.00000000000E+00  0.17502181691E+04  0.17502181691E+04  0.00000000000E+00 0. -1.
         -1   -1    0    0    0  501 -0.00000000000E+00 -0.00000000000E+00 -0.67134420980E+03  0.67134420980E+03  0.00000000000E+00 0.  1.
         23    2    1    2    0    0 -0.10528931784E+04  0.21434781960E+03  0.68265462728E+03  0.12763467695E+04  0.92275148586E+02 0.  0.
         13    1    3    3    0    0 -0.28386310177E+03  0.57561589233E+02  0.13666232705E+03  0.32026268708E+03  0.00000000000E+00 0. -1.
        -13    1    3    3    0    0 -0.76903007661E+03  0.15678623036E+03  0.54599230023E+03  0.95608408243E+03  0.00000000000E+00 0.  1.
         22    1    1    2    0    0  0.10528931784E+04 -0.21434781960E+03  0.39621933200E+03  0.11452156094E+04  0.00000000000E+00 0. -1.
<mgrwt>
<rscale>  0 0.21679473E+04</rscale>
<asrwt>0</asrwt>
<pdfrwt beam="1">  1        1 0.26926433E+00 0.21679473E+04</pdfrwt>
<pdfrwt beam="2">  1       -1 0.10328373E+00 0.21679473E+04</pdfrwt>
<totfact> 0.35620147E+00</totfact>
</mgrwt>
</event>
<event>
 6    1  0.1568961E-005  0.2304740E+04  0.7818608E-02  0.8476054E-01
         -2   -1    0    0    0  501 -0.00000000000E+00  0.00000000000E+00  0.11326183696E+04  0.11326183696E+04  0.00000000000E+00 0.  1.
          2   -1    0    0  501    0  0.00000000000E+00 -0.00000000000E+00 -0.11724664213E+04  0.11724664213E+04  0.00000000000E+00 0. -1.
         23    2    1    2    0    0 -0.43996847594E+03  0.26210101970E+03  0.10106044425E+04  0.11364447065E+04  0.88972060338E+02 0.  0.
         13    1    3    3    0    0 -0.12161281360E+03  0.28639808855E+02  0.25097070492E+03  0.28035015572E+03  0.00000000000E+00 0.  1.
        -13    1    3    3    0    0 -0.31835566234E+03  0.23346121084E+03  0.75963373753E+03  0.85609455080E+03  0.00000000000E+00 0. -1.
         22    1    1    2    0    0  0.43996847594E+03 -0.26210101970E+03 -0.10504524942E+04  0.11686400844E+04  0.00000000000E+00 0. -1.
<mgrwt>
<rscale>  0 0.23047403E+04</rscale>
<asrwt>0</asrwt>
<pdfrwt beam="1">  1        2 0.18037945E+00 0.23047403E+04</pdfrwt>
<pdfrwt beam="2">  1       -2 0.17424898E+00 0.23047403E+04</pdfrwt>
<totfact> 0.35464574E+00</totfact>
</mgrwt>
</event>
<event>
 6    1  0.1568961E-005  0.6679408E+03  0.7818608E-02  0.9773685E-01
          1   -1    0    0  501    0  0.00000000000E+00  0.00000000000E+00  0.12129438773E+04  0.12129438773E+04  0.00000000000E+00 0. -1.
         -1   -1    0    0    0  501 -0.00000000000E+00 -0.00000000000E+00 -0.91954971940E+02  0.91954971940E+02  0.00000000000E+00 0.  1.
         23    2    1    2    0    0  0.26697061780E+03  0.10142899443E+03  0.88607307215E+03  0.93510620414E+03  0.87960059934E+02 0.  0.
         13    1    3    3    0    0  0.40004292445E+02  0.45289962279E+02  0.12342392221E+03  0.13742266433E+03  0.00000000000E+00 0. -1.
        -13    1    3    3    0    0  0.22696632535E+03  0.56139032150E+02  0.76264914994E+03  0.79768353980E+03  0.00000000000E+00 0.  1.
         22    1    1    2    0    0 -0.26697061780E+03 -0.10142899443E+03  0.23491583320E+03  0.36979264509E+03  0.00000000000E+00 0.  1.
<mgrwt>
<rscale>  0 0.66794078E+03</rscale>
<asrwt>0</asrwt>
<pdfrwt beam="1">  1        1 0.18660674E+00 0.66794078E+03</pdfrwt>
<pdfrwt beam="2">  1       -1 0.14146920E-01 0.66794078E+03</pdfrwt>
<totfact> 0.38474248E+02</totfact>
</mgrwt>
</event>
<event>
 6    1  0.1568961E-005  0.1428217E+04  0.7818608E-02  0.8933643E-01
         -2   -1    0    0    0  501 -0.00000000000E+00  0.00000000000E+00  0.71289776600E+03  0.71289776600E+03  0.00000000000E+00 0.  1.
          2   -1    0    0  501    0  0.00000000000E+00 -0.00000000000E+00 -0.71532153708E+03  0.71532153708E+03  0.00000000000E+00 0. -1.
         23    2    1    2    0    0 -0.60671658248E+02  0.27719945929E+03 -0.65328137044E+03  0.71819380707E+03  0.92223669424E+02 0.  0.
         11    1    3    3    0    0 -0.75274221571E+00  0.54744251537E+01 -0.87669300901E+02  0.87843282452E+02  0.00000000000E+00 0.  1.
        -11    1    3    3    0    0 -0.59918916033E+02  0.27172503414E+03 -0.56561206954E+03  0.63035052462E+03  0.00000000000E+00 0. -1.
         22    1    1    2    0    0  0.60671658248E+02 -0.27719945929E+03  0.65085759936E+03  0.71002549602E+03  0.00000000000E+00 0.  1.
<mgrwt>
<rscale>  0 0.14282172E+04</rscale>
<asrwt>0</asrwt>
<pdfrwt beam="1">  1        2 0.11004947E+00 0.14282172E+04</pdfrwt>
<pdfrwt beam="2">  1       -2 0.10967658E+00 0.14282172E+04</pdfrwt>
<totfact> 0.25621037E+01</totfact>
</mgrwt>
</event>
<event>
 6    1  0.1568961E-005  0.3949665E+04  0.7818608E-02  0.8014778E-01
          1   -1    0    0  501    0  0.00000000000E+00  0.00000000000E+00  0.31456264175E+04  0.31456264175E+04  0.00000000000E+00 0. -1.
         -1   -1    0    0    0  501 -0.00000000000E+00 -0.00000000000E+00 -0.12398051321E+04  0.12398051321E+04  0.00000000000E+00 0.  1.
         23    2    1    2    0    0 -0.11136139066E+04  0.10885520142E+04 -0.39324748383E+03  0.16085990688E+04  0.88690247811E+02 0.  0.
         13    1    3    3    0    0 -0.87874496116E+03  0.89623565316E+03 -0.34008263871E+03  0.13004181073E+04  0.00000000000E+00 0. -1.
        -13    1    3    3    0    0 -0.23486894544E+03  0.19231636106E+03 -0.53164845126E+02  0.30818096148E+03  0.00000000000E+00 0.  1.
         22    1    1    2    0    0  0.11136139066E+04 -0.10885520142E+04  0.22990687692E+04  0.27768324808E+04  0.00000000000E+00 0. -1.
<mgrwt>
<rscale>  0 0.39496652E+04</rscale>
<asrwt>0</asrwt>
<pdfrwt beam="1">  1        1 0.48394252E+00 0.39496652E+04</pdfrwt>
<pdfrwt beam="2">  1       -1 0.19073925E+00 0.39496652E+04</pdfrwt>
<totfact> 0.63999099E-02</totfact>
</mgrwt>
</event>
<event>
 6    1  0.1568961E-005  0.1727655E+04  0.7818608E-02  0.8745747E-01
         -1   -1    0    0    0  501 -0.00000000000E+00  0.00000000000E+00  0.48155546788E+03  0.48155546788E+03  0.00000000000E+00 0.  1.
          1   -1    0    0  501    0  0.00000000000E+00 -0.00000000000E+00 -0.15495568125E+04  0.15495568125E+04  0.00000000000E+00 0. -1.
         23    2    1    2    0    0 -0.66176586567E+03  0.54604048555E+03 -0.43869895163E+03  0.96710298784E+03  0.82080120033E+02 0.  0.
         13    1    3    3    0    0 -0.40906810571E+03  0.32222981002E+03 -0.30877941907E+03  0.60540358045E+03  0.00000000000E+00 0.  1.
        -13    1    3    3    0    0 -0.25269775995E+03  0.22381067553E+03 -0.12991953256E+03  0.36169940739E+03  0.00000000000E+00 0. -1.
         22    1    1    2    0    0  0.66176586567E+03 -0.54604048555E+03 -0.62930239300E+03  0.10640092926E+04  0.00000000000E+00 0. -1.
<mgrwt>
<rscale>  0 0.17276545E+04</rscale>
<asrwt>0</asrwt>
<pdfrwt beam="1">  1        1 0.23839336E+00 0.17276545E+04</pdfrwt>
<pdfrwt beam="2">  1       -1 0.74085456E-01 0.17276545E+04</pdfrwt>
<totfact> 0.10527083E+01</totfact>
</mgrwt>
</event>
<event>
 6    1  0.1568961E-005  0.1820302E+04  0.7818608E-02  0.8695577E-01
         -2   -1    0    0    0  501 -0.00000000000E+00  0.00000000000E+00  0.21019212070E+03  0.21019212070E+03  0.00000000000E+00 0.  1.
          2   -1    0    0  501    0  0.00000000000E+00 -0.00000000000E+00 -0.39410354337E+04  0.39410354337E+04  0.00000000000E+00 0. -1.
         23    2    1    2    0    0  0.54048065223E+03 -0.13377776268E+03 -0.35054271781E+04  0.35505377351E+04  0.91009239525E+02 0.  0.
         11    1    3    3    0    0  0.37614380357E+03 -0.11460365812E+03 -0.22268891217E+04  0.22613388335E+04  0.00000000000E+00 0.  1.
        -11    1    3    3    0    0  0.16433684866E+03 -0.19174104553E+02 -0.12785380564E+04  0.12891989016E+04  0.00000000000E+00 0. -1.
         22    1    1    2    0    0 -0.54048065223E+03  0.13377776268E+03 -0.22541613491E+03  0.60068981938E+03  0.00000000000E+00 0.  1.
<mgrwt>
<rscale>  0 0.18203017E+04</rscale>
<asrwt>0</asrwt>
<pdfrwt beam="1">  1        2 0.60631310E+00 0.18203017E+04</pdfrwt>
<pdfrwt beam="2">  1       -2 0.32337252E-01 0.18203017E+04</pdfrwt>
<totfact> 0.32453925E+00</totfact>
</mgrwt>
</event>
<event>
 6    1  0.1568961E-005  0.2904396E+04  0.7818608E-02  0.8271571E-01
          2   -1    0    0  501    0  0.00000000000E+00  0.00000000000E+00  0.20718519007E+04  0.20718519007E+04  0.00000000000E+00 0.  1.
         -2   -1    0    0    0  501 -0.00000000000E+00 -0.00000000000E+00 -0.10178713941E+04  0.10178713941E+04  0.00000000000E+00 0. -1.
         23    2    1    2    0    0 -0.86153904866E+01 -0.77018807193E+03 -0.77987474280E+03  0.11006810714E+04  0.10015146213E+03 0.  0.
         13    1    3    3    0    0 -0.20526469164E+02 -0.76867021833E+02 -0.11627490241E+03  0.14088906243E+03  0.00000000000E+00 0. -1.
        -13    1    3    3    0    0  0.11911078677E+02 -0.69332105010E+03 -0.66359984039E+03  0.95979200896E+03  0.00000000000E+00 0.  1.
         22    1    1    2    0    0  0.86153904866E+01  0.77018807193E+03  0.18338552493E+04  0.19890422234E+04  0.00000000000E+00 0.  1.
<mgrwt>
<rscale>  0 0.29043958E+04</rscale>
<asrwt>0</asrwt>
<pdfrwt beam="1">  1        2 0.31874644E+00 0.29043958E+04</pdfrwt>
<pdfrwt beam="2">  1       -2 0.15659560E+00 0.29043958E+04</pdfrwt>
<totfact> 0.14037291E+00</totfact>
</mgrwt>
</event>
<event>
 6    1  0.1568961E-005  0.2227649E+04  0.7818608E-02  0.8507007E-01
          1   -1    0    0  501    0  0.00000000000E+00  0.00000000000E+00  0.14120130434E+04  0.14120130434E+04  0.00000000000E+00 0. -1.
         -1   -1    0    0    0  501 -0.00000000000E+00 -0.00000000000E+00 -0.87860711010E+03  0.87860711010E+03  0.00000000000E+00 0.  1.
         23    2    1    2    0    0  0.77284523087E+03 -0.38925213714E+03  0.98521564961E+03  0.13144342097E+04  0.90996913354E+02 0.  0.
         13    1    3    3    0    0  0.17383109049E+03 -0.88801390148E+02  0.28276059556E+03  0.34359349428E+03  0.00000000000E+00 0. -1.
        -13    1    3    3    0    0  0.59901414038E+03 -0.30045074699E+03  0.70245505405E+03  0.97084071542E+03  0.00000000000E+00 0.  1.
         22    1    1    2    0    0 -0.77284523087E+03  0.38925213714E+03 -0.45180971630E+03  0.97618594381E+03  0.00000000000E+00 0.  1.
<mgrwt>
<rscale>  0 0.22276487E+04</rscale>
<asrwt>0</asrwt>
<pdfrwt beam="1">  1        1 0.21723277E+00 0.22276487E+04</pdfrwt>
<pdfrwt beam="2">  1       -1 0.13517033E+00 0.22276487E+04</pdfrwt>
<totfact> 0.31468604E+00</totfact>
</mgrwt>
</event>
<event>
 6    1  0.1568961E-005  0.8862121E+03  0.7818608E-02  0.9442983E-01
          1   -1    0    0  501    0  0.00000000000E+00  0.00000000000E+00  0.85547576908E+03  0.85547576908E+03  0.00000000000E+00 0. -1.
         -1   -1    0    0    0  501 -0.00000000000E+00 -0.00000000000E+00 -0.22951320096E+03  0.22951320096E+03  0.00000000000E+00 0.  1.
         23    2    1    2    0    0  0.40000872958E+03 -0.11665092303E+03  0.14960941195E+03  0.45211714181E+03  0.91719748095E+02 0.  0.
         11    1    3    3    0    0  0.21826509491E+03 -0.18178775002E+02  0.62136023734E+02  0.22766423734E+03  0.00000000000E+00 0. -1.
        -11    1    3    3    0    0  0.18174363467E+03 -0.98472148030E+02  0.87473388220E+02  0.22445290447E+03  0.00000000000E+00 0.  1.
         22    1    1    2    0    0 -0.40000872958E+03  0.11665092303E+03  0.47635315616E+03  0.63287182823E+03  0.00000000000E+00 0.  1.
<mgrwt>
<rscale>  0 0.88621212E+03</rscale>
<asrwt>0</asrwt>
<pdfrwt beam="1">  1        1 0.13161166E+00 0.88621212E+03</pdfrwt>
<pdfrwt beam="2">  1       -1 0.35309724E-01 0.88621212E+03</pdfrwt>
<totfact> 0.15241053E+02</totfact>
</mgrwt>
</event>
<event>
 6    1  0.1568961E-005  0.2319811E+04  0.7818608E-02  0.8470151E-01
          1   -1    0    0  501    0  0.00000000000E+00  0.00000000000E+00  0.26160769894E+04  0.26160769894E+04  0.00000000000E+00 0. -1.
         -1   -1    0    0    0  501 -0.00000000000E+00 -0.00000000000E+00 -0.51427397780E+03  0.51427397780E+03  0.00000000000E+00 0.  1.
         23    2    1    2    0    0  0.41729855119E+03  0.10744962358E+04  0.12038246333E+04  0.16691715089E+04  0.90881993282E+02 0.  0.
         13    1    3    3    0    0  0.14392496357E+03  0.41358708890E+03  0.51753489403E+03  0.67794619387E+03  0.00000000000E+00 0. -1.
        -13    1    3    3    0    0  0.27337358761E+03  0.66090914692E+03  0.68628973923E+03  0.99122531498E+03  0.00000000000E+00 0.  1.
         22    1    1    2    0    0 -0.41729855119E+03 -0.10744962358E+04  0.89797837837E+03  0.14611794584E+04  0.00000000000E+00 0. -1.
<mgrwt>
<rscale>  0 0.23198106E+04</rscale>
<asrwt>0</asrwt>
<pdfrwt beam="1">  1        1 0.40247337E+00 0.23198106E+04</pdfrwt>
<pdfrwt beam="2">  1       -1 0.79119075E-01 0.23198106E+04</pdfrwt>
<totfact> 0.16202221E+00</totfact>
</mgrwt>
</event>
<event>
 6    1  0.1568961E-005  0.2078224E+04  0.7818608E-02  0.8570897E-01
          2   -1    0    0  501    0  0.00000000000E+00  0.00000000000E+00  0.24921283823E+04  0.24921283823E+04  0.00000000000E+00 0. -1.
         -2   -1    0    0    0  501 -0.00000000000E+00 -0.00000000000E+00 -0.43326575245E+03  0.43326575245E+03  0.00000000000E+00 0.  1.
         23    2    1    2    0    0 -0.31075168510E+03 -0.75977974845E+03  0.19236361937E+04  0.20934578001E+04  0.91419248593E+02 0.  0.
         13    1    3    3    0    0 -0.58279156714E+02 -0.15281238822E+03  0.48257356237E+03  0.50953442396E+03  0.00000000000E+00 0. -1.
        -13    1    3    3    0    0 -0.25247252838E+03 -0.60696736023E+03  0.14410626313E+04  0.15839233761E+04  0.00000000000E+00 0.  1.
         22    1    1    2    0    0  0.31075168510E+03  0.75977974845E+03  0.13522643616E+03  0.83193633469E+03  0.00000000000E+00 0.  1.
<mgrwt>
<rscale>  0 0.20782241E+04</rscale>
<asrwt>0</asrwt>
<pdfrwt beam="1">  1        2 0.38340436E+00 0.20782241E+04</pdfrwt>
<pdfrwt beam="2">  1       -2 0.66656271E-01 0.20782241E+04</pdfrwt>
<totfact> 0.67176806E+00</totfact>
</mgrwt>
</event>
<event>
 6    1  0.1568961E-005  0.2115262E+04  0.7818608E-02  0.8554550E-01
         -2   -1    0    0    0  501 -0.00000000000E+00  0.00000000000E+00  0.92010503425E+03  0.92010503425E+03  0.00000000000E+00 0. -1.
          2   -1    0    0  501    0  0.00000000000E+00 -0.00000000000E+00 -0.12157121956E+04  0.12157121956E+04  0.00000000000E+00 0.  1.
         23    2    1    2    0    0  0.94811765642E+02 -0.12285624892E+03 -0.12025084687E+04  0.12157341303E+04  0.88881547701E+02 0.  0.
         11    1    3    3    0    0  0.70351022127E+02 -0.68579104298E+02 -0.99545951309E+03  0.10002959572E+04  0.00000000000E+00 0. -1.
        -11    1    3    3    0    0  0.24460743516E+02 -0.54277144619E+02 -0.20704895558E+03  0.21543817305E+03  0.00000000000E+00 0.  1.
         22    1    1    2    0    0 -0.94811765642E+02  0.12285624892E+03  0.90690130735E+03  0.92008309954E+03  0.00000000000E+00 0. -1.
<mgrwt>
<rscale>  0 0.21152616E+04</rscale>
<asrwt>0</asrwt>
<pdfrwt beam="1">  1        2 0.18703264E+00 0.21152616E+04</pdfrwt>
<pdfrwt beam="2">  1       -2 0.14155462E+00 0.21152616E+04</pdfrwt>
<totfact> 0.59543789E+00</totfact>
</mgrwt>
</event>
<event>
 6    1  0.1568961E-005  0.2557753E+04  0.7818608E-02  0.8382695E-01
         -2   -1    0    0    0  501 -0.00000000000E+00  0.00000000000E+00  0.16547274300E+04  0.16547274300E+04  0.00000000000E+00 0.  1.
          2   -1    0    0  501    0  0.00000000000E+00 -0.00000000000E+00 -0.98839512940E+03  0.98839512940E+03  0.00000000000E+00 0. -1.
         23    2    1    2    0    0 -0.12785171411E+03 -0.27421050611E+03 -0.94870069059E+03  0.99999474177E+03  0.91755222165E+02 0.  0.
         11    1    3    3    0    0 -0.85913008927E+02 -0.15018256043E+03 -0.39866556189E+03  0.43459185082E+03  0.00000000000E+00 0. -1.
        -11    1    3    3    0    0 -0.41938705179E+02 -0.12402794569E+03 -0.55003512869E+03  0.56540289095E+03  0.00000000000E+00 0.  1.
         22    1    1    2    0    0  0.12785171411E+03  0.27421050611E+03  0.16150329912E+04  0.16431278177E+04  0.00000000000E+00 0.  1.
<mgrwt>
<rscale>  0 0.25577526E+04</rscale>
<asrwt>0</asrwt>
<pdfrwt beam="1">  1        2 0.15206079E+00 0.25577526E+04</pdfrwt>
<pdfrwt beam="2">  1       -2 0.25457345E+00 0.25577526E+04</pdfrwt>
<totfact> 0.13700329E+00</totfact>
</mgrwt>
</event>
<event>
 6    1  0.1568961E-005  0.1044011E+04  0.7818608E-02  0.9261549E-01
          2   -1    0    0  501    0  0.00000000000E+00  0.00000000000E+00  0.11698776587E+04  0.11698776587E+04  0.00000000000E+00 0. -1.
         -2   -1    0    0    0  501 -0.00000000000E+00 -0.00000000000E+00 -0.23292173069E+03  0.23292173069E+03  0.00000000000E+00 0.  1.
         23    2    1    2    0    0 -0.43745151314E+03  0.24477372776E+03  0.29379215079E+03  0.58736229894E+03  0.86038585580E+02 0.  0.
         13    1    3    3    0    0 -0.22379064600E+03  0.84021311815E+02  0.16588251853E+03  0.29096192883E+03  0.00000000000E+00 0. -1.
        -13    1    3    3    0    0 -0.21366086714E+03  0.16075241594E+03  0.12790963226E+03  0.29640037011E+03  0.00000000000E+00 0.  1.
         22    1    1    2    0    0  0.43745151314E+03 -0.24477372776E+03  0.64316377726E+03  0.81543709048E+03  0.00000000000E+00 0. -1.
<mgrwt>
<rscale>  0 0.10440114E+04</rscale>
<asrwt>0</asrwt>
<pdfrwt beam="1">  1        2 0.17998117E+00 0.10440114E+04</pdfrwt>
<pdfrwt beam="2">  1       -2 0.35834113E-01 0.10440114E+04</pdfrwt>
<totfact> 0.14385978E+02</totfact>
</mgrwt>
</event>
<event>
 6    1  0.1568961E-005  0.7354861E+03  0.7818608E-02  0.9658400E-01
         -1   -1    0    0    0  501 -0.00000000000E+00  0.00000000000E+00  0.53295115868E+02  0.53295115868E+02  0.00000000000E+00 0.  1.
          1   -1    0    0  501    0  0.00000000000E+00 -0.00000000000E+00 -0.25374736087E+04  0.25374736087E+04  0.00000000000E+00 0. -1.
         23    2    1    2    0    0 -0.60754756595E+02 -0.10400387057E+03 -0.24639867969E+04  0.24686390798E+04  0.91869612459E+02 0.  0.
         13    1    3    3    0    0 -0.73852376848E+02 -0.40794743559E+02 -0.11662745062E+04  0.11693222860E+04  0.00000000000E+00 0. -1.
        -13    1    3    3    0    0  0.13097620253E+02 -0.63209127008E+02 -0.12977122907E+04  0.12993167938E+04  0.00000000000E+00 0.  1.
         22    1    1    2    0    0  0.60754756595E+02  0.10400387057E+03 -0.20191695962E+02  0.12212964475E+03  0.00000000000E+00 0.  1.
<mgrwt>
<rscale>  0 0.73548610E+03</rscale>
<asrwt>0</asrwt>
<pdfrwt beam="1">  1        1 0.39038049E+00 0.73548610E+03</pdfrwt>
<pdfrwt beam="2">  1       -1 0.81992499E-02 0.73548610E+03</pdfrwt>
<totfact> 0.11505082E+02</totfact>
</mgrwt>
</event>
<event>
 6    1  0.1568961E-005  0.4587486E+04  0.7818608E-02  0.7895497E-01
         -1   -1    0    0    0  501 -0.00000000000E+00  0.00000000000E+00  0.16975103360E+04  0.16975103360E+04  0.00000000000E+00 0.  1.
          1   -1    0    0  501    0  0.00000000000E+00 -0.00000000000E+00 -0.30993961688E+04  0.30993961688E+04  0.00000000000E+00 0. -1.
         23    2    1    2    0    0  0.21850317826E+04 -0.23681538953E+03 -0.13849588901E+04  0.25990138912E+04  0.79477416426E+02 0.  0.
         11    1    3    3    0    0  0.10407344806E+04 -0.79005330678E+02 -0.68238361025E+03  0.12470034053E+04  0.00000000000E+00 0.  1.
        -11    1    3    3    0    0  0.11442973020E+04 -0.15781005885E+03 -0.70257527982E+03  0.13520104859E+04  0.00000000000E+00 0. -1.
         22    1    1    2    0    0 -0.21850317826E+04  0.23681538953E+03 -0.16926942756E+02  0.21978926136E+04  0.00000000000E+00 0.  1.
<mgrwt>
<rscale>  0 0.45874860E+04</rscale>
<asrwt>0</asrwt>
<pdfrwt beam="1">  1        1 0.47683018E+00 0.45874860E+04</pdfrwt>
<pdfrwt beam="2">  1       -1 0.26115544E+00 0.45874860E+04</pdfrwt>
<totfact> 0.22219933E-02</totfact>
</mgrwt>
</event>
<event>
 6    1  0.1568961E-005  0.1320570E+04  0.7818608E-02  0.9013410E-01
          2   -1    0    0  501    0  0.00000000000E+00  0.00000000000E+00  0.15223525368E+04  0.15223525368E+04  0.00000000000E+00 0. -1.
         -2   -1    0    0    0  501 -0.00000000000E+00 -0.00000000000E+00 -0.28638338853E+03  0.28638338853E+03  0.00000000000E+00 0.  1.
         23    2    1    2    0    0 -0.26838588275E+02 -0.58737297967E+03  0.21745564390E+03  0.63268444446E+03  0.85295498886E+02 0.  0.
         13    1    3    3    0    0 -0.92162819651E+01 -0.41412610313E+03  0.11200484442E+03  0.42910424645E+03  0.00000000000E+00 0. -1.
        -13    1    3    3    0    0 -0.17622306310E+02 -0.17324687654E+03  0.10545079949E+03  0.20358019801E+03  0.00000000000E+00 0.  1.
         22    1    1    2    0    0  0.26838588275E+02  0.58737297967E+03  0.10185135044E+04  0.11760514809E+04  0.00000000000E+00 0. -1.
<mgrwt>
<rscale>  0 0.13205703E+04</rscale>
<asrwt>0</asrwt>
<pdfrwt beam="1">  1        2 0.23420808E+00 0.13205703E+04</pdfrwt>
<pdfrwt beam="2">  1       -2 0.44058984E-01 0.13205703E+04</pdfrwt>
<totfact> 0.58939161E+01</totfact>
</mgrwt>
</event>
<event>
 6    1  0.1568961E-005  0.9567435E+03  0.7818608E-02  0.9357303E-01
         -2   -1    0    0    0  501 -0.00000000000E+00  0.00000000000E+00  0.47691792898E+03  0.47691792898E+03  0.00000000000E+00 0. -1.
          2   -1    0    0  501    0  0.00000000000E+00 -0.00000000000E+00 -0.47982995647E+03  0.47982995647E+03  0.00000000000E+00 0.  1.
         23    2    1    2    0    0  0.41055070282E+03 -0.22507734842E+03 -0.76751494139E+02  0.48276058689E+03  0.89192488719E+02 0.  0.
         11    1    3    3    0    0  0.14136861032E+03 -0.32559118516E+02 -0.12193602631E+02  0.14558112558E+03  0.00000000000E+00 0. -1.
        -11    1    3    3    0    0  0.26918209250E+03 -0.19251822991E+03 -0.64557891509E+02  0.33717946131E+03  0.00000000000E+00 0.  1.
         22    1    1    2    0    0 -0.41055070282E+03  0.22507734842E+03  0.73839466655E+02  0.47398729856E+03  0.00000000000E+00 0.  1.
<mgrwt>
<rscale>  0 0.95674345E+03</rscale>
<asrwt>0</asrwt>
<pdfrwt beam="1">  1        2 0.73819993E-01 0.95674345E+03</pdfrwt>
<pdfrwt beam="2">  1       -2 0.73371989E-01 0.95674345E+03</pdfrwt>
<totfact> 0.10843240E+02</totfact>
</mgrwt>
</event>
<event>
 6    1  0.1568961E-005  0.3691090E+04  0.7818608E-02  0.8069939E-01
         -2   -1    0    0    0  501 -0.00000000000E+00  0.00000000000E+00  0.10896186161E+04  0.10896186161E+04  0.00000000000E+00 0.  1.
          2   -1    0    0  501    0  0.00000000000E+00 -0.00000000000E+00 -0.31258982138E+04  0.31258982138E+04  0.00000000000E+00 0. -1.
         23    2    1    2    0    0 -0.11060057736E+04  0.14411281059E+04 -0.65453134835E+03  0.19331217691E+04  0.91921158629E+02 0.  0.
         11    1    3    3    0    0 -0.79415884527E+03  0.10982724531E+04 -0.47659118610E+03  0.14366731749E+04  0.00000000000E+00 0. -1.
        -11    1    3    3    0    0 -0.31184692838E+03  0.34285565271E+03 -0.17794016225E+03  0.49644859419E+03  0.00000000000E+00 0.  1.
         22    1    1    2    0    0  0.11060057736E+04 -0.14411281059E+04 -0.13817482493E+04  0.22823950608E+04  0.00000000000E+00 0. -1.
<mgrwt>
<rscale>  0 0.36910903E+04</rscale>
<asrwt>0</asrwt>
<pdfrwt beam="1">  1        2 0.48090741E+00 0.36910903E+04</pdfrwt>
<pdfrwt beam="2">  1       -2 0.16763364E+00 0.36910903E+04</pdfrwt>
<totfact> 0.25942279E-01</totfact>
</mgrwt>
</event>
<event>
 6    1  0.1568961E-005  0.2165508E+04  0.7818608E-02  0.8532923E-01
          2   -1    0    0  501    0  0.00000000000E+00  0.00000000000E+00  0.16679979019E+04  0.16679979019E+04  0.00000000000E+00 0.  1.
         -2   -1    0    0    0  501 -0.00000000000E+00 -0.00000000000E+00 -0.70285239825E+03  0.70285239825E+03  0.00000000000E+00 0. -1.
         23    2    1    2    0    0 -0.35244208582E+03 -0.73762977619E+03 -0.29066106899E+03  0.87239667775E+03  0.90988986909E+02 0.  0.
         13    1    3    3    0    0 -0.10080331546E+03 -0.15270410078E+03 -0.35331687029E+02  0.18635498092E+03  0.00000000000E+00 0. -1.
        -13    1    3    3    0    0 -0.25163877036E+03 -0.58492567541E+03 -0.25532938196E+03  0.68604169683E+03  0.00000000000E+00 0.  1.
         22    1    1    2    0    0  0.35244208582E+03  0.73762977619E+03  0.12558065726E+04  0.14984536224E+04  0.00000000000E+00 0.  1.
<mgrwt>
<rscale>  0 0.21655081E+04</rscale>
<asrwt>0</asrwt>
<pdfrwt beam="1">  1        2 0.25661506E+00 0.21655081E+04</pdfrwt>
<pdfrwt beam="2">  1       -2 0.10813114E+00 0.21655081E+04</pdfrwt>
<totfact> 0.64147450E+00</totfact>
</mgrwt>
</event>
<event>
 6    1  0.1568961E-005  0.3237806E+04  0.7818608E-02  0.8178904E-01
         -1   -1    0    0    0  501 -0.00000000000E+00  0.00000000000E+00  0.12109297288E+04  0.12109297288E+04  0.00000000000E+00 0.  1.
          1   -1    0    0  501    0  0.00000000000E+00 -0.00000000000E+00 -0.21643255281E+04  0.21643255281E+04  0.00000000000E+00 0. -1.
         23    2    1    2    0    0  0.33578940452E+03  0.80655772701E+03  0.94221944631E+03  0.12879969953E+04  0.88706728511E+02 0.  0.
         13    1    3    3    0    0  0.33618527139E+02  0.76046807684E+02  0.13199528626E+03  0.15600024975E+03  0.00000000000E+00 0. -1.
        -13    1    3    3    0    0  0.30217087738E+03  0.73051091933E+03  0.81022416005E+03  0.11319967455E+04  0.00000000000E+00 0.  1.
         22    1    1    2    0    0 -0.33578940452E+03 -0.80655772701E+03 -0.18956152456E+04  0.20872582616E+04  0.00000000000E+00 0. -1.
<mgrwt>
<rscale>  0 0.32378055E+04</rscale>
<asrwt>0</asrwt>
<pdfrwt beam="1">  1        1 0.33297316E+00 0.32378055E+04</pdfrwt>
<pdfrwt beam="2">  1       -1 0.18629688E+00 0.32378055E+04</pdfrwt>
<totfact> 0.36056152E-01</totfact>
</mgrwt>
</event>
<event>
 6    1  0.1568961E-005  0.5185414E+04  0.7818608E-02  0.7800525E-01
         -2   -1    0    0    0  501 -0.00000000000E+00  0.00000000000E+00  0.30963816017E+04  0.30963816017E+04  0.00000000000E+00 0.  1.
          2   -1    0    0  501    0  0.00000000000E+00 -0.00000000000E+00 -0.21709632099E+04  0.21709632099E+04  0.00000000000E+00 0. -1.
         23    2    1    2    0    0  0.21899525690E+04 -0.57696688001E+02  0.18697726349E+04  0.28817576514E+04  0.96209631427E+02 0.  0.
         11    1    3    3    0    0  0.46775132348E+03 -0.42951162318E+01  0.34946470119E+03  0.58389667409E+03  0.00000000000E+00 0. -1.
        -11    1    3    3    0    0  0.17222012455E+04 -0.53401571769E+02  0.15203079337E+04  0.22978609773E+04  0.00000000000E+00 0.  1.
         22    1    1    2    0    0 -0.21899525690E+04  0.57696688001E+02 -0.94435424309E+03  0.23855871601E+04  0.00000000000E+00 0. -1.
<mgrwt>
<rscale>  0 0.51854144E+04</rscale>
<asrwt>0</asrwt>
<pdfrwt beam="1">  1        2 0.33399434E+00 0.51854144E+04</pdfrwt>
<pdfrwt beam="2">  1       -2 0.47636640E+00 0.51854144E+04</pdfrwt>
<totfact> 0.90144250E-03</totfact>
</mgrwt>
</event>
<event>
 6    1  0.1568961E-005  0.2838641E+04  0.7818608E-02  0.8291371E-01
         -2   -1    0    0    0  501 -0.00000000000E+00  0.00000000000E+00  0.13719219144E+04  0.13719219144E+04  0.00000000000E+00 0.  1.
          2   -1    0    0  501    0  0.00000000000E+00 -0.00000000000E+00 -0.14683568075E+04  0.14683568075E+04  0.00000000000E+00 0. -1.
         23    2    1    2    0    0  0.81620789580E+03  0.91950935848E+03 -0.75485887911E+03  0.14455690980E+04  0.90362051125E+02 0.  0.
         11    1    3    3    0    0  0.20329170301E+03  0.17589318188E+03 -0.15060472565E+03  0.30813586505E+03  0.00000000000E+00 0.  1.
        -11    1    3    3    0    0  0.61291619280E+03  0.74361617660E+03 -0.60425415345E+03  0.11374332330E+04  0.00000000000E+00 0. -1.
         22    1    1    2    0    0 -0.81620789580E+03 -0.91950935848E+03  0.65842398609E+03  0.13947096239E+04  0.00000000000E+00 0. -1.
<mgrwt>
<rscale>  0 0.28386411E+04</rscale>
<asrwt>0</asrwt>
<pdfrwt beam="1">  1        2 0.22590105E+00 0.28386411E+04</pdfrwt>
<pdfrwt beam="2">  1       -2 0.21106491E+00 0.28386411E+04</pdfrwt>
<totfact> 0.12934687E+00</totfact>
</mgrwt>
</event>
<event>
 6    1  0.1568961E-005  0.2657756E+04  0.7818608E-02  0.8348843E-01
          1   -1    0    0  501    0  0.00000000000E+00  0.00000000000E+00  0.33200525623E+04  0.33200525623E+04  0.00000000000E+00 0. -1.
         -1   -1    0    0    0  501 -0.00000000000E+00 -0.00000000000E+00 -0.53189402219E+03  0.53189402219E+03  0.00000000000E+00 0.  1.
         23    2    1    2    0    0  0.92645955549E+03 -0.23605779671E+03  0.61431953305E+02  0.96246765733E+03  0.92301219853E+02 0.  0.
         13    1    3    3    0    0  0.33413164599E+03 -0.11893986621E+03  0.53040241604E+02  0.35861388129E+03  0.00000000000E+00 0. -1.
        -13    1    3    3    0    0  0.59232790950E+03 -0.11711793049E+03  0.83917117016E+01  0.60385377604E+03  0.00000000000E+00 0.  1.
         22    1    1    2    0    0 -0.92645955549E+03  0.23605779671E+03  0.27267265868E+04  0.28894789271E+04  0.00000000000E+00 0. -1.
<mgrwt>
<rscale>  0 0.26577555E+04</rscale>
<asrwt>0</asrwt>
<pdfrwt beam="1">  1        1 0.51077731E+00 0.26577555E+04</pdfrwt>
<pdfrwt beam="2">  1       -1 0.81829851E-01 0.26577555E+04</pdfrwt>
<totfact> 0.44896806E-01</totfact>
</mgrwt>
</event>
<event>
 6    1  0.1568961E-005  0.4888650E+04  0.7818608E-02  0.7845917E-01
          1   -1    0    0  501    0  0.00000000000E+00  0.00000000000E+00  0.30828579002E+04  0.30828579002E+04  0.00000000000E+00 0. -1.
         -1   -1    0    0    0  501 -0.00000000000E+00 -0.00000000000E+00 -0.19380471560E+04  0.19380471560E+04  0.00000000000E+00 0.  1.
         23    2    1    2    0    0  0.76598467678E+03  0.21897649568E+04 -0.21580500707E+03  0.23314667666E+04  0.85804381705E+02 0.  0.
         13    1    3    3    0    0  0.57908069347E+02  0.14715963035E+03 -0.35711048289E+02  0.16212519937E+03  0.00000000000E+00 0.  1.
        -13    1    3    3    0    0  0.70807660743E+03  0.20426053264E+04 -0.18009395878E+03  0.21693415673E+04  0.00000000000E+00 0. -1.
         22    1    1    2    0    0 -0.76598467678E+03 -0.21897649568E+04  0.13606157512E+04  0.26894382896E+04  0.00000000000E+00 0.  1.
<mgrwt>
<rscale>  0 0.48886497E+04</rscale>
<asrwt>0</asrwt>
<pdfrwt beam="1">  1        1 0.47428583E+00 0.48886497E+04</pdfrwt>
<pdfrwt beam="2">  1       -1 0.29816110E+00 0.48886497E+04</pdfrwt>
<totfact> 0.12843251E-02</totfact>
</mgrwt>
</event>
<event>
 6    1  0.1568961E-005  0.2044148E+04  0.7818608E-02  0.8586254E-01
          1   -1    0    0  501    0  0.00000000000E+00  0.00000000000E+00  0.22291985320E+04  0.22291985320E+04  0.00000000000E+00 0. -1.
         -1   -1    0    0    0  501 -0.00000000000E+00 -0.00000000000E+00 -0.46861466075E+03  0.46861466075E+03  0.00000000000E+00 0.  1.
         23    2    1    2    0    0 -0.38071964654E+03 -0.69099071789E+03  0.17354085532E+04  0.19084783981E+04  0.90726666823E+02 0.  0.
         11    1    3    3    0    0 -0.21597345914E+03 -0.35212904247E+03  0.80854315306E+03  0.90795452968E+03  0.00000000000E+00 0. -1.
        -11    1    3    3    0    0 -0.16474618739E+03 -0.33886167542E+03  0.92686540010E+03  0.10005238684E+04  0.00000000000E+00 0.  1.
         22    1    1    2    0    0  0.38071964654E+03  0.69099071789E+03  0.25175318113E+02  0.78933479469E+03  0.00000000000E+00 0.  1.
<mgrwt>
<rscale>  0 0.20441479E+04</rscale>
<asrwt>0</asrwt>
<pdfrwt beam="1">  1        1 0.34295361E+00 0.20441479E+04</pdfrwt>
<pdfrwt beam="2">  1       -1 0.72094565E-01 0.20441479E+04</pdfrwt>
<totfact> 0.37332027E+00</totfact>
</mgrwt>
</event>
<event>
 6    1  0.1568961E-005  0.2107785E+04  0.7818608E-02  0.8557822E-01
          1   -1    0    0  501    0  0.00000000000E+00  0.00000000000E+00  0.28457550393E+04  0.28457550393E+04  0.00000000000E+00 0. -1.
         -1   -1    0    0    0  501 -0.00000000000E+00 -0.00000000000E+00 -0.39029700794E+03  0.39029700794E+03  0.00000000000E+00 0.  1.
         23    2    1    2    0    0  0.92281172185E+03 -0.47432723329E+03  0.14957330654E+04  0.18226731849E+04  0.91391125665E+02 0.  0.
         13    1    3    3    0    0  0.38011815074E+03 -0.15227731605E+03  0.54890626514E+03  0.68481842660E+03  0.00000000000E+00 0. -1.
        -13    1    3    3    0    0  0.54269357110E+03 -0.32204991724E+03  0.94682680030E+03  0.11378547583E+04  0.00000000000E+00 0.  1.
         22    1    1    2    0    0 -0.92281172185E+03  0.47432723329E+03  0.95972496595E+03  0.14133788623E+04  0.00000000000E+00 0.  1.
<mgrwt>
<rscale>  0 0.21077853E+04</rscale>
<asrwt>0</asrwt>
<pdfrwt beam="1">  1        1 0.43780845E+00 0.21077853E+04</pdfrwt>
<pdfrwt beam="2">  1       -1 0.60045695E-01 0.21077853E+04</pdfrwt>
<totfact> 0.19994725E+00</totfact>
</mgrwt>
</event>
<event>
 6    1  0.1568961E-005  0.3047596E+04  0.7818608E-02  0.8230269E-01
         -2   -1    0    0    0  501 -0.00000000000E+00  0.00000000000E+00  0.85715687376E+03  0.85715687376E+03  0.00000000000E+00 0.  1.
          2   -1    0    0  501    0  0.00000000000E+00 -0.00000000000E+00 -0.27089095439E+04  0.27089095439E+04  0.00000000000E+00 0. -1.
         23    2    1    2    0    0  0.10805786160E+04  0.97886621342E+03 -0.14395506602E+04  0.20508965571E+04  0.89673717939E+02 0.  0.
         11    1    3    3    0    0  0.44996659495E+03  0.46767877421E+03 -0.64220536826E+03  0.91302853594E+03  0.00000000000E+00 0.  1.
        -11    1    3    3    0    0  0.63061202109E+03  0.51118743922E+03 -0.79734529189E+03  0.11378680212E+04  0.00000000000E+00 0. -1.
         22    1    1    2    0    0 -0.10805786160E+04 -0.97886621342E+03 -0.41220201001E+03  0.15151698605E+04  0.00000000000E+00 0. -1.
<mgrwt>
<rscale>  0 0.30475961E+04</rscale>
<asrwt>0</asrwt>
<pdfrwt beam="1">  1        2 0.41675531E+00 0.30475961E+04</pdfrwt>
<pdfrwt beam="2">  1       -2 0.13187029E+00 0.30475961E+04</pdfrwt>
<totfact> 0.93647077E-01</totfact>
</mgrwt>
</event>
<event>
 6    1  0.1568961E-005  0.1346174E+04  0.7818608E-02  0.8993729E-01
         -2   -1    0    0    0  501 -0.00000000000E+00  0.00000000000E+00  0.43703654767E+03  0.43703654767E+03  0.00000000000E+00 0.  1.
          2   -1    0    0  501    0  0.00000000000E+00 -0.00000000000E+00 -0.10366323158E+04  0.10366323158E+04  0.00000000000E+00 0. -1.
         23    2    1    2    0    0  0.17422961938E+03 -0.64486804980E+03 -0.35866592652E+03  0.76355763946E+03  0.90378426756E+02 0.  0.
         11    1    3    3    0    0  0.12721516436E+03 -0.30005868626E+03 -0.18187980916E+03  0.37322805123E+03  0.00000000000E+00 0. -1.
        -11    1    3    3    0    0  0.47014455020E+02 -0.34480936353E+03 -0.17678611736E+03  0.39032958824E+03  0.00000000000E+00 0.  1.
         22    1    1    2    0    0 -0.17422961938E+03  0.64486804980E+03 -0.24092984166E+03  0.71011122405E+03  0.00000000000E+00 0. -1.
<mgrwt>
<rscale>  0 0.13461741E+04</rscale>
<asrwt>0</asrwt>
<pdfrwt beam="1">  1        2 0.15948189E+00 0.13461741E+04</pdfrwt>
<pdfrwt beam="2">  1       -2 0.67236393E-01 0.13461741E+04</pdfrwt>
<totfact> 0.47332133E+01</totfact>
</mgrwt>
</event>
<event>
 6    1  0.1568961E-005  0.4534980E+04  0.7818608E-02  0.7904541E-01
         -2   -1    0    0    0  501 -0.00000000000E+00  0.00000000000E+00  0.12670051267E+04  0.12670051267E+04  0.00000000000E+00 0. -1.
          2   -1    0    0  501    0  0.00000000000E+00 -0.00000000000E+00 -0.40580031708E+04  0.40580031708E+04  0.00000000000E+00 0.  1.
         23    2    1    2    0    0 -0.12644480060E+04 -0.14902064668E+04 -0.48086303734E+02  0.19570550779E+04  0.90599182673E+02 0.  0.
         13    1    3    3    0    0 -0.10354020410E+04 -0.12580502060E+04 -0.63358239643E+02  0.16305710576E+04  0.00000000000E+00 0. -1.
        -13    1    3    3    0    0 -0.22904596508E+03 -0.23215626080E+03  0.15271935909E+02  0.32648402039E+03  0.00000000000E+00 0.  1.
         22    1    1    2    0    0  0.12644480060E+04  0.14902064668E+04 -0.27429117403E+04  0.33679532195E+04  0.00000000000E+00 0.  1.
<mgrwt>
<rscale>  0 0.45349800E+04</rscale>
<asrwt>0</asrwt>
<pdfrwt beam="1">  1        2 0.62430819E+00 0.45349800E+04</pdfrwt>
<pdfrwt beam="2">  1       -2 0.19492386E+00 0.45349800E+04</pdfrwt>
<totfact> 0.33143611E-02</totfact>
</mgrwt>
</event>
<event>
 6    1  0.1568961E-005  0.3110401E+04  0.7818608E-02  0.8212889E-01
         -4   -1    0    0    0  501 -0.00000000000E+00  0.00000000000E+00  0.11779617798E+04  0.11779617798E+04  0.00000000000E+00 0.  1.
          4   -1    0    0  501    0  0.00000000000E+00 -0.00000000000E+00 -0.20532489488E+04  0.20532489488E+04  0.00000000000E+00 0. -1.
         23    2    1    2    0    0  0.51446595871E+03 -0.91628192407E+02  0.10821489636E+04  0.12052227815E+04  0.91894642462E+02 0.  0.
         11    1    3    3    0    0  0.38405410245E+03 -0.27185755512E+02  0.79576960860E+03  0.88401690531E+03  0.00000000000E+00 0.  1.
        -11    1    3    3    0    0  0.13041185626E+03 -0.64442436894E+02  0.28637935499E+03  0.32120587618E+03  0.00000000000E+00 0. -1.
         22    1    1    2    0    0 -0.51446595871E+03  0.91628192407E+02 -0.19574361327E+04  0.20259879471E+04  0.00000000000E+00 0. -1.
<mgrwt>
<rscale>  0 0.31104011E+04</rscale>
<asrwt>0</asrwt>
<pdfrwt beam="1">  1        4 0.31588445E+00 0.31104011E+04</pdfrwt>
<pdfrwt beam="2">  1       -4 0.18122489E+00 0.31104011E+04</pdfrwt>
<totfact> 0.72749293E-03</totfact>
</mgrwt>
</event>
<event>
 6    1  0.1568961E-005  0.1310901E+04  0.7818608E-02  0.9020965E-01
          1   -1    0    0  501    0  0.00000000000E+00  0.00000000000E+00  0.27750257688E+04  0.27750257688E+04  0.00000000000E+00 0. -1.
         -1   -1    0    0    0  501 -0.00000000000E+00 -0.00000000000E+00 -0.15481495973E+03  0.15481495973E+03  0.00000000000E+00 0.  1.
         23    2    1    2    0    0 -0.34457097424E+03  0.12235342174E+03  0.25237671405E+04  0.25516861341E+04  0.89454071436E+02 0.  0.
         13    1    3    3    0    0 -0.32553518510E+03  0.92186448280E+02  0.23559222574E+04  0.23800926833E+04  0.00000000000E+00 0. -1.
        -13    1    3    3    0    0 -0.19035789135E+02  0.30166973460E+02  0.16784488312E+03  0.17159345077E+03  0.00000000000E+00 0.  1.
         22    1    1    2    0    0  0.34457097424E+03 -0.12235342174E+03  0.96443668479E+02  0.37815459443E+03  0.00000000000E+00 0.  1.
<mgrwt>
<rscale>  0 0.13109012E+04</rscale>
<asrwt>0</asrwt>
<pdfrwt beam="1">  1        1 0.42692700E+00 0.13109012E+04</pdfrwt>
<pdfrwt beam="2">  1       -1 0.23817688E-01 0.13109012E+04</pdfrwt>
<totfact> 0.13066293E+01</totfact>
</mgrwt>
</event>
<event>
 6    1  0.1682290E-005  0.3135946E+04  0.7818608E-02  0.8205942E-01
         -2   -1    0    0    0  501 -0.00000000000E+00  0.00000000000E+00  0.13596619651E+04  0.13596619651E+04  0.00000000000E+00 0.  1.
          2   -1    0    0  501    0  0.00000000000E+00 -0.00000000000E+00 -0.18081987550E+04  0.18081987550E+04  0.00000000000E+00 0. -1.
         23    2    1    2    0    0  0.15514987719E+04 -0.19725398704E+03 -0.12959358952E+03  0.15716833052E+04  0.85652431788E+02 0.  0.
         11    1    3    3    0    0  0.76350057468E+03 -0.70299357832E+02 -0.97199671041E+02  0.77286667887E+03  0.00000000000E+00 0. -1.
        -11    1    3    3    0    0  0.78799819717E+03 -0.12695462921E+03 -0.32393918483E+02  0.79881662638E+03  0.00000000000E+00 0.  1.
         22    1    1    2    0    0 -0.15514987719E+04  0.19725398704E+03 -0.31894320035E+03  0.15961774148E+04  0.00000000000E+00 0.  1.
<mgrwt>
<rscale>  0 0.31359458E+04</rscale>
<asrwt>0</asrwt>
<pdfrwt beam="1">  1        2 0.27818442E+00 0.31359458E+04</pdfrwt>
<pdfrwt beam="2">  1       -2 0.20917876E+00 0.31359458E+04</pdfrwt>
<totfact> 0.83792215E-01</totfact>
</mgrwt>
</event>
<event>
 6    1  0.1568961E-005  0.1279811E+04  0.7818608E-02  0.9045731E-01
         -2   -1    0    0    0  501 -0.00000000000E+00  0.00000000000E+00  0.49303395556E+03  0.49303395556E+03  0.00000000000E+00 0.  1.
          2   -1    0    0  501    0  0.00000000000E+00 -0.00000000000E+00 -0.83052850655E+03  0.83052850655E+03  0.00000000000E+00 0. -1.
         23    2    1    2    0    0  0.13586111211E+03  0.62421126073E+01  0.47382685230E+03  0.50092060494E+03  0.88951451588E+02 0.  0.
         13    1    3    3    0    0  0.12569653747E+03 -0.26211903546E+02  0.38162876142E+03  0.40265021416E+03  0.00000000000E+00 0. -1.
        -13    1    3    3    0    0  0.10164574633E+02  0.32454016154E+02  0.92198090876E+02  0.98270390776E+02  0.00000000000E+00 0.  1.
         22    1    1    2    0    0 -0.13586111211E+03 -0.62421126073E+01 -0.81132140328E+03  0.82264185717E+03  0.00000000000E+00 0. -1.
<mgrwt>
<rscale>  0 0.12798105E+04</rscale>
<asrwt>0</asrwt>
<pdfrwt beam="1">  1        2 0.12777362E+00 0.12798105E+04</pdfrwt>
<pdfrwt beam="2">  1       -2 0.75851378E-01 0.12798105E+04</pdfrwt>
<totfact> 0.50087233E+01</totfact>
</mgrwt>
</event>
<event>
 6    1  0.1568961E-005  0.1691257E+04  0.7818608E-02  0.8766367E-01
         -1   -1    0    0    0  501 -0.00000000000E+00  0.00000000000E+00  0.14475559790E+04  0.14475559790E+04  0.00000000000E+00 0.  1.
          1   -1    0    0  501    0  0.00000000000E+00 -0.00000000000E+00 -0.49399632647E+03  0.49399632647E+03  0.00000000000E+00 0. -1.
         23    2    1    2    0    0  0.64754429827E+03  0.41026970734E+03  0.88121297899E+03  0.11715725056E+04  0.91711344282E+02 0.  0.
         13    1    3    3    0    0  0.41278090835E+03  0.31230144523E+03  0.58487063868E+03  0.78102108485E+03  0.00000000000E+00 0.  1.
        -13    1    3    3    0    0  0.23476338992E+03  0.97968262111E+02  0.29634234031E+03  0.39055142080E+03  0.00000000000E+00 0. -1.
         22    1    1    2    0    0 -0.64754429827E+03 -0.41026970734E+03  0.72346673549E+02  0.76997979984E+03  0.00000000000E+00 0. -1.
<mgrwt>
<rscale>  0 0.16912567E+04</rscale>
<asrwt>0</asrwt>
<pdfrwt beam="1">  1        1 0.75999436E-01 0.16912567E+04</pdfrwt>
<pdfrwt beam="2">  1       -1 0.22270092E+00 0.16912567E+04</pdfrwt>
<totfact> 0.45302180E+00</totfact>
</mgrwt>
</event>
<event>
 6    1  0.1568961E-005  0.1674134E+04  0.7818608E-02  0.8776256E-01
          2   -1    0    0  501    0  0.00000000000E+00  0.00000000000E+00  0.25923015914E+04  0.25923015914E+04  0.00000000000E+00 0. -1.
         -2   -1    0    0    0  501 -0.00000000000E+00 -0.00000000000E+00 -0.27029295323E+03  0.27029295323E+03  0.00000000000E+00 0.  1.
         23    2    1    2    0    0 -0.77765580501E+03  0.17940514063E+03  0.15819986324E+04  0.17742244034E+04  0.90652111893E+02 0.  0.
         13    1    3    3    0    0 -0.17731369177E+03  0.76954857793E+02  0.41796940695E+03  0.46050040236E+03  0.00000000000E+00 0.  1.
        -13    1    3    3    0    0 -0.60034211324E+03  0.10245028284E+03  0.11640292254E+04  0.13137240011E+04  0.00000000000E+00 0. -1.
         22    1    1    2    0    0  0.77765580501E+03 -0.17940514063E+03  0.74001000579E+03  0.10883701412E+04  0.00000000000E+00 0.  1.
<mgrwt>
<rscale>  0 0.16741336E+04</rscale>
<asrwt>0</asrwt>
<pdfrwt beam="1">  1        2 0.39881561E+00 0.16741336E+04</pdfrwt>
<pdfrwt beam="2">  1       -2 0.41583533E-01 0.16741336E+04</pdfrwt>
<totfact> 0.16101582E+01</totfact>
</mgrwt>
</event>
<event>
 6    1  0.1568961E-005  0.3404140E+04  0.7818608E-02  0.8136891E-01
         -2   -1    0    0    0  501 -0.00000000000E+00  0.00000000000E+00  0.89809663736E+03  0.89809663736E+03  0.00000000000E+00 0.  1.
          2   -1    0    0  501    0  0.00000000000E+00 -0.00000000000E+00 -0.32257571508E+04  0.32257571508E+04  0.00000000000E+00 0. -1.
         23    2    1    2    0    0 -0.86084381622E+03  0.12925636669E+04 -0.20048188573E+04  0.25376634957E+04  0.93083070636E+02 0.  0.
         13    1    3    3    0    0 -0.52632811027E+03  0.74554397179E+03 -0.12399217471E+04  0.15395658585E+04  0.00000000000E+00 0. -1.
        -13    1    3    3    0    0 -0.33451570595E+03  0.54701969511E+03 -0.76489711014E+03  0.99809763724E+03  0.00000000000E+00 0.  1.
         22    1    1    2    0    0  0.86084381622E+03 -0.12925636669E+04 -0.32284165617E+03  0.15861902925E+04  0.00000000000E+00 0. -1.
<mgrwt>
<rscale>  0 0.34041396E+04</rscale>
<asrwt>0</asrwt>
<pdfrwt beam="1">  1        2 0.49627033E+00 0.34041396E+04</pdfrwt>
<pdfrwt beam="2">  1       -2 0.13816871E+00 0.34041396E+04</pdfrwt>
<totfact> 0.38350934E-01</totfact>
</mgrwt>
</event>
<event>
 6    1  0.1568961E-005  0.3578253E+04  0.7818608E-02  0.8095491E-01
          2   -1    0    0  501    0  0.00000000000E+00  0.00000000000E+00  0.25405258333E+04  0.25405258333E+04  0.00000000000E+00 0. -1.
         -2   -1    0    0    0  501 -0.00000000000E+00 -0.00000000000E+00 -0.12599651637E+04  0.12599651637E+04  0.00000000000E+00 0.  1.
         23    2    1    2    0    0  0.13845749403E+04 -0.11193060090E+04  0.81322584592E+03  0.19597586579E+04  0.97077359844E+02 0.  0.
         11    1    3    3    0    0  0.55093280264E+03 -0.49934022816E+03  0.36459460478E+03  0.82812851799E+03  0.00000000000E+00 0. -1.
        -11    1    3    3    0    0  0.83364213765E+03 -0.61996578083E+03  0.44863124114E+03  0.11316301399E+04  0.00000000000E+00 0.  1.
         22    1    1    2    0    0 -0.13845749403E+04  0.11193060090E+04  0.46733482370E+03  0.18407323392E+04  0.00000000000E+00 0. -1.
<mgrwt>
<rscale>  0 0.35782532E+04</rscale>
<asrwt>0</asrwt>
<pdfrwt beam="1">  1        2 0.39085013E+00 0.35782532E+04</pdfrwt>
<pdfrwt beam="2">  1       -2 0.19384079E+00 0.35782532E+04</pdfrwt>
<totfact> 0.39324972E-01</totfact>
</mgrwt>
</event>
<event>
 6    1  0.1568961E-005  0.8703367E+03  0.7818608E-02  0.9463441E-01
         -1   -1    0    0    0  501 -0.00000000000E+00  0.00000000000E+00  0.46786685422E+02  0.46786685422E+02  0.00000000000E+00 0.  1.
          1   -1    0    0  501    0  0.00000000000E+00 -0.00000000000E+00 -0.40475507215E+04  0.40475507215E+04  0.00000000000E+00 0. -1.
         23    2    1    2    0    0 -0.17837482283E+02  0.16162891479E+02 -0.40438182267E+04  0.40450111647E+04  0.95236849068E+02 0.  0.
         13    1    3    3    0    0 -0.31223497231E+02  0.50716959847E+02 -0.21216040327E+04  0.21224398197E+04  0.00000000000E+00 0. -1.
        -13    1    3    3    0    0  0.13386014948E+02 -0.34554068367E+02 -0.19222141940E+04  0.19225713450E+04  0.00000000000E+00 0.  1.
         22    1    1    2    0    0  0.17837482283E+02 -0.16162891479E+02  0.43054190637E+02  0.49326242169E+02  0.00000000000E+00 0.  1.
<mgrwt>
<rscale>  0 0.87033668E+03</rscale>
<asrwt>0</asrwt>
<pdfrwt beam="1">  1        1 0.62270017E+00 0.87033668E+03</pdfrwt>
<pdfrwt beam="2">  1       -1 0.71979509E-02 0.87033668E+03</pdfrwt>
<totfact> 0.99243655E+00</totfact>
</mgrwt>
</event>
<event>
 6    1  0.1568961E-005  0.1181178E+04  0.7818608E-02  0.9129493E-01
         -1   -1    0    0    0  501 -0.00000000000E+00  0.00000000000E+00  0.19359865515E+03  0.19359865515E+03  0.00000000000E+00 0.  1.
          1   -1    0    0  501    0  0.00000000000E+00 -0.00000000000E+00 -0.18016418748E+04  0.18016418748E+04  0.00000000000E+00 0. -1.
         23    2    1    2    0    0 -0.30436739150E+03  0.83071936857E+02  0.33930101828E+02  0.32323070815E+03  0.61533593952E+02 0.  0.
         13    1    3    3    0    0 -0.23437058103E+03  0.86434899035E+02  0.13192460959E+02  0.25014915960E+03  0.00000000000E+00 0.  1.
        -13    1    3    3    0    0 -0.69996810464E+02 -0.33629621774E+01  0.20737640869E+02  0.73081548551E+02  0.00000000000E+00 0. -1.
         22    1    1    2    0    0  0.30436739150E+03 -0.83071936857E+02 -0.16419733214E+04  0.16720098218E+04  0.00000000000E+00 0. -1.
<mgrwt>
<rscale>  0 0.11811781E+04</rscale>
<asrwt>0</asrwt>
<pdfrwt beam="1">  1        1 0.27717568E+00 0.11811781E+04</pdfrwt>
<pdfrwt beam="2">  1       -1 0.29784408E-01 0.11811781E+04</pdfrwt>
<totfact> 0.41651779E+01</totfact>
</mgrwt>
</event>
<event>
 6    1  0.1568961E-005  0.1190501E+04  0.7818608E-02  0.9121212E-01
         -2   -1    0    0    0  501 -0.00000000000E+00  0.00000000000E+00  0.96288912401E+02  0.96288912401E+02  0.00000000000E+00 0. -1.
          2   -1    0    0  501    0  0.00000000000E+00 -0.00000000000E+00 -0.36797941115E+04  0.36797941115E+04  0.00000000000E+00 0.  1.
         23    2    1    2    0    0 -0.40003811691E+03 -0.43394361437E+03 -0.19436352651E+04  0.20332373750E+04  0.89435026431E+02 0.  0.
         11    1    3    3    0    0 -0.18638024969E+03 -0.23932513797E+03 -0.86914745059E+03  0.92056037825E+03  0.00000000000E+00 0. -1.
        -11    1    3    3    0    0 -0.21365786722E+03 -0.19461847641E+03 -0.10744878145E+04  0.11126769967E+04  0.00000000000E+00 0.  1.
         22    1    1    2    0    0  0.40003811691E+03  0.43394361437E+03 -0.16398699341E+04  0.17428456490E+04  0.00000000000E+00 0.  1.
<mgrwt>
<rscale>  0 0.11905014E+04</rscale>
<asrwt>0</asrwt>
<pdfrwt beam="1">  1        2 0.56612216E+00 0.11905014E+04</pdfrwt>
<pdfrwt beam="2">  1       -2 0.14813679E-01 0.11905014E+04</pdfrwt>
<totfact> 0.22068305E+01</totfact>
</mgrwt>
</event>
<event>
 6    1  0.1568961E-005  0.2975189E+04  0.7818608E-02  0.8250851E-01
         -1   -1    0    0    0  501 -0.00000000000E+00  0.00000000000E+00  0.13446421683E+04  0.13446421683E+04  0.00000000000E+00 0. -1.
          1   -1    0    0  501    0  0.00000000000E+00 -0.00000000000E+00 -0.16457445810E+04  0.16457445810E+04  0.00000000000E+00 0.  1.
         23    2    1    2    0    0  0.13950666527E+04 -0.26716558113E+03 -0.59018937747E+03  0.15408490000E+04  0.91124784480E+02 0.  0.
         13    1    3    3    0    0  0.86589278005E+03 -0.19518842176E+03 -0.33215056252E+03  0.94773035338E+03  0.00000000000E+00 0. -1.
        -13    1    3    3    0    0  0.52917387269E+03 -0.71977159376E+02 -0.25803881495E+03  0.59311864667E+03  0.00000000000E+00 0.  1.
         22    1    1    2    0    0 -0.13950666527E+04  0.26716558113E+03  0.28908696484E+03  0.14495377493E+04  0.00000000000E+00 0. -1.
<mgrwt>
<rscale>  0 0.29751891E+04</rscale>
<asrwt>0</asrwt>
<pdfrwt beam="1">  1        1 0.25319147E+00 0.29751891E+04</pdfrwt>
<pdfrwt beam="2">  1       -1 0.20686803E+00 0.29751891E+04</pdfrwt>
<totfact> 0.59783082E-01</totfact>
</mgrwt>
</event>
<event>
 6    1  0.1568961E-005  0.3717615E+04  0.7818608E-02  0.8064069E-01
         -2   -1    0    0    0  501 -0.00000000000E+00  0.00000000000E+00  0.18742134753E+04  0.18742134753E+04  0.00000000000E+00 0.  1.
          2   -1    0    0  501    0  0.00000000000E+00 -0.00000000000E+00 -0.18435279159E+04  0.18435279159E+04  0.00000000000E+00 0. -1.
         23    2    1    2    0    0  0.85911668466E+02  0.18557166888E+04  0.12530828278E+02  0.18599483893E+04  0.90475110488E+02 0.  0.
         11    1    3    3    0    0  0.81499991696E+02  0.93318174958E+03  0.30453742796E+02  0.93722881776E+03  0.00000000000E+00 0.  1.
        -11    1    3    3    0    0  0.44116767695E+01  0.92253493919E+03 -0.17922914518E+02  0.92271957158E+03  0.00000000000E+00 0. -1.
         22    1    1    2    0    0 -0.85911668466E+02 -0.18557166888E+04  0.18154731120E+02  0.18577930019E+04  0.00000000000E+00 0.  1.
<mgrwt>
<rscale>  0 0.37176148E+04</rscale>
<asrwt>0</asrwt>
<pdfrwt beam="1">  1        2 0.28361968E+00 0.37176148E+04</pdfrwt>
<pdfrwt beam="2">  1       -2 0.28834053E+00 0.37176148E+04</pdfrwt>
<totfact> 0.24676753E-01</totfact>
</mgrwt>
</event>
<event>
 6    1  0.1568961E-005  0.2456890E+04  0.7818608E-02  0.8418507E-01
          2   -1    0    0  501    0  0.00000000000E+00  0.00000000000E+00  0.27891386005E+04  0.27891386005E+04  0.00000000000E+00 0.  1.
         -2   -1    0    0    0  501 -0.00000000000E+00 -0.00000000000E+00 -0.54105487691E+03  0.54105487691E+03  0.00000000000E+00 0. -1.
         23    2    1    2    0    0  0.39649784350E+03 -0.53718041162E+03  0.25205070483E+04  0.26090916799E+04  0.92899294423E+02 0.  0.
         11    1    3    3    0    0  0.84708558157E+02 -0.18659375730E+03  0.76598476849E+03  0.79292208675E+03  0.00000000000E+00 0. -1.
        -11    1    3    3    0    0  0.31178928534E+03 -0.35058665432E+03  0.17545222798E+04  0.18161695931E+04  0.00000000000E+00 0.  1.
         22    1    1    2    0    0 -0.39649784350E+03  0.53718041162E+03 -0.27242332474E+03  0.72110179752E+03  0.00000000000E+00 0. -1.
<mgrwt>
<rscale>  0 0.24568899E+04</rscale>
<asrwt>0</asrwt>
<pdfrwt beam="1">  1        2 0.42909824E+00 0.24568899E+04</pdfrwt>
<pdfrwt beam="2">  1       -2 0.83239214E-01 0.24568899E+04</pdfrwt>
<totfact> 0.26553299E+00</totfact>
</mgrwt>
</event>
<event>
 6    1  0.1568961E-005  0.1494659E+04  0.7818608E-02  0.8888012E-01
         -2   -1    0    0    0  501 -0.00000000000E+00  0.00000000000E+00  0.36656757832E+03  0.36656757832E+03  0.00000000000E+00 0.  1.
          2   -1    0    0  501    0  0.00000000000E+00 -0.00000000000E+00 -0.15235976700E+04  0.15235976700E+04  0.00000000000E+00 0. -1.
         23    2    1    2    0    0  0.45700047553E+03 -0.43669699224E+03 -0.82630413019E+02  0.64361466083E+03  0.88647328303E+02 0.  0.
         11    1    3    3    0    0  0.28998641899E+03 -0.23220351853E+03 -0.18765056953E+02  0.37197140290E+03  0.00000000000E+00 0.  1.
        -11    1    3    3    0    0  0.16701405654E+03 -0.20449347371E+03 -0.63865356066E+02  0.27164325792E+03  0.00000000000E+00 0. -1.
         22    1    1    2    0    0 -0.45700047553E+03  0.43669699224E+03 -0.10743996786E+04  0.12465505874E+04  0.00000000000E+00 0. -1.
<mgrwt>
<rscale>  0 0.14946592E+04</rscale>
<asrwt>0</asrwt>
<pdfrwt beam="1">  1        2 0.23439964E+00 0.14946592E+04</pdfrwt>
<pdfrwt beam="2">  1       -2 0.56395013E-01 0.14946592E+04</pdfrwt>
<totfact> 0.35103902E+01</totfact>
</mgrwt>
</event>
<event>
 6    1  0.1568961E-005  0.2548090E+04  0.7818608E-02  0.8386051E-01
          2   -1    0    0  501    0  0.00000000000E+00  0.00000000000E+00  0.11710040642E+04  0.11710040642E+04  0.00000000000E+00 0.  1.
         -2   -1    0    0    0  501 -0.00000000000E+00 -0.00000000000E+00 -0.13861527871E+04  0.13861527871E+04  0.00000000000E+00 0. -1.
         23    2    1    2    0    0 -0.87146453211E+03  0.20653380331E+03  0.79940727252E+03  0.12038532969E+04  0.90022943875E+02 0.  0.
         11    1    3    3    0    0 -0.59291199968E+03  0.14544477559E+03  0.59921165055E+03  0.85542587304E+03  0.00000000000E+00 0.  1.
        -11    1    3    3    0    0 -0.27855253242E+03  0.61089027721E+02  0.20019562197E+03  0.34842742384E+03  0.00000000000E+00 0. -1.
         22    1    1    2    0    0  0.87146453211E+03 -0.20653380331E+03 -0.10145559954E+04  0.13533035544E+04  0.00000000000E+00 0. -1.
<mgrwt>
<rscale>  0 0.25480899E+04</rscale>
<asrwt>0</asrwt>
<pdfrwt beam="1">  1        2 0.18015447E+00 0.25480899E+04</pdfrwt>
<pdfrwt beam="2">  1       -2 0.21325427E+00 0.25480899E+04</pdfrwt>
<totfact> 0.19112075E+00</totfact>
</mgrwt>
</event>
<event>
 6    1  0.1568961E-005  0.3278393E+03  0.7818608E-02  0.1072097E+00
          1   -1    0    0  501    0  0.00000000000E+00  0.00000000000E+00  0.25675732409E+03  0.25675732409E+03  0.00000000000E+00 0. -1.
         -1   -1    0    0    0  501 -0.00000000000E+00 -0.00000000000E+00 -0.10464997558E+03  0.10464997558E+03  0.00000000000E+00 0.  1.
         23    2    1    2    0    0 -0.99543350550E+02  0.60352146968E+01 -0.42518175863E+02  0.14271940062E+03  0.92820954417E+02 0.  0.
         13    1    3    3    0    0  0.10567354749E+02 -0.18350095939E+02 -0.16838290331E+02  0.27054076008E+02  0.00000000000E+00 0.  1.
        -13    1    3    3    0    0 -0.11011070530E+03  0.24385310635E+02 -0.25679885531E+02  0.11566532461E+03  0.00000000000E+00 0. -1.
         22    1    1    2    0    0  0.99543350550E+02 -0.60352146968E+01  0.19462552437E+03  0.21868789905E+03  0.00000000000E+00 0. -1.
<mgrwt>
<rscale>  0 0.32783928E+03</rscale>
<asrwt>0</asrwt>
<pdfrwt beam="1">  1        1 0.39501127E-01 0.32783928E+03</pdfrwt>
<pdfrwt beam="2">  1       -1 0.16099996E-01 0.32783928E+03</pdfrwt>
<totfact> 0.30663629E+03</totfact>
</mgrwt>
</event>
<event>
 6    1  0.1568961E-005  0.4459422E+04  0.7818608E-02  0.7917780E-01
          2   -1    0    0  501    0  0.00000000000E+00  0.00000000000E+00  0.24442122007E+04  0.24442122007E+04  0.00000000000E+00 0. -1.
         -2   -1    0    0    0  501 -0.00000000000E+00 -0.00000000000E+00 -0.20340341573E+04  0.20340341573E+04  0.00000000000E+00 0.  1.
         23    2    1    2    0    0  0.15129932428E+04  0.11333744585E+04 -0.98035295283E+03  0.21314905829E+04  0.92054207595E+02 0.  0.
         13    1    3    3    0    0  0.12645632393E+04  0.98064743018E+03 -0.80668857129E+03  0.17920758967E+04  0.00000000000E+00 0.  1.
        -13    1    3    3    0    0  0.24843000352E+03  0.15272702829E+03 -0.17366438154E+03  0.33941468624E+03  0.00000000000E+00 0. -1.
         22    1    1    2    0    0 -0.15129932428E+04 -0.11333744585E+04  0.13905309962E+04  0.23467557750E+04  0.00000000000E+00 0. -1.
<mgrwt>
<rscale>  0 0.44594220E+04</rscale>
<asrwt>0</asrwt>
<pdfrwt beam="1">  1        2 0.37603265E+00 0.44594220E+04</pdfrwt>
<pdfrwt beam="2">  1       -2 0.31292833E+00 0.44594220E+04</pdfrwt>
<totfact> 0.75460186E-02</totfact>
</mgrwt>
</event>
<event>
 6    1  0.1568961E-005  0.6065839E+04  0.7818608E-02  0.7682292E-01
         -2   -1    0    0    0  501 -0.00000000000E+00  0.00000000000E+00  0.19848164880E+04  0.19848164880E+04  0.00000000000E+00 0.  1.
          2   -1    0    0  501    0  0.00000000000E+00 -0.00000000000E+00 -0.46344844405E+04  0.46344844405E+04  0.00000000000E+00 0. -1.
         23    2    1    2    0    0 -0.18378193372E+04 -0.99090017755E+03 -0.37246943513E+04  0.42708663784E+04  0.86536313683E+02 0.  0.
         11    1    3    3    0    0 -0.52088302225E+03 -0.32551474795E+03 -0.11004605043E+04  0.12602746905E+04  0.00000000000E+00 0. -1.
        -11    1    3    3    0    0 -0.13169363149E+04 -0.66538542960E+03 -0.26242338470E+04  0.30105916879E+04  0.00000000000E+00 0.  1.
         22    1    1    2    0    0  0.18378193372E+04  0.99090017755E+03  0.10750263988E+04  0.23484345501E+04  0.00000000000E+00 0.  1.
<mgrwt>
<rscale>  0 0.60658391E+04</rscale>
<asrwt>0</asrwt>
<pdfrwt beam="1">  1        2 0.71299759E+00 0.60658391E+04</pdfrwt>
<pdfrwt beam="2">  1       -2 0.30535639E+00 0.60658391E+04</pdfrwt>
<totfact> 0.17516411E-03</totfact>
</mgrwt>
</event>
<event>
 6    1  0.1568961E-005  0.3401903E+04  0.7818608E-02  0.8137439E-01
          2   -1    0    0  501    0  0.00000000000E+00  0.00000000000E+00  0.41050262808E+04  0.41050262808E+04  0.00000000000E+00 0. -1.
         -2   -1    0    0    0  501 -0.00000000000E+00 -0.00000000000E+00 -0.70480334210E+03  0.70480334210E+03  0.00000000000E+00 0.  1.
         23    2    1    2    0    0  0.17471576873E+03  0.49095435783E+03  0.39887552063E+04  0.40237431064E+04  0.93694766169E+02 0.  0.
         13    1    3    3    0    0  0.62113025724E+02  0.29214319045E+03  0.20713723021E+04  0.20927945159E+04  0.00000000000E+00 0. -1.
        -13    1    3    3    0    0  0.11260274301E+03  0.19881116738E+03  0.19173829042E+04  0.19309485906E+04  0.00000000000E+00 0.  1.
         22    1    1    2    0    0 -0.17471576873E+03 -0.49095435783E+03 -0.58853226763E+03  0.78608651646E+03  0.00000000000E+00 0.  1.
<mgrwt>
<rscale>  0 0.34019031E+04</rscale>
<asrwt>0</asrwt>
<pdfrwt beam="1">  1        2 0.63154249E+00 0.34019031E+04</pdfrwt>
<pdfrwt beam="2">  1       -2 0.10843129E+00 0.34019031E+04</pdfrwt>
<totfact> 0.15749655E-01</totfact>
</mgrwt>
</event>
<event>
 6    1  0.1568961E-005  0.7129613E+03  0.7818608E-02  0.9695320E-01
         -2   -1    0    0    0  501 -0.00000000000E+00  0.00000000000E+00  0.11013189728E+03  0.11013189728E+03  0.00000000000E+00 0.  1.
          2   -1    0    0  501    0  0.00000000000E+00 -0.00000000000E+00 -0.11538750510E+04  0.11538750510E+04  0.00000000000E+00 0. -1.
         23    2    1    2    0    0 -0.18274490678E+03  0.19722379499E+03 -0.92924345635E+03  0.97176884852E+03  0.92457382188E+02 0.  0.
         11    1    3    3    0    0 -0.73099132753E+02  0.14559234287E+03 -0.55160575830E+03  0.57516043509E+03  0.00000000000E+00 0. -1.
        -11    1    3    3    0    0 -0.10964577402E+03  0.51631452125E+02 -0.37763769805E+03  0.39660841343E+03  0.00000000000E+00 0.  1.
         22    1    1    2    0    0  0.18274490678E+03 -0.19722379499E+03 -0.11449969740E+03  0.29223809979E+03  0.00000000000E+00 0.  1.
<mgrwt>
<rscale>  0 0.71296129E+03</rscale>
<asrwt>0</asrwt>
<pdfrwt beam="1">  1        2 0.17751924E+00 0.71296129E+03</pdfrwt>
<pdfrwt beam="2">  1       -2 0.16943369E-01 0.71296129E+03</pdfrwt>
<totfact> 0.57957365E+02</totfact>
</mgrwt>
</event>
<event>
 6    1  0.1568961E-005  0.7982270E+03  0.7818608E-02  0.9562587E-01
          2   -1    0    0  501    0  0.00000000000E+00  0.00000000000E+00  0.12930557224E+04  0.12930557224E+04  0.00000000000E+00 0. -1.
         -2   -1    0    0    0  501 -0.00000000000E+00 -0.00000000000E+00 -0.12319004095E+03  0.12319004095E+03  0.00000000000E+00 0.  1.
         23    2    1    2    0    0 -0.18536049491E+03 -0.10855412117E+03  0.60979384244E+01  0.23281943696E+03  0.89583453145E+02 0.  0.
         13    1    3    3    0    0 -0.14555016146E+03 -0.10692990118E+03  0.34521581994E+02  0.18387656972E+03  0.00000000000E+00 0. -1.
        -13    1    3    3    0    0 -0.39810333451E+02 -0.16242199838E+01 -0.28423643569E+02  0.48942867241E+02  0.00000000000E+00 0.  1.
         22    1    1    2    0    0  0.18536049491E+03  0.10855412117E+03  0.11637677430E+04  0.11834263264E+04  0.00000000000E+00 0. -1.
<mgrwt>
<rscale>  0 0.79822700E+03</rscale>
<asrwt>0</asrwt>
<pdfrwt beam="1">  1        2 0.19893164E+00 0.79822700E+03</pdfrwt>
<pdfrwt beam="2">  1       -2 0.18952315E-01 0.79822700E+03</pdfrwt>
<totfact> 0.39398289E+02</totfact>
</mgrwt>
</event>
<event>
 6    1  0.1568961E-005  0.2145037E+04  0.7818608E-02  0.8541660E-01
         -1   -1    0    0    0  501 -0.00000000000E+00  0.00000000000E+00  0.24185623695E+04  0.24185623695E+04  0.00000000000E+00 0.  1.
          1   -1    0    0  501    0  0.00000000000E+00 -0.00000000000E+00 -0.47561122386E+03  0.47561122386E+03  0.00000000000E+00 0. -1.
         23    2    1    2    0    0 -0.34023246772E+03 -0.36359822528E+03  0.22519553696E+04  0.23081314345E+04  0.90586592413E+02 0.  0.
         11    1    3    3    0    0 -0.66552738959E+02 -0.51103901966E+02  0.25573765194E+03  0.26915167189E+03  0.00000000000E+00 0. -1.
        -11    1    3    3    0    0 -0.27367972876E+03 -0.31249432332E+03  0.19962177177E+04  0.20389797626E+04  0.00000000000E+00 0.  1.
         22    1    1    2    0    0  0.34023246772E+03  0.36359822528E+03 -0.30900422398E+03  0.58604215885E+03  0.00000000000E+00 0. -1.
<mgrwt>
<rscale>  0 0.21450365E+04</rscale>
<asrwt>0</asrwt>
<pdfrwt beam="1">  1        1 0.73170958E-01 0.21450365E+04</pdfrwt>
<pdfrwt beam="2">  1       -1 0.37208651E+00 0.21450365E+04</pdfrwt>
<totfact> 0.48179982E-01</totfact>
</mgrwt>
</event>
<event>
 6    1  0.1568961E-005  0.2807618E+04  0.7818608E-02  0.8300907E-01
          1   -1    0    0  501    0  0.00000000000E+00  0.00000000000E+00  0.13929284561E+04  0.13929284561E+04  0.00000000000E+00 0. -1.
         -1   -1    0    0    0  501 -0.00000000000E+00 -0.00000000000E+00 -0.14147742334E+04  0.14147742334E+04  0.00000000000E+00 0.  1.
         23    2    1    2    0    0  0.24055624228E+03 -0.28530182014E+03 -0.13627589639E+04  0.14158289136E+04  0.90526705529E+02 0.  0.
         13    1    3    3    0    0  0.18581014313E+03 -0.25275070141E+03 -0.12166359507E+04  0.12564280174E+04  0.00000000000E+00 0. -1.
        -13    1    3    3    0    0  0.54746099150E+02 -0.32551118727E+02 -0.14612301326E+03  0.15940089619E+03  0.00000000000E+00 0.  1.
         22    1    1    2    0    0 -0.24055624228E+03  0.28530182014E+03  0.13409131866E+04  0.13918737760E+04  0.00000000000E+00 0. -1.
<mgrwt>
<rscale>  0 0.28076177E+04</rscale>
<asrwt>0</asrwt>
<pdfrwt beam="1">  1        1 0.21429669E+00 0.28076177E+04</pdfrwt>
<pdfrwt beam="2">  1       -1 0.21765757E+00 0.28076177E+04</pdfrwt>
<totfact> 0.76723858E-01</totfact>
</mgrwt>
</event>
<event>
 6    1  0.1568961E-005  0.3074849E+04  0.7818608E-02  0.8222675E-01
          2   -1    0    0  501    0  0.00000000000E+00  0.00000000000E+00  0.28221623330E+04  0.28221623330E+04  0.00000000000E+00 0. -1.
         -2   -1    0    0    0  501 -0.00000000000E+00 -0.00000000000E+00 -0.83753988432E+03  0.83753988432E+03  0.00000000000E+00 0.  1.
         23    2    1    2    0    0 -0.12342611602E+04 -0.39384194101E+02 -0.94525349053E+02  0.12414782221E+04  0.85915121153E+02 0.  0.
         13    1    3    3    0    0 -0.82908752397E+03 -0.62771159944E+02 -0.81130862203E+02  0.83540921572E+03  0.00000000000E+00 0. -1.
        -13    1    3    3    0    0 -0.40517363622E+03  0.23386965843E+02 -0.13394486850E+02  0.40606900637E+03  0.00000000000E+00 0.  1.
         22    1    1    2    0    0  0.12342611602E+04  0.39384194101E+02  0.20791477977E+04  0.24182239952E+04  0.00000000000E+00 0. -1.
<mgrwt>
<rscale>  0 0.30748486E+04</rscale>
<asrwt>0</asrwt>
<pdfrwt beam="1">  1        2 0.43417882E+00 0.30748486E+04</pdfrwt>
<pdfrwt beam="2">  1       -2 0.12885229E+00 0.30748486E+04</pdfrwt>
<totfact> 0.84676566E-01</totfact>
</mgrwt>
</event>
<event>
 6    1  0.1568961E-005  0.2571050E+04  0.7818608E-02  0.8378102E-01
         -2   -1    0    0    0  501 -0.00000000000E+00  0.00000000000E+00  0.48914672302E+03  0.48914672302E+03  0.00000000000E+00 0.  1.
          2   -1    0    0  501    0  0.00000000000E+00 -0.00000000000E+00 -0.33784840050E+04  0.33784840050E+04  0.00000000000E+00 0. -1.
         23    2    1    2    0    0 -0.83884976667E+03 -0.85342283465E+03 -0.21461161848E+04  0.24589515364E+04  0.92889793342E+02 0.  0.
         13    1    3    3    0    0 -0.46090777419E+03 -0.52224688654E+03 -0.13006700962E+04  0.14754390824E+04  0.00000000000E+00 0. -1.
        -13    1    3    3    0    0 -0.37794199249E+03 -0.33117594811E+03 -0.84544608862E+03  0.98351245394E+03  0.00000000000E+00 0.  1.
         22    1    1    2    0    0  0.83884976667E+03  0.85342283465E+03 -0.74322109720E+03  0.14086791917E+04  0.00000000000E+00 0.  1.
<mgrwt>
<rscale>  0 0.25710499E+04</rscale>
<asrwt>0</asrwt>
<pdfrwt beam="1">  1        2 0.51976676E+00 0.25710499E+04</pdfrwt>
<pdfrwt beam="2">  1       -2 0.75253344E-01 0.25710499E+04</pdfrwt>
<totfact> 0.13866438E+00</totfact>
</mgrwt>
</event>
<event>
 6    1  0.1568961E-005  0.1458590E+04  0.7818608E-02  0.8912467E-01
         -1   -1    0    0    0  501 -0.00000000000E+00  0.00000000000E+00  0.14304578303E+04  0.14304578303E+04  0.00000000000E+00 0.  1.
          1   -1    0    0  501    0  0.00000000000E+00 -0.00000000000E+00 -0.37181901987E+03  0.37181901987E+03  0.00000000000E+00 0. -1.
         23    2    1    2    0    0  0.39232877499E+03  0.56377444258E+03  0.82373382381E+03  0.10763678734E+04  0.90922476003E+02 0.  0.
         11    1    3    3    0    0  0.15773086215E+03  0.27867978530E+03  0.43610495105E+03  0.54104433824E+03  0.00000000000E+00 0. -1.
        -11    1    3    3    0    0  0.23459791284E+03  0.28509465728E+03  0.38762887275E+03  0.53532353517E+03  0.00000000000E+00 0.  1.
         22    1    1    2    0    0 -0.39232877499E+03 -0.56377444258E+03  0.23490498662E+03  0.72590897675E+03  0.00000000000E+00 0.  1.
<mgrwt>
<rscale>  0 0.14585903E+04</rscale>
<asrwt>0</asrwt>
<pdfrwt beam="1">  1        1 0.57202927E-01 0.14585903E+04</pdfrwt>
<pdfrwt beam="2">  1       -1 0.22007043E+00 0.14585903E+04</pdfrwt>
<totfact> 0.70549585E+00</totfact>
</mgrwt>
</event>
<event>
 6    1  0.1568961E-005  0.7844058E+03  0.7818608E-02  0.9582867E-01
         -1   -1    0    0    0  501 -0.00000000000E+00  0.00000000000E+00  0.53758914927E+02  0.53758914927E+02  0.00000000000E+00 0.  1.
          1   -1    0    0  501    0  0.00000000000E+00 -0.00000000000E+00 -0.28613506705E+04  0.28613506705E+04  0.00000000000E+00 0. -1.
         23    2    1    2    0    0 -0.11487728810E+03  0.27665684245E+03 -0.23330616154E+04  0.23539370150E+04  0.90039823955E+02 0.  0.
         13    1    3    3    0    0 -0.61502764633E+02  0.50001864550E+02 -0.66255137549E+03  0.66727588124E+03  0.00000000000E+00 0. -1.
        -13    1    3    3    0    0 -0.53374523467E+02  0.22665497790E+03 -0.16705102399E+04  0.16866611338E+04  0.00000000000E+00 0.  1.
         22    1    1    2    0    0  0.11487728810E+03 -0.27665684245E+03 -0.47453014026E+03  0.56117257044E+03  0.00000000000E+00 0.  1.
<mgrwt>
<rscale>  0 0.78440578E+03</rscale>
<asrwt>0</asrwt>
<pdfrwt beam="1">  1        1 0.44020773E+00 0.78440578E+03</pdfrwt>
<pdfrwt beam="2">  1       -1 0.82706035E-02 0.78440578E+03</pdfrwt>
<totfact> 0.67253607E+01</totfact>
</mgrwt>
</event>
<event>
 6    1  0.1568961E-005  0.4916667E+03  0.7818608E-02  0.1015977E+00
          1   -1    0    0  501    0  0.00000000000E+00  0.00000000000E+00  0.11197929326E+03  0.11197929326E+03  0.00000000000E+00 0. -1.
         -1   -1    0    0    0  501 -0.00000000000E+00 -0.00000000000E+00 -0.53968931683E+03  0.53968931683E+03  0.00000000000E+00 0.  1.
         23    2    1    2    0    0 -0.20550895603E+03  0.11238780251E+03 -0.27218763735E+03  0.37050644731E+03  0.91235784714E+02 0.  0.
         11    1    3    3    0    0 -0.10604340154E+02  0.35403868842E+02 -0.70806602881E+02  0.79871527910E+02  0.00000000000E+00 0. -1.
        -11    1    3    3    0    0 -0.19490461587E+03  0.76983933669E+02 -0.20138103447E+03  0.29063491940E+03  0.00000000000E+00 0.  1.
         22    1    1    2    0    0  0.20550895603E+03 -0.11238780251E+03 -0.15552238623E+03  0.28116216278E+03  0.00000000000E+00 0. -1.
<mgrwt>
<rscale>  0 0.49166667E+03</rscale>
<asrwt>0</asrwt>
<pdfrwt beam="1">  1        1 0.17227584E-01 0.49166667E+03</pdfrwt>
<pdfrwt beam="2">  1       -1 0.83029125E-01 0.49166667E+03</pdfrwt>
<totfact> 0.46753279E+02</totfact>
</mgrwt>
</event>
<event>
 6    1  0.1568961E-005  0.3308012E+04  0.7818608E-02  0.8160860E-01
         -2   -1    0    0    0  501 -0.00000000000E+00  0.00000000000E+00  0.10640346006E+04  0.10640346006E+04  0.00000000000E+00 0.  1.
          2   -1    0    0  501    0  0.00000000000E+00 -0.00000000000E+00 -0.25710965096E+04  0.25710965096E+04  0.00000000000E+00 0. -1.
         23    2    1    2    0    0 -0.19016716972E+02  0.13767718379E+04 -0.17586455411E+04  0.22354323379E+04  0.91985155270E+02 0.  0.
         13    1    3    3    0    0  0.17516286370E+02  0.10932925741E+04 -0.13644795712E+04  0.17485422423E+04  0.00000000000E+00 0. -1.
        -13    1    3    3    0    0 -0.36533003342E+02  0.28347926381E+03 -0.39416596991E+03  0.48689009559E+03  0.00000000000E+00 0.  1.
         22    1    1    2    0    0  0.19016716972E+02 -0.13767718379E+04  0.25158363205E+03  0.13996987723E+04  0.00000000000E+00 0.  1.
<mgrwt>
<rscale>  0 0.33080119E+04</rscale>
<asrwt>0</asrwt>
<pdfrwt beam="1">  1        2 0.39555331E+00 0.33080119E+04</pdfrwt>
<pdfrwt beam="2">  1       -2 0.16369763E+00 0.33080119E+04</pdfrwt>
<totfact> 0.62482225E-01</totfact>
</mgrwt>
</event>
<event>
 6    1  0.1568961E-005  0.1969962E+04  0.7818608E-02  0.8620794E-01
         -2   -1    0    0    0  501 -0.00000000000E+00  0.00000000000E+00  0.11076972704E+04  0.11076972704E+04  0.00000000000E+00 0.  1.
          2   -1    0    0  501    0  0.00000000000E+00 -0.00000000000E+00 -0.87586016077E+03  0.87586016077E+03  0.00000000000E+00 0. -1.
         23    2    1    2    0    0  0.38146280825E+03 -0.43412983324E+03 -0.68439489609E+03  0.90029214763E+03  0.90260684136E+02 0.  0.
         11    1    3    3    0    0  0.23320409125E+03 -0.24117006487E+03 -0.33151761754E+03  0.47164719770E+03  0.00000000000E+00 0.  1.
        -11    1    3    3    0    0  0.14825871700E+03 -0.19295976837E+03 -0.35287727856E+03  0.42864494993E+03  0.00000000000E+00 0. -1.
         22    1    1    2    0    0 -0.38146280825E+03  0.43412983324E+03  0.91623200571E+03  0.10832652835E+04  0.00000000000E+00 0.  1.
<mgrwt>
<rscale>  0 0.19699623E+04</rscale>
<asrwt>0</asrwt>
<pdfrwt beam="1">  1        2 0.13474772E+00 0.19699623E+04</pdfrwt>
<pdfrwt beam="2">  1       -2 0.17041496E+00 0.19699623E+04</pdfrwt>
<totfact> 0.60020513E+00</totfact>
</mgrwt>
</event>
<event>
 6    1  0.1568961E-005  0.1228580E+04  0.7818608E-02  0.9088202E-01
          2   -1    0    0  501    0  0.00000000000E+00  0.00000000000E+00  0.51703097887E+04  0.51703097887E+04  0.00000000000E+00 0. -1.
         -2   -1    0    0    0  501 -0.00000000000E+00 -0.00000000000E+00 -0.72984450866E+02  0.72984450866E+02  0.00000000000E+00 0.  1.
         23    2    1    2    0    0  0.44881366425E+03 -0.25021732263E+03  0.39725055258E+04  0.40066608972E+04  0.92135657338E+02 0.  0.
         11    1    3    3    0    0  0.22558143892E+03 -0.16835248806E+03  0.23580722581E+04  0.23748124811E+04  0.00000000000E+00 0.  1.
        -11    1    3    3    0    0  0.22323222533E+03 -0.81864834573E+02  0.16144332676E+04  0.16318484161E+04  0.00000000000E+00 0. -1.
         22    1    1    2    0    0 -0.44881366425E+03  0.25021732263E+03  0.11248198121E+04  0.12366333423E+04  0.00000000000E+00 0.  1.
<mgrwt>
<rscale>  0 0.12285800E+04</rscale>
<asrwt>0</asrwt>
<pdfrwt beam="1">  1        2 0.79543199E+00 0.12285800E+04</pdfrwt>
<pdfrwt beam="2">  1       -2 0.11228381E-01 0.12285800E+04</pdfrwt>
<totfact> 0.12423084E+00</totfact>
</mgrwt>
</event>
<event>
 6    1  0.1568961E-005  0.9967125E+03  0.7818608E-02  0.9312158E-01
         -1   -1    0    0    0  501 -0.00000000000E+00  0.00000000000E+00  0.32530113540E+03  0.32530113540E+03  0.00000000000E+00 0.  1.
          1   -1    0    0  501    0  0.00000000000E+00 -0.00000000000E+00 -0.76347405055E+03  0.76347405055E+03  0.00000000000E+00 0. -1.
         23    2    1    2    0    0 -0.34887405758E+03  0.44947084197E+02  0.15845827232E+03  0.39616987101E+03  0.90045511833E+02 0.  0.
         11    1    3    3    0    0 -0.19964234500E+03 -0.19054529799E+02  0.81470045083E+02  0.21646595406E+03  0.00000000000E+00 0.  1.
        -11    1    3    3    0    0 -0.14923171258E+03  0.64001613996E+02  0.76988227233E+02  0.17970391695E+03  0.00000000000E+00 0. -1.
         22    1    1    2    0    0  0.34887405758E+03 -0.44947084197E+02 -0.59663118747E+03  0.69260531494E+03  0.00000000000E+00 0. -1.
<mgrwt>
<rscale>  0 0.99671255E+03</rscale>
<asrwt>0</asrwt>
<pdfrwt beam="1">  1        1 0.11745754E+00 0.99671255E+03</pdfrwt>
<pdfrwt beam="2">  1       -1 0.50046329E-01 0.99671255E+03</pdfrwt>
<totfact> 0.95666896E+01</totfact>
</mgrwt>
</event>
<event>
 6    1  0.1568961E-005  0.2362368E+04  0.7818608E-02  0.8453728E-01
         -1   -1    0    0    0  501 -0.00000000000E+00  0.00000000000E+00  0.71330666569E+03  0.71330666569E+03  0.00000000000E+00 0.  1.
          1   -1    0    0  501    0  0.00000000000E+00 -0.00000000000E+00 -0.19559552612E+04  0.19559552612E+04  0.00000000000E+00 0. -1.
         23    2    1    2    0    0 -0.30233669049E+03 -0.53465018075E+03  0.51497235754E+03  0.80741077688E+03  0.97248873523E+02 0.  0.
         11    1    3    3    0    0 -0.10127632724E+03 -0.16334860771E+03  0.22115148317E+03  0.29299768022E+03  0.00000000000E+00 0. -1.
        -11    1    3    3    0    0 -0.20106036324E+03 -0.37130157303E+03  0.29382087436E+03  0.51441309666E+03  0.00000000000E+00 0.  1.
         22    1    1    2    0    0  0.30233669049E+03  0.53465018075E+03 -0.17576209530E+04  0.18618511500E+04  0.00000000000E+00 0. -1.
<mgrwt>
<rscale>  0 0.23623682E+04</rscale>
<asrwt>0</asrwt>
<pdfrwt beam="1">  1        1 0.30091619E+00 0.23623682E+04</pdfrwt>
<pdfrwt beam="2">  1       -1 0.10973949E+00 0.23623682E+04</pdfrwt>
<totfact> 0.22023072E+00</totfact>
</mgrwt>
</event>
<event>
 6    1  0.1568961E-005  0.8447064E+03  0.7818608E-02  0.9497470E-01
         -1   -1    0    0    0  501 -0.00000000000E+00  0.00000000000E+00  0.16313537502E+03  0.16313537502E+03  0.00000000000E+00 0.  1.
          1   -1    0    0  501    0  0.00000000000E+00 -0.00000000000E+00 -0.10934613511E+04  0.10934613511E+04  0.00000000000E+00 0. -1.
         23    2    1    2    0    0  0.72690292476E+02  0.40878185146E+03 -0.40491131637E+03  0.58693483731E+03  0.90293124964E+02 0.  0.
         13    1    3    3    0    0  0.81719945150E+02  0.23162076237E+03 -0.26213645315E+03  0.35922395113E+03  0.00000000000E+00 0.  1.
        -13    1    3    3    0    0 -0.90296526741E+01  0.17716108910E+03 -0.14277486322E+03  0.22771088618E+03  0.00000000000E+00 0. -1.
         22    1    1    2    0    0 -0.72690292476E+02 -0.40878185146E+03 -0.52541465973E+03  0.66966188884E+03  0.00000000000E+00 0.  1.
<mgrwt>
<rscale>  0 0.84470640E+03</rscale>
<asrwt>0</asrwt>
<pdfrwt beam="1">  1        1 0.16822483E+00 0.84470640E+03</pdfrwt>
<pdfrwt beam="2">  1       -1 0.25097749E-01 0.84470640E+03</pdfrwt>
<totfact> 0.17995349E+02</totfact>
</mgrwt>
</event>
<event>
 6    1  0.1568961E-005  0.6539431E+03  0.7818608E-02  0.9799408E-01
          2   -1    0    0  501    0  0.00000000000E+00  0.00000000000E+00  0.45533986259E+03  0.45533986259E+03  0.00000000000E+00 0. -1.
         -2   -1    0    0    0  501 -0.00000000000E+00 -0.00000000000E+00 -0.23479253649E+03  0.23479253649E+03  0.00000000000E+00 0.  1.
         23    2    1    2    0    0 -0.29720360966E+03  0.11678933425E+03  0.80717457775E+02  0.34153216061E+03  0.90328149280E+02 0.  0.
         11    1    3    3    0    0 -0.19790887096E+03  0.11480105216E+03  0.32366756763E+02  0.23107316964E+03  0.00000000000E+00 0.  1.
        -11    1    3    3    0    0 -0.99294738694E+02  0.19882820890E+01  0.48350701012E+02  0.11045899097E+03  0.00000000000E+00 0. -1.
         22    1    1    2    0    0  0.29720360966E+03 -0.11678933425E+03  0.13982986833E+03  0.34860023847E+03  0.00000000000E+00 0.  1.
<mgrwt>
<rscale>  0 0.65394312E+03</rscale>
<asrwt>0</asrwt>
<pdfrwt beam="1">  1        2 0.70052286E-01 0.65394312E+03</pdfrwt>
<pdfrwt beam="2">  1       -2 0.36121929E-01 0.65394312E+03</pdfrwt>
<totfact> 0.49839338E+02</totfact>
</mgrwt>
</event>
<event>
 6    1  0.1568961E-005  0.1546390E+04  0.7818608E-02  0.8854177E-01
          2   -1    0    0  501    0  0.00000000000E+00  0.00000000000E+00  0.41141769090E+04  0.41141769090E+04  0.00000000000E+00 0. -1.
         -2   -1    0    0    0  501 -0.00000000000E+00 -0.00000000000E+00 -0.14530979985E+03  0.14530979985E+03  0.00000000000E+00 0.  1.
         23    2    1    2    0    0 -0.68750847055E+03  0.31716874391E+03  0.23821735713E+04  0.25014024412E+04  0.94864849764E+02 0.  0.
         13    1    3    3    0    0 -0.50490987013E+03  0.18646176564E+03  0.16505937294E+04  0.17361341039E+04  0.00000000000E+00 0.  1.
        -13    1    3    3    0    0 -0.18259860043E+03  0.13070697828E+03  0.73157984187E+03  0.76526833731E+03  0.00000000000E+00 0. -1.
         22    1    1    2    0    0  0.68750847055E+03 -0.31716874391E+03  0.15866935379E+04  0.17580842677E+04  0.00000000000E+00 0.  1.
<mgrwt>
<rscale>  0 0.15463896E+04</rscale>
<asrwt>0</asrwt>
<pdfrwt beam="1">  1        2 0.63295020E+00 0.15463896E+04</pdfrwt>
<pdfrwt beam="2">  1       -2 0.22355357E-01 0.15463896E+04</pdfrwt>
<totfact> 0.47664624E+00</totfact>
</mgrwt>
</event>
<event>
 6    1  0.1568961E-005  0.2637451E+04  0.7818608E-02  0.8355590E-01
         -2   -1    0    0    0  501 -0.00000000000E+00  0.00000000000E+00  0.82645272886E+03  0.82645272886E+03  0.00000000000E+00 0.  1.
          2   -1    0    0  501    0  0.00000000000E+00 -0.00000000000E+00 -0.21042176209E+04  0.21042176209E+04  0.00000000000E+00 0. -1.
         23    2    1    2    0    0 -0.75363174784E+03  0.10085245516E+04 -0.10696766233E+04  0.16545891180E+04  0.91512231958E+02 0.  0.
         13    1    3    3    0    0 -0.11410565080E+03  0.10947907145E+03 -0.11409765923E+03  0.19499754479E+03  0.00000000000E+00 0. -1.
        -13    1    3    3    0    0 -0.63952609704E+03  0.89904548011E+03 -0.95557896403E+03  0.14595915732E+04  0.00000000000E+00 0.  1.
         22    1    1    2    0    0  0.75363174784E+03 -0.10085245516E+04 -0.20808826879E+03  0.12760812318E+04  0.00000000000E+00 0.  1.
<mgrwt>
<rscale>  0 0.26374506E+04</rscale>
<asrwt>0</asrwt>
<pdfrwt beam="1">  1        2 0.32372579E+00 0.26374506E+04</pdfrwt>
<pdfrwt beam="2">  1       -2 0.12714657E+00 0.26374506E+04</pdfrwt>
<totfact> 0.23672568E+00</totfact>
</mgrwt>
</event>
<event>
 6    1  0.1568961E-005  0.1509316E+04  0.7818608E-02  0.8878281E-01
          1   -1    0    0  501    0  0.00000000000E+00  0.00000000000E+00  0.12566532526E+04  0.12566532526E+04  0.00000000000E+00 0. -1.
         -1   -1    0    0    0  501 -0.00000000000E+00 -0.00000000000E+00 -0.45319474832E+03  0.45319474832E+03  0.00000000000E+00 0.  1.
         23    2    1    2    0    0 -0.25039698917E+03 -0.64928672660E+03  0.81067637373E+02  0.70679243411E+03  0.93336367886E+02 0.  0.
         11    1    3    3    0    0 -0.15391395208E+03 -0.50782483756E+03  0.69516898259E+02  0.53517115901E+03  0.00000000000E+00 0. -1.
        -11    1    3    3    0    0 -0.96483037083E+02 -0.14146188904E+03  0.11550739114E+02  0.17162127510E+03  0.00000000000E+00 0.  1.
         22    1    1    2    0    0  0.25039698917E+03  0.64928672660E+03  0.72239086690E+03  0.10030555668E+04  0.00000000000E+00 0.  1.
<mgrwt>
<rscale>  0 0.15093159E+04</rscale>
<asrwt>0</asrwt>
<pdfrwt beam="1">  1        1 0.19333127E+00 0.15093159E+04</pdfrwt>
<pdfrwt beam="2">  1       -1 0.69722270E-01 0.15093159E+04</pdfrwt>
<totfact> 0.19541963E+01</totfact>
</mgrwt>
</event>
<event>
 6    1  0.1568961E-005  0.2495361E+04  0.7818608E-02  0.8404640E-01
          2   -1    0    0  501    0  0.00000000000E+00  0.00000000000E+00  0.37930359116E+04  0.37930359116E+04  0.00000000000E+00 0. -1.
         -2   -1    0    0    0  501 -0.00000000000E+00 -0.00000000000E+00 -0.41041193286E+03  0.41041193286E+03  0.00000000000E+00 0.  1.
         23    2    1    2    0    0  0.76467649629E+03  0.98091890979E+03  0.18101753837E+04  0.21985721287E+04  0.10026182616E+03 0.  0.
         13    1    3    3    0    0  0.55993894914E+03  0.73688592543E+03  0.12695191429E+04  0.15710542155E+04  0.00000000000E+00 0. -1.
        -13    1    3    3    0    0  0.20473754715E+03  0.24403298436E+03  0.54065624079E+03  0.62751791319E+03  0.00000000000E+00 0.  1.
         22    1    1    2    0    0 -0.76467649629E+03 -0.98091890979E+03  0.15724485950E+04  0.20048757158E+04  0.00000000000E+00 0. -1.
<mgrwt>
<rscale>  0 0.24953615E+04</rscale>
<asrwt>0</asrwt>
<pdfrwt beam="1">  1        2 0.58354396E+00 0.24953615E+04</pdfrwt>
<pdfrwt beam="2">  1       -2 0.63140300E-01 0.24953615E+04</pdfrwt>
<totfact> 0.10331682E+00</totfact>
</mgrwt>
</event>
<event>
 6    1  0.1568961E-005  0.1602558E+04  0.7818608E-02  0.8818978E-01
          1   -1    0    0  501    0  0.00000000000E+00  0.00000000000E+00  0.45714831962E+03  0.45714831962E+03  0.00000000000E+00 0. -1.
         -1   -1    0    0    0  501 -0.00000000000E+00 -0.00000000000E+00 -0.14044637709E+04  0.14044637709E+04  0.00000000000E+00 0.  1.
         23    2    1    2    0    0 -0.12246988854E+03  0.60913930963E+03 -0.10582389252E+04  0.12304595026E+04  0.90063269223E+02 0.  0.
         13    1    3    3    0    0 -0.31736121782E+02  0.21322049422E+03 -0.28870812084E+03  0.36030895024E+03  0.00000000000E+00 0. -1.
        -13    1    3    3    0    0 -0.90733766754E+02  0.39591881541E+03 -0.76953080439E+03  0.87015055233E+03  0.00000000000E+00 0.  1.
         22    1    1    2    0    0  0.12246988854E+03 -0.60913930963E+03  0.11092347399E+03  0.63115258790E+03  0.00000000000E+00 0. -1.
<mgrwt>
<rscale>  0 0.16025583E+04</rscale>
<asrwt>0</asrwt>
<pdfrwt beam="1">  1        1 0.70330511E-01 0.16025583E+04</pdfrwt>
<pdfrwt beam="2">  1       -1 0.21607135E+00 0.16025583E+04</pdfrwt>
<totfact> 0.56224253E+00</totfact>
</mgrwt>
</event>
<event>
 6    1  0.1568961E-005  0.8698264E+03  0.7818608E-02  0.9464106E-01
          1   -1    0    0  501    0  0.00000000000E+00  0.00000000000E+00  0.52539347196E+03  0.52539347196E+03  0.00000000000E+00 0. -1.
         -1   -1    0    0    0  501 -0.00000000000E+00 -0.00000000000E+00 -0.36001496582E+03  0.36001496582E+03  0.00000000000E+00 0.  1.
         23    2    1    2    0    0 -0.42031677507E+03  0.81090605762E+02  0.12464705185E+03  0.45540735741E+03  0.92828314087E+02 0.  0.
         11    1    3    3    0    0 -0.40175540757E+03  0.62475410513E+02  0.98532349012E+02  0.41835297086E+03  0.00000000000E+00 0. -1.
        -11    1    3    3    0    0 -0.18561367504E+02  0.18615195249E+02  0.26114702839E+02  0.37054386544E+02  0.00000000000E+00 0.  1.
         22    1    1    2    0    0  0.42031677507E+03 -0.81090605762E+02  0.40731454289E+02  0.43000108037E+03  0.00000000000E+00 0. -1.
<mgrwt>
<rscale>  0 0.86982645E+03</rscale>
<asrwt>0</asrwt>
<pdfrwt beam="1">  1        1 0.80829765E-01 0.86982645E+03</pdfrwt>
<pdfrwt beam="2">  1       -1 0.55386918E-01 0.86982645E+03</pdfrwt>
<totfact> 0.13760883E+02</totfact>
</mgrwt>
</event>
<event>
 6    1  0.1568961E-005  0.2505296E+04  0.7818608E-02  0.8401101E-01
          2   -1    0    0  501    0  0.00000000000E+00  0.00000000000E+00  0.18503433898E+04  0.18503433898E+04  0.00000000000E+00 0. -1.
         -2   -1    0    0    0  501 -0.00000000000E+00 -0.00000000000E+00 -0.84801911516E+03  0.84801911516E+03  0.00000000000E+00 0.  1.
         23    2    1    2    0    0  0.34340060396E+03 -0.89723708824E+03  0.13652935493E+04  0.16713741595E+04  0.80664354680E+02 0.  0.
         13    1    3    3    0    0  0.18575425147E+03 -0.52573632466E+03  0.72705096680E+03  0.91624583674E+03  0.00000000000E+00 0.  1.
        -13    1    3    3    0    0  0.15764635249E+03 -0.37150076358E+03  0.63824258249E+03  0.75512832280E+03  0.00000000000E+00 0. -1.
         22    1    1    2    0    0 -0.34340060396E+03  0.89723708824E+03 -0.36296927465E+03  0.10269883454E+04  0.00000000000E+00 0.  1.
<mgrwt>
<rscale>  0 0.25052956E+04</rscale>
<asrwt>0</asrwt>
<pdfrwt beam="1">  1        2 0.28466821E+00 0.25052956E+04</pdfrwt>
<pdfrwt beam="2">  1       -2 0.13046448E+00 0.25052956E+04</pdfrwt>
<totfact> 0.31047286E+00</totfact>
</mgrwt>
</event>
<event>
 6    1  0.1568961E-005  0.3452644E+04  0.7818608E-02  0.8125105E-01
         -2   -1    0    0    0  501 -0.00000000000E+00  0.00000000000E+00  0.15076224606E+04  0.15076224606E+04  0.00000000000E+00 0.  1.
          2   -1    0    0  501    0  0.00000000000E+00 -0.00000000000E+00 -0.19767468684E+04  0.19767468684E+04  0.00000000000E+00 0. -1.
         23    2    1    2    0    0  0.42157567723E+03 -0.62957372479E+03 -0.17988103916E+04  0.19539595989E+04  0.90278251695E+02 0.  0.
         11    1    3    3    0    0  0.32814158572E+03 -0.54827949527E+03 -0.15238303489E+04  0.16523759370E+04  0.00000000000E+00 0. -1.
        -11    1    3    3    0    0  0.93434091512E+02 -0.81294229526E+02 -0.27498004275E+03  0.30158366190E+03  0.00000000000E+00 0.  1.
         22    1    1    2    0    0 -0.42157567723E+03  0.62957372479E+03  0.13296859838E+04  0.15304097301E+04  0.00000000000E+00 0.  1.
<mgrwt>
<rscale>  0 0.34526442E+04</rscale>
<asrwt>0</asrwt>
<pdfrwt beam="1">  1        2 0.30411490E+00 0.34526442E+04</pdfrwt>
<pdfrwt beam="2">  1       -2 0.23194192E+00 0.34526442E+04</pdfrwt>
<totfact> 0.47209592E-01</totfact>
</mgrwt>
</event>
<event>
 6    1  0.1568961E-005  0.4406350E+04  0.7818608E-02  0.7927240E-01
          1   -1    0    0  501    0  0.00000000000E+00  0.00000000000E+00  0.19490704200E+04  0.19490704200E+04  0.00000000000E+00 0. -1.
         -1   -1    0    0    0  501 -0.00000000000E+00 -0.00000000000E+00 -0.24904080546E+04  0.24904080546E+04  0.00000000000E+00 0.  1.
         23    2    1    2    0    0 -0.13249405329E+04  0.23446043316E+03 -0.20272312426E+04  0.24349039748E+04  0.93014757462E+02 0.  0.
         11    1    3    3    0    0 -0.51965942873E+03  0.13641418941E+03 -0.83038295078E+03  0.98903518536E+03  0.00000000000E+00 0. -1.
        -11    1    3    3    0    0 -0.80528110421E+03  0.98046243751E+02 -0.11968482918E+04  0.14458687895E+04  0.00000000000E+00 0.  1.
         22    1    1    2    0    0  0.13249405329E+04 -0.23446043316E+03  0.14858936080E+04  0.20045744997E+04  0.00000000000E+00 0. -1.
<mgrwt>
<rscale>  0 0.44063503E+04</rscale>
<asrwt>0</asrwt>
<pdfrwt beam="1">  1        1 0.29985699E+00 0.44063503E+04</pdfrwt>
<pdfrwt beam="2">  1       -1 0.38313970E+00 0.44063503E+04</pdfrwt>
<totfact> 0.22757765E-02</totfact>
</mgrwt>
</event>
<event>
 6    1  0.1568961E-005  0.1947271E+04  0.7818608E-02  0.8631678E-01
         -2   -1    0    0    0  501 -0.00000000000E+00  0.00000000000E+00  0.67559566177E+03  0.67559566177E+03  0.00000000000E+00 0.  1.
          2   -1    0    0  501    0  0.00000000000E+00 -0.00000000000E+00 -0.14031562365E+04  0.14031562365E+04  0.00000000000E+00 0. -1.
         23    2    1    2    0    0  0.24124348214E+03 -0.93254518408E+03 -0.22932088471E+03  0.99427888026E+03  0.90352009013E+02 0.  0.
         13    1    3    3    0    0  0.18503500386E+03 -0.74789293097E+03 -0.21909866955E+03  0.80099064654E+03  0.00000000000E+00 0. -1.
        -13    1    3    3    0    0  0.56208478281E+02 -0.18465225312E+03 -0.10222215154E+02  0.19328823372E+03  0.00000000000E+00 0.  1.
         22    1    1    2    0    0 -0.24124348214E+03  0.93254518408E+03 -0.49823968998E+03  0.10844730180E+04  0.00000000000E+00 0.  1.
<mgrwt>
<rscale>  0 0.19472712E+04</rscale>
<asrwt>0</asrwt>
<pdfrwt beam="1">  1        2 0.21587019E+00 0.19472712E+04</pdfrwt>
<pdfrwt beam="2">  1       -2 0.10393779E+00 0.19472712E+04</pdfrwt>
<totfact> 0.10129079E+01</totfact>
</mgrwt>
</event>
<event>
 6    1  0.1568961E-005  0.1684892E+04  0.7818608E-02  0.8770028E-01
          2   -1    0    0  501    0  0.00000000000E+00  0.00000000000E+00  0.23398487309E+04  0.23398487309E+04  0.00000000000E+00 0. -1.
         -2   -1    0    0    0  501 -0.00000000000E+00 -0.00000000000E+00 -0.30331690483E+03  0.30331690483E+03  0.00000000000E+00 0.  1.
         23    2    1    2    0    0 -0.77390380573E+03  0.32664274365E+03  0.10285868565E+04  0.13310773597E+04  0.90296365056E+02 0.  0.
         11    1    3    3    0    0 -0.14778088932E+03  0.85045418704E+02  0.16388229707E+03  0.23649380918E+03  0.00000000000E+00 0. -1.
        -11    1    3    3    0    0 -0.62612291641E+03  0.24159732495E+03  0.86470455947E+03  0.10945835505E+04  0.00000000000E+00 0.  1.
         22    1    1    2    0    0  0.77390380573E+03 -0.32664274365E+03  0.10079449695E+04  0.13120882760E+04  0.00000000000E+00 0. -1.
<mgrwt>
<rscale>  0 0.16848925E+04</rscale>
<asrwt>0</asrwt>
<pdfrwt beam="1">  1        2 0.35997672E+00 0.16848925E+04</pdfrwt>
<pdfrwt beam="2">  1       -2 0.46664141E-01 0.16848925E+04</pdfrwt>
<totfact> 0.17865199E+01</totfact>
</mgrwt>
</event>
<event>
 6    1  0.1568961E-005  0.2862295E+04  0.7818608E-02  0.8284185E-01
          1   -1    0    0  501    0  0.00000000000E+00  0.00000000000E+00  0.27966504087E+04  0.27966504087E+04  0.00000000000E+00 0. -1.
         -1   -1    0    0    0  501 -0.00000000000E+00 -0.00000000000E+00 -0.73237004759E+03  0.73237004759E+03  0.00000000000E+00 0.  1.
         23    2    1    2    0    0  0.78994327079E+03 -0.39183326095E+03  0.24206478859E+04  0.25779465958E+04  0.93427983251E+02 0.  0.
         11    1    3    3    0    0  0.52814011772E+03 -0.30325887552E+03  0.15983660434E+04  0.17104595693E+04  0.00000000000E+00 0. -1.
        -11    1    3    3    0    0  0.26180315307E+03 -0.88574385429E+02  0.82228184241E+03  0.86748702646E+03  0.00000000000E+00 0.  1.
         22    1    1    2    0    0 -0.78994327079E+03  0.39183326095E+03 -0.35636752474E+03  0.95107386051E+03  0.00000000000E+00 0.  1.
<mgrwt>
<rscale>  0 0.28622949E+04</rscale>
<asrwt>0</asrwt>
<pdfrwt beam="1">  1        1 0.43025390E+00 0.28622949E+04</pdfrwt>
<pdfrwt beam="2">  1       -1 0.11267232E+00 0.28622949E+04</pdfrwt>
<totfact> 0.51986898E-01</totfact>
</mgrwt>
</event>
<event>
 6    1  0.1568961E-005  0.5400706E+04  0.7818608E-02  0.7769502E-01
          2   -1    0    0  501    0  0.00000000000E+00  0.00000000000E+00  0.26135076339E+04  0.26135076339E+04  0.00000000000E+00 0. -1.
         -2   -1    0    0    0  501 -0.00000000000E+00 -0.00000000000E+00 -0.27900843515E+04  0.27900843515E+04  0.00000000000E+00 0.  1.
         23    2    1    2    0    0 -0.79229519258E+03  0.24493541345E+04 -0.90142801036E+03  0.27291805090E+04  0.93736034245E+02 0.  0.
         13    1    3    3    0    0 -0.43853483981E+03  0.12142949652E+04 -0.43340522549E+03  0.13618609171E+04  0.00000000000E+00 0. -1.
        -13    1    3    3    0    0 -0.35376035277E+03  0.12350591694E+04 -0.46802278487E+03  0.13673195918E+04  0.00000000000E+00 0.  1.
         22    1    1    2    0    0  0.79229519258E+03 -0.24493541345E+04  0.72485129282E+03  0.26744114764E+04  0.00000000000E+00 0. -1.
<mgrwt>
<rscale>  0 0.54007062E+04</rscale>
<asrwt>0</asrwt>
<pdfrwt beam="1">  1        2 0.40207810E+00 0.54007062E+04</pdfrwt>
<pdfrwt beam="2">  1       -2 0.42924374E+00 0.54007062E+04</pdfrwt>
<totfact> 0.10061010E-02</totfact>
</mgrwt>
</event>
<event>
 6    1  0.1568961E-005  0.2223844E+04  0.7818608E-02  0.8508569E-01
         -2   -1    0    0    0  501 -0.00000000000E+00  0.00000000000E+00  0.76045569582E+03  0.76045569582E+03  0.00000000000E+00 0.  1.
          2   -1    0    0  501    0  0.00000000000E+00 -0.00000000000E+00 -0.16258278295E+04  0.16258278295E+04  0.00000000000E+00 0. -1.
         23    2    1    2    0    0  0.82286889439E+03 -0.32312200434E+03  0.28737469456E+03  0.93358042522E+03  0.86412662509E+02 0.  0.
         11    1    3    3    0    0  0.55815392384E+03 -0.21211500915E+03  0.15162112383E+03  0.61604995333E+03  0.00000000000E+00 0.  1.
        -11    1    3    3    0    0  0.26471497054E+03 -0.11100699519E+03  0.13575357074E+03  0.31753047189E+03  0.00000000000E+00 0. -1.
         22    1    1    2    0    0 -0.82286889439E+03  0.32312200434E+03 -0.11527468283E+04  0.14527031001E+04  0.00000000000E+00 0. -1.
<mgrwt>
<rscale>  0 0.22238435E+04</rscale>
<asrwt>0</asrwt>
<pdfrwt beam="1">  1        2 0.25012736E+00 0.22238435E+04</pdfrwt>
<pdfrwt beam="2">  1       -2 0.11699318E+00 0.22238435E+04</pdfrwt>
<totfact> 0.55641188E+00</totfact>
</mgrwt>
</event>
<event>
 6    1  0.1568961E-005  0.3994683E+04  0.7818608E-02  0.8005620E-01
         -2   -1    0    0    0  501 -0.00000000000E+00  0.00000000000E+00  0.18237773588E+04  0.18237773588E+04  0.00000000000E+00 0.  1.
          2   -1    0    0  501    0  0.00000000000E+00 -0.00000000000E+00 -0.21874236652E+04  0.21874236652E+04  0.00000000000E+00 0. -1.
         23    2    1    2    0    0  0.14281965185E+04 -0.13418860835E+04 -0.56407668187E+03  0.20412832867E+04  0.90837199286E+02 0.  0.
         11    1    3    3    0    0  0.13448882059E+04 -0.12783610730E+04 -0.55166574641E+03  0.19357857359E+04  0.00000000000E+00 0.  1.
        -11    1    3    3    0    0  0.83308312600E+02 -0.63525010513E+02 -0.12410935464E+02  0.10549755082E+03  0.00000000000E+00 0. -1.
         22    1    1    2    0    0 -0.14281965185E+04  0.13418860835E+04  0.20043037546E+03  0.19699177374E+04  0.00000000000E+00 0. -1.
<mgrwt>
<rscale>  0 0.39946833E+04</rscale>
<asrwt>0</asrwt>
<pdfrwt beam="1">  1        2 0.33652672E+00 0.39946833E+04</pdfrwt>
<pdfrwt beam="2">  1       -2 0.28058113E+00 0.39946833E+04</pdfrwt>
<totfact> 0.17303732E-01</totfact>
</mgrwt>
</event>
<event>
 6    1  0.1568961E-005  0.1568741E+04  0.7818608E-02  0.8839985E-01
         -2   -1    0    0    0  501 -0.00000000000E+00  0.00000000000E+00  0.38065651848E+03  0.38065651848E+03  0.00000000000E+00 0.  1.
          2   -1    0    0  501    0  0.00000000000E+00 -0.00000000000E+00 -0.16162526062E+04  0.16162526062E+04  0.00000000000E+00 0. -1.
         23    2    1    2    0    0  0.28405799961E+03 -0.72773344011E+03 -0.58707048760E+03  0.98159126264E+03  0.92653885406E+02 0.  0.
         13    1    3    3    0    0  0.89948457049E+02 -0.28020532335E+03 -0.27301997518E+03  0.40142951437E+03  0.00000000000E+00 0.  1.
        -13    1    3    3    0    0  0.19410954256E+03 -0.44752811676E+03 -0.31405051242E+03  0.58016174827E+03  0.00000000000E+00 0. -1.
         22    1    1    2    0    0 -0.28405799961E+03  0.72773344011E+03 -0.64852560012E+03  0.10153178621E+04  0.00000000000E+00 0.  1.
<mgrwt>
<rscale>  0 0.15687410E+04</rscale>
<asrwt>0</asrwt>
<pdfrwt beam="1">  1        2 0.24865424E+00 0.15687410E+04</pdfrwt>
<pdfrwt beam="2">  1       -2 0.58562542E-01 0.15687410E+04</pdfrwt>
<totfact> 0.28611835E+01</totfact>
</mgrwt>
</event>
<event>
 6    1  0.1568961E-005  0.1560411E+04  0.7818608E-02  0.8845245E-01
         -1   -1    0    0    0  501 -0.00000000000E+00  0.00000000000E+00  0.99032440642E+03  0.99032440642E+03  0.00000000000E+00 0.  1.
          1   -1    0    0  501    0  0.00000000000E+00 -0.00000000000E+00 -0.61466807157E+03  0.61466807157E+03  0.00000000000E+00 0. -1.
         23    2    1    2    0    0 -0.47116832346E+03  0.19291810953E+03 -0.41612938615E+03  0.66364152643E+03  0.89662832652E+02 0.  0.
         13    1    3    3    0    0 -0.15858198405E+03  0.11164936408E+03 -0.16049571183E+03  0.25173934869E+03  0.00000000000E+00 0. -1.
        -13    1    3    3    0    0 -0.31258633942E+03  0.81268745455E+02 -0.25563367432E+03  0.41190217774E+03  0.00000000000E+00 0.  1.
         22    1    1    2    0    0  0.47116832346E+03 -0.19291810953E+03  0.79178572100E+03  0.94135095156E+03  0.00000000000E+00 0.  1.
<mgrwt>
<rscale>  0 0.15604112E+04</rscale>
<asrwt>0</asrwt>
<pdfrwt beam="1">  1        1 0.94564319E-01 0.15604112E+04</pdfrwt>
<pdfrwt beam="2">  1       -1 0.15235760E+00 0.15604112E+04</pdfrwt>
<totfact> 0.10647033E+01</totfact>
</mgrwt>
</event>
<event>
 6    1  0.1568961E-005  0.1527352E+04  0.7818608E-02  0.8866465E-01
          2   -1    0    0  501    0  0.00000000000E+00  0.00000000000E+00  0.37566375958E+04  0.37566375958E+04  0.00000000000E+00 0. -1.
         -2   -1    0    0    0  501 -0.00000000000E+00 -0.00000000000E+00 -0.15524552714E+03  0.15524552714E+03  0.00000000000E+00 0.  1.
         23    2    1    2    0    0 -0.55163885231E+03  0.48995541482E+03  0.13293876204E+04  0.15230830173E+04  0.90270152299E+02 0.  0.
         11    1    3    3    0    0 -0.12672851232E+03  0.73060858920E+02  0.30584241932E+03  0.33902446873E+03  0.00000000000E+00 0. -1.
        -11    1    3    3    0    0 -0.42491033999E+03  0.41689455590E+03  0.10235452011E+04  0.11840585486E+04  0.00000000000E+00 0.  1.
         22    1    1    2    0    0  0.55163885231E+03 -0.48995541482E+03  0.22720044482E+04  0.23888001056E+04  0.00000000000E+00 0.  1.
<mgrwt>
<rscale>  0 0.15273522E+04</rscale>
<asrwt>0</asrwt>
<pdfrwt beam="1">  1        2 0.57794418E+00 0.15273522E+04</pdfrwt>
<pdfrwt beam="2">  1       -2 0.23883930E-01 0.15273522E+04</pdfrwt>
<totfact> 0.81009127E+00</totfact>
</mgrwt>
</event>
<event>
 6    1  0.1568961E-005  0.3785720E+04  0.7818608E-02  0.8049226E-01
         -1   -1    0    0    0  501 -0.00000000000E+00  0.00000000000E+00  0.11129515506E+04  0.11129515506E+04  0.00000000000E+00 0.  1.
          1   -1    0    0  501    0  0.00000000000E+00 -0.00000000000E+00 -0.32192947255E+04  0.32192947255E+04  0.00000000000E+00 0. -1.
         23    2    1    2    0    0  0.10413601915E+04 -0.11790780747E+04  0.14869518778E+03  0.15827273779E+04  0.90882007202E+02 0.  0.
         13    1    3    3    0    0  0.31003290600E+03 -0.32118244744E+03  0.62062745864E+01  0.44644942064E+03  0.00000000000E+00 0. -1.
        -13    1    3    3    0    0  0.73132728547E+03 -0.85789562724E+03  0.14248891319E+03  0.11362779572E+04  0.00000000000E+00 0.  1.
         22    1    1    2    0    0 -0.10413601915E+04  0.11790780747E+04 -0.22550383627E+04  0.27495188982E+04  0.00000000000E+00 0. -1.
<mgrwt>
<rscale>  0 0.37857200E+04</rscale>
<asrwt>0</asrwt>
<pdfrwt beam="1">  1        1 0.49527612E+00 0.37857200E+04</pdfrwt>
<pdfrwt beam="2">  1       -1 0.17122331E+00 0.37857200E+04</pdfrwt>
<totfact> 0.78855303E-02</totfact>
</mgrwt>
</event>
<event>
 6    1  0.1568961E-005  0.4094288E+04  0.7818608E-02  0.7985791E-01
          2   -1    0    0  501    0  0.00000000000E+00  0.00000000000E+00  0.17438741404E+04  0.17438741404E+04  0.00000000000E+00 0. -1.
         -2   -1    0    0    0  501 -0.00000000000E+00 -0.00000000000E+00 -0.24031536669E+04  0.24031536669E+04  0.00000000000E+00 0.  1.
         23    2    1    2    0    0 -0.23886074281E+03 -0.14516580390E+04  0.11106148336E+04  0.18455301291E+04  0.90280850995E+02 0.  0.
         13    1    3    3    0    0 -0.21087426479E+03 -0.13934631810E+04  0.10590633130E+04  0.17629017821E+04  0.00000000000E+00 0.  1.
        -13    1    3    3    0    0 -0.27986478018E+02 -0.58194858038E+02  0.51551520614E+02  0.82628347022E+02  0.00000000000E+00 0. -1.
         22    1    1    2    0    0  0.23886074281E+03  0.14516580390E+04 -0.17698943601E+04  0.23014976782E+04  0.00000000000E+00 0.  1.
<mgrwt>
<rscale>  0 0.40942875E+04</rscale>
<asrwt>0</asrwt>
<pdfrwt beam="1">  1        2 0.26828833E+00 0.40942875E+04</pdfrwt>
<pdfrwt beam="2">  1       -2 0.36971595E+00 0.40942875E+04</pdfrwt>
<totfact> 0.84596213E-02</totfact>
</mgrwt>
</event>
<event>
 6    1  0.1568961E-005  0.1724325E+04  0.7818608E-02  0.8747611E-01
          1   -1    0    0  501    0  0.00000000000E+00  0.00000000000E+00  0.11590601723E+04  0.11590601723E+04  0.00000000000E+00 0. -1.
         -1   -1    0    0    0  501 -0.00000000000E+00 -0.00000000000E+00 -0.64131607226E+03  0.64131607226E+03  0.00000000000E+00 0.  1.
         23    2    1    2    0    0 -0.14683146774E+02  0.82178886785E+03 -0.32107220810E+01  0.82726450131E+03  0.93828078248E+02 0.  0.
         11    1    3    3    0    0  0.28765703500E+02  0.36034169940E+03 -0.31876036044E+02  0.36289073796E+03  0.00000000000E+00 0.  1.
        -11    1    3    3    0    0 -0.43448850274E+02  0.46144716846E+03  0.28665313963E+02  0.46437376335E+03  0.00000000000E+00 0. -1.
         22    1    1    2    0    0  0.14683146774E+02 -0.82178886785E+03  0.52095482209E+03  0.97311174322E+03  0.00000000000E+00 0.  1.
<mgrwt>
<rscale>  0 0.17243247E+04</rscale>
<asrwt>0</asrwt>
<pdfrwt beam="1">  1        1 0.17831695E+00 0.17243247E+04</pdfrwt>
<pdfrwt beam="2">  1       -1 0.98664011E-01 0.17243247E+04</pdfrwt>
<totfact> 0.10692240E+01</totfact>
</mgrwt>
</event>
<event>
 6    1  0.1568961E-005  0.9702874E+03  0.7818608E-02  0.9341747E-01
         -2   -1    0    0    0  501 -0.00000000000E+00  0.00000000000E+00  0.81536836154E+03  0.81536836154E+03  0.00000000000E+00 0.  1.
          2   -1    0    0  501    0  0.00000000000E+00 -0.00000000000E+00 -0.28866019047E+03  0.28866019047E+03  0.00000000000E+00 0. -1.
         23    2    1    2    0    0 -0.13443578323E+03  0.45719980048E+03  0.33746280636E+03  0.59127281539E+03  0.92831886595E+02 0.  0.
         13    1    3    3    0    0 -0.83782939480E+02  0.22577720912E+03  0.22281677655E+03  0.32808877612E+03  0.00000000000E+00 0.  1.
        -13    1    3    3    0    0 -0.50652843746E+02  0.23142259136E+03  0.11464602981E+03  0.26318403926E+03  0.00000000000E+00 0. -1.
         22    1    1    2    0    0  0.13443578323E+03 -0.45719980048E+03  0.18924536471E+03  0.51275573662E+03  0.00000000000E+00 0. -1.
<mgrwt>
<rscale>  0 0.97028735E+03</rscale>
<asrwt>0</asrwt>
<pdfrwt beam="1">  1        2 0.44409261E-01 0.97028735E+03</pdfrwt>
<pdfrwt beam="2">  1       -2 0.12544128E+00 0.97028735E+03</pdfrwt>
<totfact> 0.54435192E+01</totfact>
</mgrwt>
</event>
<event>
 6    1  0.1568961E-005  0.3015806E+04  0.7818608E-02  0.8239232E-01
          2   -1    0    0  501    0  0.00000000000E+00  0.00000000000E+00  0.21003204032E+04  0.21003204032E+04  0.00000000000E+00 0. -1.
         -2   -1    0    0    0  501 -0.00000000000E+00 -0.00000000000E+00 -0.10825832106E+04  0.10825832106E+04  0.00000000000E+00 0.  1.
         23    2    1    2    0    0 -0.58790818752E+03  0.58927490762E+03  0.18348311826E+04  0.20164887896E+04  0.82101255952E+02 0.  0.
         11    1    3    3    0    0 -0.20652295076E+03  0.25632474666E+03  0.77134819039E+03  0.83864899437E+03  0.00000000000E+00 0.  1.
        -11    1    3    3    0    0 -0.38138523676E+03  0.33295016096E+03  0.10634829922E+04  0.11778397952E+04  0.00000000000E+00 0. -1.
         22    1    1    2    0    0  0.58790818752E+03 -0.58927490762E+03 -0.81709398995E+03  0.11664148242E+04  0.00000000000E+00 0.  1.
<mgrwt>
<rscale>  0 0.30158061E+04</rscale>
<asrwt>0</asrwt>
<pdfrwt beam="1">  1        2 0.32312621E+00 0.30158061E+04</pdfrwt>
<pdfrwt beam="2">  1       -2 0.16655126E+00 0.30158061E+04</pdfrwt>
<totfact> 0.11329036E+00</totfact>
</mgrwt>
</event>
<event>
 6    1  0.1568961E-005  0.2984134E+04  0.7818608E-02  0.8248276E-01
          2   -1    0    0  501    0  0.00000000000E+00  0.00000000000E+00  0.27529883667E+04  0.27529883667E+04  0.00000000000E+00 0. -1.
         -2   -1    0    0    0  501 -0.00000000000E+00 -0.00000000000E+00 -0.80867201834E+03  0.80867201834E+03  0.00000000000E+00 0.  1.
         23    2    1    2    0    0 -0.71373008649E+03 -0.12158034203E+04  0.15508580970E+04  0.20979671150E+04  0.93362654946E+02 0.  0.
         11    1    3    3    0    0 -0.42321029058E+03 -0.63822590223E+03  0.87096136557E+03  0.11597469347E+04  0.00000000000E+00 0.  1.
        -11    1    3    3    0    0 -0.29051979592E+03 -0.57757751809E+03  0.67989673139E+03  0.93822018023E+03  0.00000000000E+00 0. -1.
         22    1    1    2    0    0  0.71373008649E+03  0.12158034203E+04  0.39345825138E+03  0.14636932701E+04  0.00000000000E+00 0.  1.
<mgrwt>
<rscale>  0 0.29841345E+04</rscale>
<asrwt>0</asrwt>
<pdfrwt beam="1">  1        2 0.42353667E+00 0.29841345E+04</pdfrwt>
<pdfrwt beam="2">  1       -2 0.12441108E+00 0.29841345E+04</pdfrwt>
<totfact> 0.10261712E+00</totfact>
</mgrwt>
</event>
<event>
 6    1  0.1568961E-005  0.3213986E+04  0.7818608E-02  0.8185133E-01
          2   -1    0    0  501    0  0.00000000000E+00  0.00000000000E+00  0.30048776316E+04  0.30048776316E+04  0.00000000000E+00 0.  1.
         -2   -1    0    0    0  501 -0.00000000000E+00 -0.00000000000E+00 -0.85941156998E+03  0.85941156998E+03  0.00000000000E+00 0. -1.
         23    2    1    2    0    0 -0.98576089028E+02 -0.15991296697E+04  0.94595779135E+03  0.18628514592E+04  0.91904680149E+02 0.  0.
         11    1    3    3    0    0 -0.97707101813E+02 -0.96606390834E+03  0.54487778020E+03  0.11134262203E+04  0.00000000000E+00 0. -1.
        -11    1    3    3    0    0 -0.86898721494E+00 -0.63306576139E+03  0.40108001115E+03  0.74942523892E+03  0.00000000000E+00 0.  1.
         22    1    1    2    0    0  0.98576089028E+02  0.15991296697E+04  0.11995082702E+04  0.20014377423E+04  0.00000000000E+00 0. -1.
<mgrwt>
<rscale>  0 0.32139861E+04</rscale>
<asrwt>0</asrwt>
<pdfrwt beam="1">  1        2 0.46228886E+00 0.32139861E+04</pdfrwt>
<pdfrwt beam="2">  1       -2 0.13221717E+00 0.32139861E+04</pdfrwt>
<totfact> 0.60456533E-01</totfact>
</mgrwt>
</event>
<event>
 6    1  0.1568961E-005  0.2331160E+04  0.7818608E-02  0.8465736E-01
         -1   -1    0    0    0  501 -0.00000000000E+00  0.00000000000E+00  0.42497476059E+03  0.42497476059E+03  0.00000000000E+00 0.  1.
          1   -1    0    0  501    0  0.00000000000E+00 -0.00000000000E+00 -0.31968399098E+04  0.31968399098E+04  0.00000000000E+00 0. -1.
         23    2    1    2    0    0 -0.70030047761E+03  0.32766888865E+03 -0.36373869358E+02  0.77915742730E+03  0.89306095058E+02 0.  0.
         13    1    3    3    0    0 -0.48501812771E+03  0.20567623058E+03 -0.61672370071E+02  0.53042320581E+03  0.00000000000E+00 0.  1.
        -13    1    3    3    0    0 -0.21528234990E+03  0.12199265807E+03  0.25298500713E+02  0.24873422149E+03  0.00000000000E+00 0. -1.
         22    1    1    2    0    0  0.70030047761E+03 -0.32766888865E+03 -0.27354912799E+04  0.28426572431E+04  0.00000000000E+00 0. -1.
<mgrwt>
<rscale>  0 0.23311596E+04</rscale>
<asrwt>0</asrwt>
<pdfrwt beam="1">  1        1 0.49182152E+00 0.23311596E+04</pdfrwt>
<pdfrwt beam="2">  1       -1 0.65380733E-01 0.23311596E+04</pdfrwt>
<totfact> 0.91455075E-01</totfact>
</mgrwt>
</event>
<event>
 6    1  0.1568961E-005  0.4540328E+04  0.7818608E-02  0.7903614E-01
          2   -1    0    0  501    0  0.00000000000E+00  0.00000000000E+00  0.19218851925E+04  0.19218851925E+04  0.00000000000E+00 0. -1.
         -2   -1    0    0    0  501 -0.00000000000E+00 -0.00000000000E+00 -0.26815574641E+04  0.26815574641E+04  0.00000000000E+00 0.  1.
         23    2    1    2    0    0  0.38669328033E+03 -0.20135472151E+04  0.60571229506E+03  0.21400752266E+04  0.95553706669E+02 0.  0.
         11    1    3    3    0    0  0.96747278604E+02 -0.67822237235E+03  0.23448110902E+03  0.72410428307E+03  0.00000000000E+00 0. -1.
        -11    1    3    3    0    0  0.28994600173E+03 -0.13353248427E+04  0.37123118604E+03  0.14159709435E+04  0.00000000000E+00 0.  1.
         22    1    1    2    0    0 -0.38669328033E+03  0.20135472151E+04 -0.13653845666E+04  0.24633674300E+04  0.00000000000E+00 0.  1.
<mgrwt>
<rscale>  0 0.45403284E+04</rscale>
<asrwt>0</asrwt>
<pdfrwt beam="1">  1        2 0.29567465E+00 0.45403284E+04</pdfrwt>
<pdfrwt beam="2">  1       -2 0.41254730E+00 0.45403284E+04</pdfrwt>
<totfact> 0.34253939E-02</totfact>
</mgrwt>
</event>
<event>
 6    1  0.1568961E-005  0.1895436E+04  0.7818608E-02  0.8657132E-01
         -1   -1    0    0    0  501 -0.00000000000E+00  0.00000000000E+00  0.65104747769E+03  0.65104747769E+03  0.00000000000E+00 0.  1.
          1   -1    0    0  501    0  0.00000000000E+00 -0.00000000000E+00 -0.13795755090E+04  0.13795755090E+04  0.00000000000E+00 0. -1.
         23    2    1    2    0    0 -0.43294544721E+03 -0.79781661470E+03 -0.64919534447E+03  0.11194441974E+04  0.88020479262E+02 0.  0.
         11    1    3    3    0    0 -0.27094545685E+03 -0.41892756565E+03 -0.38151498952E+03  0.62806483190E+03  0.00000000000E+00 0. -1.
        -11    1    3    3    0    0 -0.16199999036E+03 -0.37888904905E+03 -0.26768035495E+03  0.49137936545E+03  0.00000000000E+00 0.  1.
         22    1    1    2    0    0  0.43294544721E+03  0.79781661470E+03 -0.79332686843E+02  0.91117878934E+03  0.00000000000E+00 0.  1.
<mgrwt>
<rscale>  0 0.18954357E+04</rscale>
<asrwt>0</asrwt>
<pdfrwt beam="1">  1        1 0.21224238E+00 0.18954357E+04</pdfrwt>
<pdfrwt beam="2">  1       -1 0.10016115E+00 0.18954357E+04</pdfrwt>
<totfact> 0.70587503E+00</totfact>
</mgrwt>
</event>
<event>
 6    1  0.1568961E-005  0.3471582E+04  0.7818608E-02  0.8120558E-01
         -2   -1    0    0    0  501 -0.00000000000E+00  0.00000000000E+00  0.17454545503E+04  0.17454545503E+04  0.00000000000E+00 0. -1.
          2   -1    0    0  501    0  0.00000000000E+00 -0.00000000000E+00 -0.17261806627E+04  0.17261806627E+04  0.00000000000E+00 0.  1.
         23    2    1    2    0    0 -0.12570831474E+04  0.75384335851E+03  0.93708212685E+03  0.17422105073E+04  0.92933798064E+02 0.  0.
         13    1    3    3    0    0 -0.84088243716E+03  0.55117622033E+03  0.62301343430E+03  0.11828035502E+04  0.00000000000E+00 0. -1.
        -13    1    3    3    0    0 -0.41620071021E+03  0.20266713817E+03  0.31406869255E+03  0.55940695716E+03  0.00000000000E+00 0.  1.
         22    1    1    2    0    0  0.12570831474E+04 -0.75384335851E+03 -0.91780823919E+03  0.17294247056E+04  0.00000000000E+00 0.  1.
<mgrwt>
<rscale>  0 0.34715817E+04</rscale>
<asrwt>0</asrwt>
<pdfrwt beam="1">  1        2 0.26556625E+00 0.34715817E+04</pdfrwt>
<pdfrwt beam="2">  1       -2 0.26853147E+00 0.34715817E+04</pdfrwt>
<totfact> 0.38646930E-01</totfact>
</mgrwt>
</event>
<event>
 6    1  0.1568961E-005  0.2752706E+03  0.7818608E-02  0.1098300E+00
         -1   -1    0    0    0  501 -0.00000000000E+00  0.00000000000E+00  0.61997144893E+02  0.61997144893E+02  0.00000000000E+00 0.  1.
          1   -1    0    0  501    0  0.00000000000E+00 -0.00000000000E+00 -0.30555403928E+03  0.30555403928E+03  0.00000000000E+00 0. -1.
         23    2    1    2    0    0  0.90379978441E+02  0.82680615778E+02 -0.13416657664E+03  0.20332309174E+03  0.91296136923E+02 0.  0.
         13    1    3    3    0    0  0.43534543582E+02  0.57950959839E+02 -0.13165861464E+03  0.15029158673E+03  0.00000000000E+00 0. -1.
        -13    1    3    3    0    0  0.46845434858E+02  0.24729655939E+02 -0.25079619958E+01  0.53031505007E+02  0.00000000000E+00 0.  1.
         22    1    1    2    0    0 -0.90379978441E+02 -0.82680615778E+02 -0.10939031774E+03  0.16422809243E+03  0.00000000000E+00 0. -1.
<mgrwt>
<rscale>  0 0.27527062E+03</rscale>
<asrwt>0</asrwt>
<pdfrwt beam="1">  1        1 0.47008314E-01 0.27527062E+03</pdfrwt>
<pdfrwt beam="2">  1       -1 0.95380223E-02 0.27527062E+03</pdfrwt>
<totfact> 0.55793321E+03</totfact>
</mgrwt>
</event>
<event>
 6    1  0.1568961E-005  0.4105686E+04  0.7818608E-02  0.7983559E-01
          2   -1    0    0  501    0  0.00000000000E+00  0.00000000000E+00  0.35975574602E+04  0.35975574602E+04  0.00000000000E+00 0. -1.
         -2   -1    0    0    0  501 -0.00000000000E+00 -0.00000000000E+00 -0.11713959283E+04  0.11713959283E+04  0.00000000000E+00 0.  1.
         23    2    1    2    0    0  0.21645570865E+03 -0.89680063030E+03 -0.91553021901E+03  0.13022534876E+04  0.81019255156E+02 0.  0.
         11    1    3    3    0    0  0.16236953785E+03 -0.78690273476E+03 -0.78670637656E+03  0.11244939767E+04  0.00000000000E+00 0. -1.
        -11    1    3    3    0    0  0.54086170796E+02 -0.10989789554E+03 -0.12882384245E+03  0.17775951085E+03  0.00000000000E+00 0.  1.
         22    1    1    2    0    0 -0.21645570865E+03  0.89680063030E+03  0.33416917509E+04  0.34666999008E+04  0.00000000000E+00 0. -1.
<mgrwt>
<rscale>  0 0.41056859E+04</rscale>
<asrwt>0</asrwt>
<pdfrwt beam="1">  1        2 0.55347037E+00 0.41056859E+04</pdfrwt>
<pdfrwt beam="2">  1       -2 0.18021476E+00 0.41056859E+04</pdfrwt>
<totfact> 0.97770401E-02</totfact>
</mgrwt>
</event>
<event>
 6    1  0.1568961E-005  0.1890775E+04  0.7818608E-02  0.8659462E-01
         -2   -1    0    0    0  501 -0.00000000000E+00  0.00000000000E+00  0.67771931287E+03  0.67771931287E+03  0.00000000000E+00 0.  1.
          2   -1    0    0  501    0  0.00000000000E+00 -0.00000000000E+00 -0.13187719324E+04  0.13187719324E+04  0.00000000000E+00 0. -1.
         23    2    1    2    0    0 -0.29831052626E+03  0.70998703892E+03 -0.89624194789E+03  0.11852006938E+04  0.91543923628E+02 0.  0.
         11    1    3    3    0    0 -0.22663085483E+03  0.60405522904E+03 -0.78119044451E+03  0.10131647323E+04  0.00000000000E+00 0.  1.
        -11    1    3    3    0    0 -0.71679671423E+02  0.10593180987E+03 -0.11505150338E+03  0.17203596155E+03  0.00000000000E+00 0. -1.
         22    1    1    2    0    0  0.29831052626E+03 -0.70998703892E+03  0.25518932838E+03  0.81129055142E+03  0.00000000000E+00 0.  1.
<mgrwt>
<rscale>  0 0.18907747E+04</rscale>
<asrwt>0</asrwt>
<pdfrwt beam="1">  1        2 0.20288798E+00 0.18907747E+04</pdfrwt>
<pdfrwt beam="2">  1       -2 0.10426451E+00 0.18907747E+04</pdfrwt>
<totfact> 0.11297089E+01</totfact>
</mgrwt>
</event>
<event>
 6    1  0.1568961E-005  0.2861102E+04  0.7818608E-02  0.8284546E-01
          2   -1    0    0  501    0  0.00000000000E+00  0.00000000000E+00  0.22757735898E+04  0.22757735898E+04  0.00000000000E+00 0. -1.
         -2   -1    0    0    0  501 -0.00000000000E+00 -0.00000000000E+00 -0.89924388444E+03  0.89924388444E+03  0.00000000000E+00 0.  1.
         23    2    1    2    0    0  0.82737405159E+03 -0.67473937834E+02 -0.60195364296E+03  0.10294413481E+04  0.91108437410E+02 0.  0.
         13    1    3    3    0    0  0.70610823376E+03 -0.38144782391E+02 -0.54235496073E+03  0.89117493549E+03  0.00000000000E+00 0.  1.
        -13    1    3    3    0    0  0.12126581783E+03 -0.29329155443E+02 -0.59598682225E+02  0.13826641261E+03  0.00000000000E+00 0. -1.
         22    1    1    2    0    0 -0.82737405159E+03  0.67473937834E+02  0.19784833483E+04  0.21455761261E+04  0.00000000000E+00 0. -1.
<mgrwt>
<rscale>  0 0.28611015E+04</rscale>
<asrwt>0</asrwt>
<pdfrwt beam="1">  1        2 0.35011901E+00 0.28611015E+04</pdfrwt>
<pdfrwt beam="2">  1       -2 0.13834521E+00 0.28611015E+04</pdfrwt>
<totfact> 0.15006192E+00</totfact>
</mgrwt>
</event>
<event>
 6    1  0.1568961E-005  0.1933771E+04  0.7818608E-02  0.8638227E-01
         -1   -1    0    0    0  501 -0.00000000000E+00  0.00000000000E+00  0.83687789152E+03  0.83687789152E+03  0.00000000000E+00 0.  1.
          1   -1    0    0  501    0  0.00000000000E+00 -0.00000000000E+00 -0.11170890725E+04  0.11170890725E+04  0.00000000000E+00 0. -1.
         23    2    1    2    0    0  0.58548953693E+03  0.59870401090E+03 -0.62445526411E+03  0.10485673400E+04  0.91129572882E+02 0.  0.
         13    1    3    3    0    0  0.29780695696E+03  0.27884746660E+03 -0.35614079261E+03  0.54155439006E+03  0.00000000000E+00 0.  1.
        -13    1    3    3    0    0  0.28768257997E+03  0.31985654430E+03 -0.26831447150E+03  0.50701294991E+03  0.00000000000E+00 0. -1.
         22    1    1    2    0    0 -0.58548953693E+03 -0.59870401090E+03  0.34424408310E+03  0.90539962407E+03  0.00000000000E+00 0.  1.
<mgrwt>
<rscale>  0 0.19337706E+04</rscale>
<asrwt>0</asrwt>
<pdfrwt beam="1">  1        1 0.17185986E+00 0.19337706E+04</pdfrwt>
<pdfrwt beam="2">  1       -1 0.12875045E+00 0.19337706E+04</pdfrwt>
<totfact> 0.59682225E+00</totfact>
</mgrwt>
</event>
<event>
 6    1  0.1568961E-005  0.2096890E+04  0.7818608E-02  0.8562614E-01
         -1   -1    0    0    0  501 -0.00000000000E+00  0.00000000000E+00  0.69552570808E+03  0.69552570808E+03  0.00000000000E+00 0.  1.
          1   -1    0    0  501    0  0.00000000000E+00 -0.00000000000E+00 -0.15804409466E+04  0.15804409466E+04  0.00000000000E+00 0. -1.
         23    2    1    2    0    0  0.25517767108E+03  0.94063449037E+03 -0.30900411482E+02  0.98010778385E+03  0.98729652290E+02 0.  0.
         13    1    3    3    0    0  0.10577408253E+03  0.24370295800E+03  0.13053177808E+02  0.26598810824E+03  0.00000000000E+00 0.  1.
        -13    1    3    3    0    0  0.14940358854E+03  0.69693153237E+03 -0.43953589290E+02  0.71411967561E+03  0.00000000000E+00 0. -1.
         22    1    1    2    0    0 -0.25517767108E+03 -0.94063449037E+03 -0.85401482703E+03  0.12958588708E+04  0.00000000000E+00 0. -1.
<mgrwt>
<rscale>  0 0.20968904E+04</rscale>
<asrwt>0</asrwt>
<pdfrwt beam="1">  1        1 0.24314476E+00 0.20968904E+04</pdfrwt>
<pdfrwt beam="2">  1       -1 0.10700396E+00 0.20968904E+04</pdfrwt>
<totfact> 0.43124783E+00</totfact>
</mgrwt>
</event>
<event>
 6    1  0.1568961E-005  0.3854641E+04  0.7818608E-02  0.8034530E-01
         -2   -1    0    0    0  501 -0.00000000000E+00  0.00000000000E+00  0.16774950705E+04  0.16774950705E+04  0.00000000000E+00 0.  1.
          2   -1    0    0  501    0  0.00000000000E+00 -0.00000000000E+00 -0.22143521966E+04  0.22143521966E+04  0.00000000000E+00 0. -1.
         23    2    1    2    0    0  0.11609433450E+04 -0.24137030692E+03 -0.18012428269E+04  0.21584343689E+04  0.91181838505E+02 0.  0.
         11    1    3    3    0    0  0.11166274089E+03  0.37603198948E+01 -0.17185557359E+03  0.20498059879E+03  0.00000000000E+00 0. -1.
        -11    1    3    3    0    0  0.10492806041E+04 -0.24513062682E+03 -0.16293872534E+04  0.19534537701E+04  0.00000000000E+00 0.  1.
         22    1    1    2    0    0 -0.11609433450E+04  0.24137030692E+03  0.12643857008E+04  0.17334128983E+04  0.00000000000E+00 0.  1.
<mgrwt>
<rscale>  0 0.38546413E+04</rscale>
<asrwt>0</asrwt>
<pdfrwt beam="1">  1        2 0.34066957E+00 0.38546413E+04</pdfrwt>
<pdfrwt beam="2">  1       -2 0.25807617E+00 0.38546413E+04</pdfrwt>
<totfact> 0.23195731E-01</totfact>
</mgrwt>
</event>
<event>
 6    1  0.1756821E-005  0.4110300E+04  0.7818608E-02  0.7982658E-01
         -2   -1    0    0    0  501 -0.00000000000E+00  0.00000000000E+00  0.19064617252E+04  0.19064617252E+04  0.00000000000E+00 0.  1.
          2   -1    0    0  501    0  0.00000000000E+00 -0.00000000000E+00 -0.22154345251E+04  0.22154345251E+04  0.00000000000E+00 0. -1.
         23    2    1    2    0    0  0.15432138374E+04  0.93747467054E+03  0.82758872195E+03  0.19883218319E+04  0.90293458499E+02 0.  0.
         11    1    3    3    0    0  0.90497002456E+03  0.60098499432E+03  0.49053288280E+03  0.11919631781E+04  0.00000000000E+00 0.  1.
        -11    1    3    3    0    0  0.63824381280E+03  0.33648967622E+03  0.33705583915E+03  0.79635865380E+03  0.00000000000E+00 0. -1.
         22    1    1    2    0    0 -0.15432138374E+04 -0.93747467054E+03 -0.11365615219E+04  0.21335744184E+04  0.00000000000E+00 0. -1.
<mgrwt>
<rscale>  0 0.41102998E+04</rscale>
<asrwt>0</asrwt>
<pdfrwt beam="1">  1        2 0.34083608E+00 0.41102998E+04</pdfrwt>
<pdfrwt beam="2">  1       -2 0.29330180E+00 0.41102998E+04</pdfrwt>
<totfact> 0.13823812E-01</totfact>
</mgrwt>
</event>
<event>
 6    1  0.1568961E-005  0.2352507E+04  0.7818608E-02  0.8457502E-01
         -2   -1    0    0    0  501 -0.00000000000E+00  0.00000000000E+00  0.41483993228E+03  0.41483993228E+03  0.00000000000E+00 0.  1.
          2   -1    0    0  501    0  0.00000000000E+00 -0.00000000000E+00 -0.33351942424E+04  0.33351942424E+04  0.00000000000E+00 0. -1.
         23    2    1    2    0    0 -0.10119568138E+04  0.58663840760E+03 -0.12964872630E+04  0.17487482379E+04  0.95078714509E+02 0.  0.
         11    1    3    3    0    0 -0.15184027834E+03  0.12860694852E+03 -0.21123036933E+03  0.29019560000E+03  0.00000000000E+00 0.  1.
        -11    1    3    3    0    0 -0.86011653545E+03  0.45803145909E+03 -0.10852568937E+04  0.14585526379E+04  0.00000000000E+00 0. -1.
         22    1    1    2    0    0  0.10119568138E+04 -0.58663840760E+03 -0.16238670471E+04  0.20012859368E+04  0.00000000000E+00 0.  1.
<mgrwt>
<rscale>  0 0.23525065E+04</rscale>
<asrwt>0</asrwt>
<pdfrwt beam="1">  1        2 0.51310681E+00 0.23525065E+04</pdfrwt>
<pdfrwt beam="2">  1       -2 0.63821528E-01 0.23525065E+04</pdfrwt>
<totfact> 0.21659770E+00</totfact>
</mgrwt>
</event>
<event>
 6    1  0.1568961E-005  0.1306636E+04  0.7818608E-02  0.9024319E-01
          2   -1    0    0  501    0  0.00000000000E+00  0.00000000000E+00  0.11641353963E+04  0.11641353963E+04  0.00000000000E+00 0. -1.
         -2   -1    0    0    0  501 -0.00000000000E+00 -0.00000000000E+00 -0.36664525083E+03  0.36664525083E+03  0.00000000000E+00 0.  1.
         23    2    1    2    0    0 -0.11532661219E+03 -0.36280543349E+03  0.10182044970E+04  0.10907319737E+04  0.89598163144E+02 0.  0.
         11    1    3    3    0    0 -0.25967849641E+02 -0.19623830915E+03  0.44163009511E+03  0.48396378387E+03  0.00000000000E+00 0. -1.
        -11    1    3    3    0    0 -0.89358762551E+02 -0.16656712434E+03  0.57657440184E+03  0.60676818985E+03  0.00000000000E+00 0.  1.
         22    1    1    2    0    0  0.11532661219E+03  0.36280543349E+03 -0.22071435145E+03  0.44004867343E+03  0.00000000000E+00 0.  1.
<mgrwt>
<rscale>  0 0.13066365E+04</rscale>
<asrwt>0</asrwt>
<pdfrwt beam="1">  1        2 0.17909775E+00 0.13066365E+04</pdfrwt>
<pdfrwt beam="2">  1       -2 0.56406962E-01 0.13066365E+04</pdfrwt>
<totfact> 0.57514870E+01</totfact>
</mgrwt>
</event>
<event>
 6    1  0.1568961E-005  0.1619424E+04  0.7818608E-02  0.8808703E-01
         -2   -1    0    0    0  501 -0.00000000000E+00  0.00000000000E+00  0.62642386664E+03  0.62642386664E+03  0.00000000000E+00 0.  1.
          2   -1    0    0  501    0  0.00000000000E+00 -0.00000000000E+00 -0.10466295621E+04  0.10466295621E+04  0.00000000000E+00 0. -1.
         23    2    1    2    0    0 -0.42283046992E+03 -0.41243961152E+02 -0.91978076130E+03  0.10172623667E+04  0.91320333035E+02 0.  0.
         11    1    3    3    0    0 -0.29214947685E+03 -0.51585579378E+02 -0.54962957628E+03  0.62458390945E+03  0.00000000000E+00 0. -1.
        -11    1    3    3    0    0 -0.13068099307E+03  0.10341618226E+02 -0.37015118502E+03  0.39267845725E+03  0.00000000000E+00 0.  1.
         22    1    1    2    0    0  0.42283046992E+03  0.41243961152E+02  0.49957506584E+03  0.65579106203E+03  0.00000000000E+00 0.  1.
<mgrwt>
<rscale>  0 0.16194243E+04</rscale>
<asrwt>0</asrwt>
<pdfrwt beam="1">  1        2 0.16101993E+00 0.16194243E+04</pdfrwt>
<pdfrwt beam="2">  1       -2 0.96372903E-01 0.16194243E+04</pdfrwt>
<totfact> 0.20302188E+01</totfact>
</mgrwt>
</event>
<event>
 6    1  0.1568961E-005  0.1710257E+04  0.7818608E-02  0.8755536E-01
          2   -1    0    0  501    0  0.00000000000E+00  0.00000000000E+00  0.15710902376E+04  0.15710902376E+04  0.00000000000E+00 0. -1.
         -2   -1    0    0    0  501 -0.00000000000E+00 -0.00000000000E+00 -0.46543757271E+03  0.46543757271E+03  0.00000000000E+00 0.  1.
         23    2    1    2    0    0 -0.44789992803E+03  0.72301472622E+03  0.62813845363E+03  0.10611384205E+04  0.89956604260E+02 0.  0.
         11    1    3    3    0    0 -0.17243011231E+03  0.23056541833E+03  0.25553596474E+03  0.38495608196E+03  0.00000000000E+00 0. -1.
        -11    1    3    3    0    0 -0.27546981571E+03  0.49244930789E+03  0.37260248889E+03  0.67618233853E+03  0.00000000000E+00 0.  1.
         22    1    1    2    0    0  0.44789992803E+03 -0.72301472622E+03  0.47751421131E+03  0.97538938986E+03  0.00000000000E+00 0.  1.
<mgrwt>
<rscale>  0 0.17102566E+04</rscale>
<asrwt>0</asrwt>
<pdfrwt beam="1">  1        2 0.24170619E+00 0.17102566E+04</pdfrwt>
<pdfrwt beam="2">  1       -2 0.71605781E-01 0.17102566E+04</pdfrwt>
<totfact> 0.19465956E+01</totfact>
</mgrwt>
</event>
<event>
 6    1  0.1568961E-005  0.3539633E+04  0.7818608E-02  0.8104461E-01
         -2   -1    0    0    0  501 -0.00000000000E+00  0.00000000000E+00  0.85740071430E+03  0.85740071430E+03  0.00000000000E+00 0. -1.
          2   -1    0    0  501    0  0.00000000000E+00 -0.00000000000E+00 -0.36531941202E+04  0.36531941202E+04  0.00000000000E+00 0.  1.
         23    2    1    2    0    0 -0.26560263320E+03 -0.17160454379E+04 -0.97075530282E+03  0.19914440289E+04  0.90148537645E+02 0.  0.
         13    1    3    3    0    0 -0.16889594256E+03 -0.13367876400E+04 -0.75484455058E+03  0.15444472570E+04  0.00000000000E+00 0.  1.
        -13    1    3    3    0    0 -0.96706690637E+02 -0.37925779782E+03 -0.21591075224E+03  0.44699677197E+03  0.00000000000E+00 0. -1.
         22    1    1    2    0    0  0.26560263320E+03  0.17160454379E+04 -0.18250381031E+04  0.25191508056E+04  0.00000000000E+00 0. -1.
<mgrwt>
<rscale>  0 0.35396335E+04</rscale>
<asrwt>0</asrwt>
<pdfrwt beam="1">  1        2 0.56202987E+00 0.35396335E+04</pdfrwt>
<pdfrwt beam="2">  1       -2 0.13190780E+00 0.35396335E+04</pdfrwt>
<totfact> 0.21614966E-01</totfact>
</mgrwt>
</event>
<event>
 6    1  0.1568961E-005  0.2492080E+04  0.7818608E-02  0.8405813E-01
         -2   -1    0    0    0  501 -0.00000000000E+00  0.00000000000E+00  0.50735443078E+03  0.50735443078E+03  0.00000000000E+00 0.  1.
          2   -1    0    0  501    0  0.00000000000E+00 -0.00000000000E+00 -0.30602188852E+04  0.30602188852E+04  0.00000000000E+00 0. -1.
         23    2    1    2    0    0  0.10749777364E+04 -0.14259460555E+03 -0.40438850020E+03  0.11609451185E+04  0.91395589732E+02 0.  0.
         11    1    3    3    0    0  0.29489688705E+03 -0.45059373817E+02 -0.15499014166E+03  0.33617921586E+03  0.00000000000E+00 0. -1.
        -11    1    3    3    0    0  0.78008084930E+03 -0.97535231736E+02 -0.24939835854E+03  0.82476590262E+03  0.00000000000E+00 0.  1.
         22    1    1    2    0    0 -0.10749777364E+04  0.14259460555E+03 -0.21484759543E+04  0.24066281975E+04  0.00000000000E+00 0.  1.
<mgrwt>
<rscale>  0 0.24920799E+04</rscale>
<asrwt>0</asrwt>
<pdfrwt beam="1">  1        2 0.47080292E+00 0.24920799E+04</pdfrwt>
<pdfrwt beam="2">  1       -2 0.78054525E-01 0.24920799E+04</pdfrwt>
<totfact> 0.20804497E+00</totfact>
</mgrwt>
</event>
<event>
 6    1  0.1568961E-005  0.3509043E+04  0.7818608E-02  0.8111650E-01
         -1   -1    0    0    0  501 -0.00000000000E+00  0.00000000000E+00  0.78750093658E+03  0.78750093658E+03  0.00000000000E+00 0. -1.
          1   -1    0    0  501    0  0.00000000000E+00 -0.00000000000E+00 -0.39090067984E+04  0.39090067984E+04  0.00000000000E+00 0.  1.
         23    2    1    2    0    0  0.13437297348E+04  0.61438805463E+03 -0.28253038904E+04  0.31895844158E+04  0.89578964080E+02 0.  0.
         13    1    3    3    0    0  0.56543189092E+03  0.29819730832E+03 -0.11654346422E+04  0.13292376624E+04  0.00000000000E+00 0.  1.
        -13    1    3    3    0    0  0.77829784392E+03  0.31619074632E+03 -0.16598692482E+04  0.18603467534E+04  0.00000000000E+00 0. -1.
         22    1    1    2    0    0 -0.13437297348E+04 -0.61438805463E+03 -0.29620197147E+03  0.15069233192E+04  0.00000000000E+00 0. -1.
<mgrwt>
<rscale>  0 0.35090435E+04</rscale>
<asrwt>0</asrwt>
<pdfrwt beam="1">  1        1 0.60138566E+00 0.35090435E+04</pdfrwt>
<pdfrwt beam="2">  1       -1 0.12115399E+00 0.35090435E+04</pdfrwt>
<totfact> 0.56633134E-02</totfact>
</mgrwt>
</event>
<event>
 6    1  0.1568961E-005  0.1850286E+04  0.7818608E-02  0.8680006E-01
         -2   -1    0    0    0  501 -0.00000000000E+00  0.00000000000E+00  0.22665767222E+03  0.22665767222E+03  0.00000000000E+00 0.  1.
          2   -1    0    0  501    0  0.00000000000E+00 -0.00000000000E+00 -0.37761345508E+04  0.37761345508E+04  0.00000000000E+00 0. -1.
         23    2    1    2    0    0 -0.45960765951E+02  0.10214142515E+03 -0.37608417606E+04  0.37635844136E+04  0.89953472421E+02 0.  0.
         13    1    3    3    0    0  0.57634223444E+01  0.65336576354E+02 -0.27312345180E+04  0.27320219760E+04  0.00000000000E+00 0. -1.
        -13    1    3    3    0    0 -0.51724188295E+02  0.36804848797E+02 -0.10296072426E+04  0.10315624375E+04  0.00000000000E+00 0.  1.
         22    1    1    2    0    0  0.45960765951E+02 -0.10214142515E+03  0.21136488202E+03  0.23920780943E+03  0.00000000000E+00 0.  1.
<mgrwt>
<rscale>  0 0.18502863E+04</rscale>
<asrwt>0</asrwt>
<pdfrwt beam="1">  1        2 0.58094373E+00 0.18502863E+04</pdfrwt>
<pdfrwt beam="2">  1       -2 0.34870414E-01 0.18502863E+04</pdfrwt>
<totfact> 0.37539000E+00</totfact>
</mgrwt>
</event>
<event>
 6    1  0.1822146E-005  0.3431278E+04  0.7818608E-02  0.8130272E-01
          1   -1    0    0  501    0  0.00000000000E+00  0.00000000000E+00  0.17765437420E+04  0.17765437420E+04  0.00000000000E+00 0. -1.
         -1   -1    0    0    0  501 -0.00000000000E+00 -0.00000000000E+00 -0.16568220215E+04  0.16568220215E+04  0.00000000000E+00 0.  1.
         23    2    1    2    0    0 -0.74896272948E+03 -0.74231307517E+03  0.14124797358E+04  0.17650740751E+04  0.91725760247E+02 0.  0.
         11    1    3    3    0    0 -0.54860170224E+03 -0.56490693486E+03  0.99026086319E+03  0.12651878319E+04  0.00000000000E+00 0. -1.
        -11    1    3    3    0    0 -0.20036102724E+03 -0.17740614031E+03  0.42221887257E+03  0.49988624327E+03  0.00000000000E+00 0.  1.
         22    1    1    2    0    0  0.74896272948E+03  0.74231307517E+03 -0.12927580152E+04  0.16682916884E+04  0.00000000000E+00 0.  1.
<mgrwt>
<rscale>  0 0.34312778E+04</rscale>
<asrwt>0</asrwt>
<pdfrwt beam="1">  1        1 0.27331442E+00 0.34312778E+04</pdfrwt>
<pdfrwt beam="2">  1       -1 0.25489570E+00 0.34312778E+04</pdfrwt>
<totfact> 0.22464225E-01</totfact>
</mgrwt>
</event>
<event>
 6    1  0.1568961E-005  0.2422234E+04  0.7818608E-02  0.8431226E-01
          1   -1    0    0  501    0  0.00000000000E+00  0.00000000000E+00  0.31593424730E+04  0.31593424730E+04  0.00000000000E+00 0. -1.
         -1   -1    0    0    0  501 -0.00000000000E+00 -0.00000000000E+00 -0.46427520563E+03  0.46427520563E+03  0.00000000000E+00 0.  1.
         23    2    1    2    0    0  0.44132770357E+03 -0.26554410771E+03  0.29863441811E+04  0.30319031735E+04  0.94347606265E+02 0.  0.
         11    1    3    3    0    0  0.57546025369E+02 -0.66893247777E+02  0.39157002017E+03  0.40138925289E+03  0.00000000000E+00 0.  1.
        -11    1    3    3    0    0  0.38378167820E+03 -0.19865085993E+03  0.25947741609E+04  0.26305139206E+04  0.00000000000E+00 0. -1.
         22    1    1    2    0    0 -0.44132770357E+03  0.26554410771E+03 -0.29127691371E+03  0.59171450509E+03  0.00000000000E+00 0.  1.
<mgrwt>
<rscale>  0 0.24222340E+04</rscale>
<asrwt>0</asrwt>
<pdfrwt beam="1">  1        1 0.48605267E+00 0.24222340E+04</pdfrwt>
<pdfrwt beam="2">  1       -1 0.71426957E-01 0.24222340E+04</pdfrwt>
<totfact> 0.80743359E-01</totfact>
</mgrwt>
</event>
<event>
 6    1  0.1568961E-005  0.4755105E+04  0.7818608E-02  0.7867437E-01
          1   -1    0    0  501    0  0.00000000000E+00  0.00000000000E+00  0.30246935771E+04  0.30246935771E+04  0.00000000000E+00 0. -1.
         -1   -1    0    0    0  501 -0.00000000000E+00 -0.00000000000E+00 -0.18688687359E+04  0.18688687359E+04  0.00000000000E+00 0.  1.
         23    2    1    2    0    0 -0.19262446188E+04  0.12520339053E+04  0.12050022677E+04  0.25956446358E+04  0.85635149515E+02 0.  0.
         13    1    3    3    0    0 -0.39674648101E+03  0.24765671226E+03  0.20804460742E+03  0.51188297100E+03  0.00000000000E+00 0. -1.
        -13    1    3    3    0    0 -0.15294981378E+04  0.10043771931E+04  0.99695766026E+03  0.20837616648E+04  0.00000000000E+00 0.  1.
         22    1    1    2    0    0  0.19262446188E+04 -0.12520339053E+04 -0.49177426475E+02  0.22979176771E+04  0.00000000000E+00 0.  1.
<mgrwt>
<rscale>  0 0.47551047E+04</rscale>
<asrwt>0</asrwt>
<pdfrwt beam="1">  1        1 0.46533747E+00 0.47551047E+04</pdfrwt>
<pdfrwt beam="2">  1       -1 0.28751827E+00 0.47551047E+04</pdfrwt>
<totfact> 0.16789643E-02</totfact>
</mgrwt>
</event>
<event>
 6    1  0.1568961E-005  0.1683786E+04  0.7818608E-02  0.8770666E-01
          2   -1    0    0  501    0  0.00000000000E+00  0.00000000000E+00  0.18521850725E+04  0.18521850725E+04  0.00000000000E+00 0. -1.
         -2   -1    0    0    0  501 -0.00000000000E+00 -0.00000000000E+00 -0.38267460842E+03  0.38267460842E+03  0.00000000000E+00 0.  1.
         23    2    1    2    0    0 -0.60649130978E+03  0.39093651146E+03  0.13062509221E+04  0.14950510956E+04  0.90682093690E+02 0.  0.
         13    1    3    3    0    0 -0.47160800514E+03  0.25883200393E+03  0.94268053563E+03  0.10853822870E+04  0.00000000000E+00 0. -1.
        -13    1    3    3    0    0 -0.13488330464E+03  0.13210450753E+03  0.36357038651E+03  0.40966880859E+03  0.00000000000E+00 0.  1.
         22    1    1    2    0    0  0.60649130978E+03 -0.39093651146E+03  0.16325954195E+03  0.73980858529E+03  0.00000000000E+00 0. -1.
<mgrwt>
<rscale>  0 0.16837864E+04</rscale>
<asrwt>0</asrwt>
<pdfrwt beam="1">  1        2 0.28495154E+00 0.16837864E+04</pdfrwt>
<pdfrwt beam="2">  1       -2 0.58873018E-01 0.16837864E+04</pdfrwt>
<totfact> 0.20731608E+01</totfact>
</mgrwt>
</event>
<event>
 6    1  0.1568961E-005  0.5274793E+04  0.7818608E-02  0.7787461E-01
         -2   -1    0    0    0  501 -0.00000000000E+00  0.00000000000E+00  0.17254218550E+04  0.17254218550E+04  0.00000000000E+00 0.  1.
          2   -1    0    0  501    0  0.00000000000E+00 -0.00000000000E+00 -0.40313964734E+04  0.40313964734E+04  0.00000000000E+00 0. -1.
         23    2    1    2    0    0 -0.79307130436E+03 -0.66267328213E+03  0.14938759527E+04  0.18189302733E+04  0.93509381754E+02 0.  0.
         13    1    3    3    0    0 -0.30687772448E+03 -0.31562626645E+03  0.64865656545E+03  0.78393189613E+03  0.00000000000E+00 0.  1.
        -13    1    3    3    0    0 -0.48619357988E+03 -0.34704701568E+03  0.84521938723E+03  0.10349983772E+04  0.00000000000E+00 0. -1.
         22    1    1    2    0    0  0.79307130436E+03  0.66267328213E+03 -0.37998505710E+04  0.39378880551E+04  0.00000000000E+00 0. -1.
<mgrwt>
<rscale>  0 0.52747927E+04</rscale>
<asrwt>0</asrwt>
<pdfrwt beam="1">  1        2 0.62021484E+00 0.52747927E+04</pdfrwt>
<pdfrwt beam="2">  1       -2 0.26544952E+00 0.52747927E+04</pdfrwt>
<totfact> 0.11812306E-02</totfact>
</mgrwt>
</event>
<event>
 6    1  0.1568961E-005  0.1401197E+04  0.7818608E-02  0.8952953E-01
          2   -1    0    0  501    0  0.00000000000E+00  0.00000000000E+00  0.22020472546E+04  0.22020472546E+04  0.00000000000E+00 0. -1.
         -2   -1    0    0    0  501 -0.00000000000E+00 -0.00000000000E+00 -0.22290075803E+03  0.22290075803E+03  0.00000000000E+00 0.  1.
         23    2    1    2    0    0 -0.19382601879E+03 -0.37277817810E+03  0.29767700497E+02  0.43080413962E+03  0.90410149281E+02 0.  0.
         11    1    3    3    0    0 -0.17329588997E+03 -0.31234301225E+03  0.56439687240E+02  0.36162834662E+03  0.00000000000E+00 0.  1.
        -11    1    3    3    0    0 -0.20530128823E+02 -0.60435165856E+02 -0.26671986743E+02  0.69175793008E+02  0.00000000000E+00 0. -1.
         22    1    1    2    0    0  0.19382601879E+03  0.37277817810E+03  0.19493787961E+04  0.19941438730E+04  0.00000000000E+00 0. -1.
<mgrwt>
<rscale>  0 0.14011966E+04</rscale>
<asrwt>0</asrwt>
<pdfrwt beam="1">  1        2 0.33877649E+00 0.14011966E+04</pdfrwt>
<pdfrwt beam="2">  1       -2 0.34292426E-01 0.14011966E+04</pdfrwt>
<totfact> 0.39989033E+01</totfact>
</mgrwt>
</event>
<event>
 6    1  0.1568961E-005  0.6167748E+04  0.7818608E-02  0.7669944E-01
         -2   -1    0    0    0  501 -0.00000000000E+00  0.00000000000E+00  0.45675404735E+04  0.45675404735E+04  0.00000000000E+00 0.  1.
          2   -1    0    0  501    0  0.00000000000E+00 -0.00000000000E+00 -0.20821444637E+04  0.20821444637E+04  0.00000000000E+00 0. -1.
         23    2    1    2    0    0 -0.18336264930E+04  0.24518649695E+04  0.85108782008E+03  0.31791242904E+04  0.93020598588E+02 0.  0.
         11    1    3    3    0    0 -0.14223952038E+04  0.19609555646E+04  0.68714756468E+03  0.25180799466E+04  0.00000000000E+00 0. -1.
        -11    1    3    3    0    0 -0.41123128921E+03  0.49090940494E+03  0.16394025539E+03  0.66104434376E+03  0.00000000000E+00 0.  1.
         22    1    1    2    0    0  0.18336264930E+04 -0.24518649695E+04  0.16343081897E+04  0.34705606469E+04  0.00000000000E+00 0. -1.
<mgrwt>
<rscale>  0 0.61677481E+04</rscale>
<asrwt>0</asrwt>
<pdfrwt beam="1">  1        2 0.32032992E+00 0.61677481E+04</pdfrwt>
<pdfrwt beam="2">  1       -2 0.70269853E+00 0.61677481E+04</pdfrwt>
<totfact> 0.90609104E-04</totfact>
</mgrwt>
</event>
<event>
 6    1  0.1568961E-005  0.3269477E+04  0.7818608E-02  0.8170706E-01
          2   -1    0    0  501    0  0.00000000000E+00  0.00000000000E+00  0.24375061452E+04  0.24375061452E+04  0.00000000000E+00 0.  1.
         -2   -1    0    0    0  501 -0.00000000000E+00 -0.00000000000E+00 -0.10963539668E+04  0.10963539668E+04  0.00000000000E+00 0. -1.
         23    2    1    2    0    0 -0.19140491246E+03  0.88353013292E+03 -0.79918201566E+03  0.12104376797E+04  0.95948663870E+02 0.  0.
         11    1    3    3    0    0 -0.28113306667E+02  0.26592735157E+03 -0.28069916210E+03  0.38768509634E+03  0.00000000000E+00 0. -1.
        -11    1    3    3    0    0 -0.16329160579E+03  0.61760278135E+03 -0.51848285356E+03  0.82275258340E+03  0.00000000000E+00 0.  1.
         22    1    1    2    0    0  0.19140491246E+03 -0.88353013292E+03  0.21403341941E+04  0.23234224323E+04  0.00000000000E+00 0.  1.
<mgrwt>
<rscale>  0 0.32694767E+04</rscale>
<asrwt>0</asrwt>
<pdfrwt beam="1">  1        2 0.37500095E+00 0.32694767E+04</pdfrwt>
<pdfrwt beam="2">  1       -2 0.16866984E+00 0.32694767E+04</pdfrwt>
<totfact> 0.68992229E-01</totfact>
</mgrwt>
</event>
<event>
 6    1  0.1568961E-005  0.2428239E+04  0.7818608E-02  0.8429006E-01
         -1   -1    0    0    0  501 -0.00000000000E+00  0.00000000000E+00  0.16851079094E+04  0.16851079094E+04  0.00000000000E+00 0.  1.
          1   -1    0    0  501    0  0.00000000000E+00 -0.00000000000E+00 -0.87477276825E+03  0.87477276825E+03  0.00000000000E+00 0. -1.
         23    2    1    2    0    0 -0.80601707392E+02 -0.72762757649E+03 -0.61320064600E+03  0.95913314520E+03  0.89346699190E+02 0.  0.
         13    1    3    3    0    0 -0.80544631757E+02 -0.49977730874E+03 -0.46459378980E+03  0.68710420284E+03  0.00000000000E+00 0. -1.
        -13    1    3    3    0    0 -0.57075635031E-01 -0.22785026775E+03 -0.14860685620E+03  0.27202894236E+03  0.00000000000E+00 0.  1.
         22    1    1    2    0    0  0.80601707392E+02  0.72762757649E+03  0.14235357871E+04  0.16007475324E+04  0.00000000000E+00 0.  1.
<mgrwt>
<rscale>  0 0.24282393E+04</rscale>
<asrwt>0</asrwt>
<pdfrwt beam="1">  1        1 0.13458043E+00 0.24282393E+04</pdfrwt>
<pdfrwt beam="2">  1       -1 0.25924737E+00 0.24282393E+04</pdfrwt>
<totfact> 0.10356254E+00</totfact>
</mgrwt>
</event>
<event>
 6    1  0.1568961E-005  0.9191915E+03  0.7818608E-02  0.9401904E-01
         -2   -1    0    0    0  501 -0.00000000000E+00  0.00000000000E+00  0.12799487827E+04  0.12799487827E+04  0.00000000000E+00 0.  1.
          2   -1    0    0  501    0  0.00000000000E+00 -0.00000000000E+00 -0.16502867260E+03  0.16502867260E+03  0.00000000000E+00 0. -1.
         23    2    1    2    0    0 -0.55602889195E+01 -0.10433227182E+03  0.12592045806E+04  0.12668366454E+04  0.91448185058E+02 0.  0.
         13    1    3    3    0    0 -0.36725507395E+02 -0.46960308098E+02  0.33004266110E+03  0.33538364834E+03  0.00000000000E+00 0.  1.
        -13    1    3    3    0    0  0.31165218475E+02 -0.57371963721E+02  0.92916191949E+03  0.93145299704E+03  0.00000000000E+00 0. -1.
         22    1    1    2    0    0  0.55602889195E+01  0.10433227182E+03 -0.14428447046E+03  0.17814080996E+03  0.00000000000E+00 0. -1.
<mgrwt>
<rscale>  0 0.91919149E+03</rscale>
<asrwt>0</asrwt>
<pdfrwt beam="1">  1        2 0.25389027E-01 0.91919149E+03</pdfrwt>
<pdfrwt beam="2">  1       -2 0.19691519E+00 0.91919149E+03</pdfrwt>
<totfact> 0.30167887E+01</totfact>
</mgrwt>
</event>
<event>
 6    1  0.1568961E-005  0.2021031E+04  0.7818608E-02  0.8596850E-01
         -1   -1    0    0    0  501 -0.00000000000E+00  0.00000000000E+00  0.10293107200E+04  0.10293107200E+04  0.00000000000E+00 0.  1.
          1   -1    0    0  501    0  0.00000000000E+00 -0.00000000000E+00 -0.99206384628E+03  0.99206384628E+03  0.00000000000E+00 0. -1.
         23    2    1    2    0    0 -0.19476531296E+03 -0.15397703765E+03 -0.95922503462E+03  0.99443799601E+03  0.84568348800E+02 0.  0.
         13    1    3    3    0    0 -0.18358667606E+03 -0.15147883711E+03 -0.79627585745E+03  0.83108672644E+03  0.00000000000E+00 0.  1.
        -13    1    3    3    0    0 -0.11178636899E+02 -0.24982005444E+01 -0.16294917717E+03  0.16335126957E+03  0.00000000000E+00 0. -1.
         22    1    1    2    0    0  0.19476531296E+03  0.15397703765E+03  0.99647190832E+03  0.10269365703E+04  0.00000000000E+00 0.  1.
<mgrwt>
<rscale>  0 0.20210314E+04</rscale>
<asrwt>0</asrwt>
<pdfrwt beam="1">  1        1 0.15262521E+00 0.20210314E+04</pdfrwt>
<pdfrwt beam="2">  1       -1 0.15835550E+00 0.20210314E+04</pdfrwt>
<totfact> 0.42752260E+00</totfact>
</mgrwt>
</event>
<event>
 6    1  0.1568961E-005  0.1142974E+04  0.7818608E-02  0.9164290E-01
         -2   -1    0    0    0  501 -0.00000000000E+00  0.00000000000E+00  0.70681443522E+03  0.70681443522E+03  0.00000000000E+00 0.  1.
          2   -1    0    0  501    0  0.00000000000E+00 -0.00000000000E+00 -0.46206964958E+03  0.46206964958E+03  0.00000000000E+00 0. -1.
         23    2    1    2    0    0 -0.33668774523E+03 -0.42348184550E+03 -0.53730784030E+02  0.55099802982E+03  0.89533906737E+02 0.  0.
         13    1    3    3    0    0 -0.18875531655E+03 -0.16622764293E+03 -0.19384131863E+02  0.25226165656E+03  0.00000000000E+00 0. -1.
        -13    1    3    3    0    0 -0.14793242867E+03 -0.25725420257E+03 -0.34346652167E+02  0.29873637326E+03  0.00000000000E+00 0.  1.
         22    1    1    2    0    0  0.33668774523E+03  0.42348184550E+03  0.29847556967E+03  0.61788605498E+03  0.00000000000E+00 0.  1.
<mgrwt>
<rscale>  0 0.11429742E+04</rscale>
<asrwt>0</asrwt>
<pdfrwt beam="1">  1        2 0.71087638E-01 0.11429742E+04</pdfrwt>
<pdfrwt beam="2">  1       -2 0.10874068E+00 0.11429742E+04</pdfrwt>
<totfact> 0.45138057E+01</totfact>
</mgrwt>
</event>
<event>
 6    1  0.1568961E-005  0.1014026E+04  0.7818608E-02  0.9293294E-01
         -2   -1    0    0    0  501 -0.00000000000E+00  0.00000000000E+00  0.67752817859E+03  0.67752817859E+03  0.00000000000E+00 0.  1.
          2   -1    0    0  501    0  0.00000000000E+00 -0.00000000000E+00 -0.37941190511E+03  0.37941190511E+03  0.00000000000E+00 0. -1.
         23    2    1    2    0    0  0.40422843157E+03 -0.29932322274E+03  0.16708699948E+03  0.53716735721E+03  0.87382422156E+02 0.  0.
         13    1    3    3    0    0  0.18558728834E+03 -0.14620255918E+03  0.33312632915E+02  0.23859497358E+03  0.00000000000E+00 0.  1.
        -13    1    3    3    0    0  0.21864114322E+03 -0.15312066356E+03  0.13377436656E+03  0.29857238363E+03  0.00000000000E+00 0. -1.
         22    1    1    2    0    0 -0.40422843157E+03  0.29932322274E+03  0.13102927400E+03  0.51977272649E+03  0.00000000000E+00 0.  1.
<mgrwt>
<rscale>  0 0.10140261E+04</rscale>
<asrwt>0</asrwt>
<pdfrwt beam="1">  1        2 0.58371062E-01 0.10140261E+04</pdfrwt>
<pdfrwt beam="2">  1       -2 0.10423510E+00 0.10140261E+04</pdfrwt>
<totfact> 0.63000861E+01</totfact>
</mgrwt>
</event>
<event>
 6    1  0.1568961E-005  0.2485795E+04  0.7818608E-02  0.8408064E-01
          2   -1    0    0  501    0  0.00000000000E+00  0.00000000000E+00  0.15101260476E+04  0.15101260476E+04  0.00000000000E+00 0. -1.
         -2   -1    0    0    0  501 -0.00000000000E+00 -0.00000000000E+00 -0.10229570367E+04  0.10229570367E+04  0.00000000000E+00 0.  1.
         23    2    1    2    0    0  0.10017662376E+04  0.61984987963E+03  0.64255618571E+03  0.13448513551E+04  0.89427330112E+02 0.  0.
         13    1    3    3    0    0  0.14351507978E+03  0.55411256795E+02  0.94923508846E+02  0.18076907378E+03  0.00000000000E+00 0.  1.
        -13    1    3    3    0    0  0.85825115786E+03  0.56443862283E+03  0.54763267686E+03  0.11640822813E+04  0.00000000000E+00 0. -1.
         22    1    1    2    0    0 -0.10017662376E+04 -0.61984987963E+03 -0.15538717482E+03  0.11882317292E+04  0.00000000000E+00 0.  1.
<mgrwt>
<rscale>  0 0.24857949E+04</rscale>
<asrwt>0</asrwt>
<pdfrwt beam="1">  1        2 0.23232708E+00 0.24857949E+04</pdfrwt>
<pdfrwt beam="2">  1       -2 0.15737801E+00 0.24857949E+04</pdfrwt>
<totfact> 0.29476274E+00</totfact>
</mgrwt>
</event>
<event>
 6    1  0.1568961E-005  0.2139093E+04  0.7818608E-02  0.8544216E-01
         -2   -1    0    0    0  501 -0.00000000000E+00  0.00000000000E+00  0.15529127022E+04  0.15529127022E+04  0.00000000000E+00 0.  1.
          2   -1    0    0  501    0  0.00000000000E+00 -0.00000000000E+00 -0.73663473850E+03  0.73663473850E+03  0.00000000000E+00 0. -1.
         23    2    1    2    0    0 -0.61166711712E+03  0.74105803594E+02  0.13420800204E+04  0.14795498265E+04  0.90887708087E+02 0.  0.
         11    1    3    3    0    0 -0.46691160848E+03  0.57151151401E+02  0.11092090420E+04  0.12048308608E+04  0.00000000000E+00 0. -1.
        -11    1    3    3    0    0 -0.14475550865E+03  0.16954652193E+02  0.23287097840E+03  0.27471896567E+03  0.00000000000E+00 0.  1.
         22    1    1    2    0    0  0.61166711712E+03 -0.74105803594E+02 -0.52580205669E+03  0.80999761427E+03  0.00000000000E+00 0. -1.
<mgrwt>
<rscale>  0 0.21390927E+04</rscale>
<asrwt>0</asrwt>
<pdfrwt beam="1">  1        2 0.11332842E+00 0.21390927E+04</pdfrwt>
<pdfrwt beam="2">  1       -2 0.23890965E+00 0.21390927E+04</pdfrwt>
<totfact> 0.26520148E+00</totfact>
</mgrwt>
</event>
<event>
 6    1  0.1568961E-005  0.2368443E+04  0.7818608E-02  0.8451413E-01
          2   -1    0    0  501    0  0.00000000000E+00  0.00000000000E+00  0.12747968125E+04  0.12747968125E+04  0.00000000000E+00 0. -1.
         -2   -1    0    0    0  501 -0.00000000000E+00 -0.00000000000E+00 -0.11000820939E+04  0.11000820939E+04  0.00000000000E+00 0.  1.
         23    2    1    2    0    0 -0.77871684838E+03 -0.38678462959E+03  0.89111342678E+03  0.12482780949E+04  0.90070989320E+02 0.  0.
         11    1    3    3    0    0 -0.33235821858E+02 -0.30651343242E+02  0.70942279711E+02  0.84124501470E+02  0.00000000000E+00 0.  1.
        -11    1    3    3    0    0 -0.74548102653E+03 -0.35613328635E+03  0.82017114707E+03  0.11641535934E+04  0.00000000000E+00 0. -1.
         22    1    1    2    0    0  0.77871684838E+03  0.38678462959E+03 -0.71639870816E+03  0.11266008116E+04  0.00000000000E+00 0.  1.
<mgrwt>
<rscale>  0 0.23684435E+04</rscale>
<asrwt>0</asrwt>
<pdfrwt beam="1">  1        2 0.19612259E+00 0.23684435E+04</pdfrwt>
<pdfrwt beam="2">  1       -2 0.16924340E+00 0.23684435E+04</pdfrwt>
<totfact> 0.33276671E+00</totfact>
</mgrwt>
</event>
<event>
 6    1  0.1568961E-005  0.1984027E+04  0.7818608E-02  0.8614125E-01
         -2   -1    0    0    0  501 -0.00000000000E+00  0.00000000000E+00  0.13301984221E+04  0.13301984221E+04  0.00000000000E+00 0.  1.
          2   -1    0    0  501    0  0.00000000000E+00 -0.00000000000E+00 -0.73980777504E+03  0.73980777504E+03  0.00000000000E+00 0. -1.
         23    2    1    2    0    0 -0.90306543248E+03  0.70648340547E+01 -0.12747415992E+03  0.91635678405E+03  0.88786299656E+02 0.  0.
         13    1    3    3    0    0 -0.78007811292E+03  0.35217863956E+02 -0.11918953422E+03  0.78991664450E+03  0.00000000000E+00 0. -1.
        -13    1    3    3    0    0 -0.12298731956E+03 -0.28153029901E+02 -0.82846257009E+01  0.12644013954E+03  0.00000000000E+00 0.  1.
         22    1    1    2    0    0  0.90306543248E+03 -0.70648340547E+01  0.71786480693E+03  0.11536494131E+04  0.00000000000E+00 0.  1.
<mgrwt>
<rscale>  0 0.19840274E+04</rscale>
<asrwt>0</asrwt>
<pdfrwt beam="1">  1        2 0.11381658E+00 0.19840274E+04</pdfrwt>
<pdfrwt beam="2">  1       -2 0.20464591E+00 0.19840274E+04</pdfrwt>
<totfact> 0.44010922E+00</totfact>
</mgrwt>
</event>
<event>
 6    1  0.1568961E-005  0.8531584E+03  0.7818608E-02  0.9486108E-01
         -2   -1    0    0    0  501 -0.00000000000E+00  0.00000000000E+00  0.75836450909E+02  0.75836450909E+02  0.00000000000E+00 0.  1.
          2   -1    0    0  501    0  0.00000000000E+00 -0.00000000000E+00 -0.23995033405E+04  0.23995033405E+04  0.00000000000E+00 0. -1.
         23    2    1    2    0    0 -0.23926711560E+03 -0.13210344626E+03 -0.21068347217E+04  0.21264612134E+04  0.91567870061E+02 0.  0.
         13    1    3    3    0    0 -0.21083843433E+03 -0.75061067941E+02 -0.16989394673E+04  0.17136167375E+04  0.00000000000E+00 0. -1.
        -13    1    3    3    0    0 -0.28428681272E+02 -0.57042378314E+02 -0.40789525431E+03  0.41284447596E+03  0.00000000000E+00 0.  1.
         22    1    1    2    0    0  0.23926711560E+03  0.13210344626E+03 -0.21683216799E+03  0.34887857801E+03  0.00000000000E+00 0.  1.
<mgrwt>
<rscale>  0 0.85315841E+03</rscale>
<asrwt>0</asrwt>
<pdfrwt beam="1">  1        2 0.36915435E+00 0.85315841E+03</pdfrwt>
<pdfrwt beam="2">  1       -2 0.11667147E-01 0.85315841E+03</pdfrwt>
<totfact> 0.21739765E+02</totfact>
</mgrwt>
</event>
<event>
 6    1  0.1568961E-005  0.9693076E+03  0.7818608E-02  0.9342863E-01
         -2   -1    0    0    0  501 -0.00000000000E+00  0.00000000000E+00  0.15140826111E+03  0.15140826111E+03  0.00000000000E+00 0.  1.
          2   -1    0    0  501    0  0.00000000000E+00 -0.00000000000E+00 -0.15513638314E+04  0.15513638314E+04  0.00000000000E+00 0. -1.
         23    2    1    2    0    0 -0.17198315647E+03 -0.18974113276E+03  0.84265388177E+01  0.27129730447E+03  0.89170159171E+02 0.  0.
         11    1    3    3    0    0 -0.72069033437E+02 -0.14406343999E+03 -0.37569052229E+00  0.16108495108E+03  0.00000000000E+00 0. -1.
        -11    1    3    3    0    0 -0.99914123029E+02 -0.45677692771E+02  0.88022293400E+01  0.11021235339E+03  0.00000000000E+00 0.  1.
         22    1    1    2    0    0  0.17198315647E+03  0.18974113276E+03 -0.14083821091E+04  0.14314747881E+04  0.00000000000E+00 0. -1.
<mgrwt>
<rscale>  0 0.96930759E+03</rscale>
<asrwt>0</asrwt>
<pdfrwt beam="1">  1        2 0.23867136E+00 0.96930759E+03</pdfrwt>
<pdfrwt beam="2">  1       -2 0.23293579E-01 0.96930759E+03</pdfrwt>
<totfact> 0.19346287E+02</totfact>
</mgrwt>
</event>
<event>
 6    1  0.1568961E-005  0.1987868E+04  0.7818608E-02  0.8612314E-01
         -1   -1    0    0    0  501 -0.00000000000E+00  0.00000000000E+00  0.29289075778E+03  0.29289075778E+03  0.00000000000E+00 0.  1.
          1   -1    0    0  501    0  0.00000000000E+00 -0.00000000000E+00 -0.33729458060E+04  0.33729458060E+04  0.00000000000E+00 0. -1.
         23    2    1    2    0    0  0.29317279621E+03  0.92186588749E+03 -0.11387246400E+04  0.14968389250E+04  0.89699268678E+02 0.  0.
         13    1    3    3    0    0  0.34666514430E+02  0.23396646871E+03 -0.28751090270E+03  0.37229638042E+03  0.00000000000E+00 0. -1.
        -13    1    3    3    0    0  0.25850628178E+03  0.68789941878E+03 -0.85121373725E+03  0.11245425446E+04  0.00000000000E+00 0.  1.
         22    1    1    2    0    0 -0.29317279621E+03 -0.92186588749E+03 -0.19413304083E+04  0.21689976388E+04  0.00000000000E+00 0.  1.
<mgrwt>
<rscale>  0 0.19878679E+04</rscale>
<asrwt>0</asrwt>
<pdfrwt beam="1">  1        1 0.51891475E+00 0.19878679E+04</pdfrwt>
<pdfrwt beam="2">  1       -1 0.45060116E-01 0.19878679E+04</pdfrwt>
<totfact> 0.14296623E+00</totfact>
</mgrwt>
</event>
<event>
 6    1  0.1568961E-005  0.1704650E+04  0.7818608E-02  0.8758716E-01
         -1   -1    0    0    0  501 -0.00000000000E+00  0.00000000000E+00  0.34420132911E+03  0.34420132911E+03  0.00000000000E+00 0.  1.
          1   -1    0    0  501    0  0.00000000000E+00 -0.00000000000E+00 -0.21105620456E+04  0.21105620456E+04  0.00000000000E+00 0. -1.
         23    2    1    2    0    0 -0.20063583327E+03  0.19417318778E+03 -0.20416449007E+04  0.20626672812E+04  0.91238412883E+02 0.  0.
         11    1    3    3    0    0 -0.12164293644E+03  0.16904805828E+03 -0.13293189621E+04  0.13455345231E+04  0.00000000000E+00 0. -1.
        -11    1    3    3    0    0 -0.78992896826E+02  0.25125129504E+02 -0.71232593860E+03  0.71713275806E+03  0.00000000000E+00 0.  1.
         22    1    1    2    0    0  0.20063583327E+03 -0.19417318778E+03  0.27528418422E+03  0.39209609349E+03  0.00000000000E+00 0.  1.
<mgrwt>
<rscale>  0 0.17046504E+04</rscale>
<asrwt>0</asrwt>
<pdfrwt beam="1">  1        1 0.32470185E+00 0.17046504E+04</pdfrwt>
<pdfrwt beam="2">  1       -1 0.52954051E-01 0.17046504E+04</pdfrwt>
<totfact> 0.85770557E+00</totfact>
</mgrwt>
</event>
<event>
 6    1  0.1568961E-005  0.3858808E+04  0.7818608E-02  0.8033651E-01
         -1   -1    0    0    0  501 -0.00000000000E+00  0.00000000000E+00  0.14246835870E+04  0.14246835870E+04  0.00000000000E+00 0.  1.
          1   -1    0    0  501    0  0.00000000000E+00 -0.00000000000E+00 -0.26129304459E+04  0.26129304459E+04  0.00000000000E+00 0. -1.
         23    2    1    2    0    0  0.60940983907E+03  0.65748950061E+03 -0.23808272072E+04  0.25456620623E+04  0.91566093208E+02 0.  0.
         13    1    3    3    0    0  0.52353452858E+03  0.51250703701E+03 -0.19335398066E+04  0.20676866419E+04  0.00000000000E+00 0.  1.
        -13    1    3    3    0    0  0.85875310494E+02  0.14498246360E+03 -0.44728740066E+03  0.47797542039E+03  0.00000000000E+00 0. -1.
         22    1    1    2    0    0 -0.60940983907E+03 -0.65748950061E+03  0.11925803483E+04  0.14919519706E+04  0.00000000000E+00 0.  1.
<mgrwt>
<rscale>  0 0.38588077E+04</rscale>
<asrwt>0</asrwt>
<pdfrwt beam="1">  1        1 0.40198930E+00 0.38588077E+04</pdfrwt>
<pdfrwt beam="2">  1       -1 0.21918209E+00 0.38588077E+04</pdfrwt>
<totfact> 0.99708187E-02</totfact>
</mgrwt>
</event>
<event>
 6    1  0.1568961E-005  0.3472594E+04  0.7818608E-02  0.8120316E-01
          2   -1    0    0  501    0  0.00000000000E+00  0.00000000000E+00  0.28221898631E+04  0.28221898631E+04  0.00000000000E+00 0. -1.
         -2   -1    0    0    0  501 -0.00000000000E+00 -0.00000000000E+00 -0.10682225944E+04  0.10682225944E+04  0.00000000000E+00 0.  1.
         23    2    1    2    0    0 -0.15283715599E+04  0.13629606453E+03  0.17850862843E+04  0.23556601533E+04  0.90030400926E+02 0.  0.
         11    1    3    3    0    0 -0.51370752515E+03  0.46153943779E+01  0.58001072565E+03  0.77480911528E+03  0.00000000000E+00 0.  1.
        -11    1    3    3    0    0 -0.10146640347E+04  0.13168067015E+03  0.12050755587E+04  0.15808510380E+04  0.00000000000E+00 0. -1.
         22    1    1    2    0    0  0.15283715599E+04 -0.13629606453E+03 -0.31119015559E+02  0.15347523042E+04  0.00000000000E+00 0.  1.
<mgrwt>
<rscale>  0 0.34725938E+04</rscale>
<asrwt>0</asrwt>
<pdfrwt beam="1">  1        2 0.43418305E+00 0.34725938E+04</pdfrwt>
<pdfrwt beam="2">  1       -2 0.16434194E+00 0.34725938E+04</pdfrwt>
<totfact> 0.43197257E-01</totfact>
</mgrwt>
</event>
<event>
 6    1  0.1568961E-005  0.1068392E+04  0.7818608E-02  0.9236558E-01
          1   -1    0    0  501    0  0.00000000000E+00  0.00000000000E+00  0.30149727388E+03  0.30149727388E+03  0.00000000000E+00 0. -1.
         -1   -1    0    0    0  501 -0.00000000000E+00 -0.00000000000E+00 -0.94649466828E+03  0.94649466828E+03  0.00000000000E+00 0.  1.
         23    2    1    2    0    0  0.45675733072E+03  0.25175720456E+03 -0.43681677082E+03  0.68643328873E+03  0.91503111377E+02 0.  0.
         13    1    3    3    0    0  0.26794364820E+03  0.19740069737E+03 -0.28420091179E+03  0.43764253929E+03  0.00000000000E+00 0. -1.
        -13    1    3    3    0    0  0.18881368251E+03  0.54356507196E+02 -0.15261585903E+03  0.24879074944E+03  0.00000000000E+00 0.  1.
         22    1    1    2    0    0 -0.45675733072E+03 -0.25175720456E+03 -0.20818062358E+03  0.56155865343E+03  0.00000000000E+00 0. -1.
<mgrwt>
<rscale>  0 0.10683924E+04</rscale>
<asrwt>0</asrwt>
<pdfrwt beam="1">  1        1 0.46384196E-01 0.10683924E+04</pdfrwt>
<pdfrwt beam="2">  1       -1 0.14561457E+00 0.10683924E+04</pdfrwt>
<totfact> 0.32864823E+01</totfact>
</mgrwt>
</event>
<event>
 6    1  0.1568961E-005  0.3499645E+04  0.7818608E-02  0.8113874E-01
         -2   -1    0    0    0  501 -0.00000000000E+00  0.00000000000E+00  0.10224185865E+04  0.10224185865E+04  0.00000000000E+00 0. -1.
          2   -1    0    0  501    0  0.00000000000E+00 -0.00000000000E+00 -0.29947412300E+04  0.29947412300E+04  0.00000000000E+00 0.  1.
         23    2    1    2    0    0  0.93312043484E+03 -0.14335008179E+04 -0.57012616601E+03  0.18054199353E+04  0.94122030225E+02 0.  0.
         13    1    3    3    0    0  0.77123926399E+03 -0.12449045050E+04 -0.48257439225E+03  0.15419063762E+04  0.00000000000E+00 0.  1.
        -13    1    3    3    0    0  0.16188117085E+03 -0.18859631290E+03 -0.87551773758E+02  0.26351355905E+03  0.00000000000E+00 0. -1.
         22    1    1    2    0    0 -0.93312043484E+03  0.14335008179E+04 -0.14021964775E+04  0.22117398813E+04  0.00000000000E+00 0. -1.
<mgrwt>
<rscale>  0 0.34996452E+04</rscale>
<asrwt>0</asrwt>
<pdfrwt beam="1">  1        2 0.46072941E+00 0.34996452E+04</pdfrwt>
<pdfrwt beam="2">  1       -2 0.15729517E+00 0.34996452E+04</pdfrwt>
<totfact> 0.38009928E-01</totfact>
</mgrwt>
</event>
<event>
 6    1  0.1568961E-005  0.7723407E+03  0.7818608E-02  0.9600939E-01
          2   -1    0    0  501    0  0.00000000000E+00  0.00000000000E+00  0.21868498987E+03  0.21868498987E+03  0.00000000000E+00 0. -1.
         -2   -1    0    0    0  501 -0.00000000000E+00 -0.00000000000E+00 -0.68192857122E+03  0.68192857122E+03  0.00000000000E+00 0.  1.
         23    2    1    2    0    0  0.17302017799E+03 -0.30752385171E+03 -0.67485627321E+02  0.37039543660E+03  0.90175208314E+02 0.  0.
         13    1    3    3    0    0  0.16464237961E+03 -0.27880257603E+03 -0.34118555557E+02  0.32557958382E+03  0.00000000000E+00 0. -1.
        -13    1    3    3    0    0  0.83777983832E+01 -0.28721275680E+02 -0.33367071765E+02  0.44815852782E+02  0.00000000000E+00 0.  1.
         22    1    1    2    0    0 -0.17302017799E+03  0.30752385171E+03 -0.39575795403E+03  0.53021812449E+03  0.00000000000E+00 0.  1.
<mgrwt>
<rscale>  0 0.77234071E+03</rscale>
<asrwt>0</asrwt>
<pdfrwt beam="1">  1        2 0.33643844E-01 0.77234071E+03</pdfrwt>
<pdfrwt beam="2">  1       -2 0.10491209E+00 0.77234071E+03</pdfrwt>
<totfact> 0.11612213E+02</totfact>
</mgrwt>
</event>
<event>
 6    1  0.1568961E-005  0.2950781E+04  0.7818608E-02  0.8257927E-01
          2   -1    0    0  501    0  0.00000000000E+00  0.00000000000E+00  0.41607497974E+04  0.41607497974E+04  0.00000000000E+00 0. -1.
         -2   -1    0    0    0  501 -0.00000000000E+00 -0.00000000000E+00 -0.52316958868E+03  0.52316958868E+03  0.00000000000E+00 0.  1.
         23    2    1    2    0    0  0.10799315313E+04  0.99999284579E+03  0.19462224641E+04  0.24418380262E+04  0.92483849451E+02 0.  0.
         13    1    3    3    0    0  0.53776593426E+03  0.55282882016E+03  0.98076784007E+03  0.12476848402E+04  0.00000000000E+00 0. -1.
        -13    1    3    3    0    0  0.54216559708E+03  0.44716402563E+03  0.96545462402E+03  0.11941531859E+04  0.00000000000E+00 0.  1.
         22    1    1    2    0    0 -0.10799315313E+04 -0.99999284579E+03  0.16913577446E+04  0.22420813599E+04  0.00000000000E+00 0. -1.
<mgrwt>
<rscale>  0 0.29507814E+04</rscale>
<asrwt>0</asrwt>
<pdfrwt beam="1">  1        2 0.64011533E+00 0.29507814E+04</pdfrwt>
<pdfrwt beam="2">  1       -2 0.80487632E-01 0.29507814E+04</pdfrwt>
<totfact> 0.29452525E-01</totfact>
</mgrwt>
</event>
<event>
 6    1  0.1568961E-005  0.6748346E+03  0.7818608E-02  0.9761263E-01
         -1   -1    0    0    0  501 -0.00000000000E+00  0.00000000000E+00  0.60442087214E+02  0.60442087214E+02  0.00000000000E+00 0.  1.
          1   -1    0    0  501    0  0.00000000000E+00 -0.00000000000E+00 -0.18836283570E+04  0.18836283570E+04  0.00000000000E+00 0. -1.
         23    2    1    2    0    0  0.15586233131E+03 -0.20879135433E+03 -0.15177574939E+04  0.15426060833E+04  0.90326197346E+02 0.  0.
         11    1    3    3    0    0  0.83944055222E+02 -0.94711414476E+02 -0.98267601550E+03  0.99079211133E+03  0.00000000000E+00 0.  1.
        -11    1    3    3    0    0  0.71918276093E+02 -0.11407993985E+03 -0.53508147837E+03  0.55181397192E+03  0.00000000000E+00 0. -1.
         22    1    1    2    0    0 -0.15586233131E+03  0.20879135433E+03 -0.30542877593E+03  0.40146436097E+03  0.00000000000E+00 0.  1.
<mgrwt>
<rscale>  0 0.67483459E+03</rscale>
<asrwt>0</asrwt>
<pdfrwt beam="1">  1        1 0.28978896E+00 0.67483459E+03</pdfrwt>
<pdfrwt beam="2">  1       -1 0.92987832E-02 0.67483459E+03</pdfrwt>
<totfact> 0.26125504E+02</totfact>
</mgrwt>
</event>
<event>
 6    1  0.1568961E-005  0.2750847E+04  0.7818608E-02  0.8318693E-01
          2   -1    0    0  501    0  0.00000000000E+00  0.00000000000E+00  0.21771352914E+04  0.21771352914E+04  0.00000000000E+00 0. -1.
         -2   -1    0    0    0  501 -0.00000000000E+00 -0.00000000000E+00 -0.86893527009E+03  0.86893527009E+03  0.00000000000E+00 0.  1.
         23    2    1    2    0    0  0.33922544889E+03  0.29020037388E+03 -0.78413147918E+03  0.90664510823E+03  0.88617230049E+02 0.  0.
         13    1    3    3    0    0  0.26092264109E+03  0.26255731062E+03 -0.60596856700E+03  0.71008088989E+03  0.00000000000E+00 0.  1.
        -13    1    3    3    0    0  0.78302807800E+02  0.27643063261E+02 -0.17816291218E+03  0.19656421834E+03  0.00000000000E+00 0. -1.
         22    1    1    2    0    0 -0.33922544889E+03 -0.29020037388E+03  0.20923315004E+04  0.21394254532E+04  0.00000000000E+00 0. -1.
<mgrwt>
<rscale>  0 0.27508469E+04</rscale>
<asrwt>0</asrwt>
<pdfrwt beam="1">  1        2 0.33494389E+00 0.27508469E+04</pdfrwt>
<pdfrwt beam="2">  1       -2 0.13368235E+00 0.27508469E+04</pdfrwt>
<totfact> 0.18797467E+00</totfact>
</mgrwt>
</event>
<event>
 6    1  0.1568961E-005  0.2305232E+04  0.7818608E-02  0.8475861E-01
          2   -1    0    0  501    0  0.00000000000E+00  0.00000000000E+00  0.12778139326E+04  0.12778139326E+04  0.00000000000E+00 0. -1.
         -2   -1    0    0    0  501 -0.00000000000E+00 -0.00000000000E+00 -0.10396844481E+04  0.10396844481E+04  0.00000000000E+00 0.  1.
         23    2    1    2    0    0  0.45286629491E+03  0.21481064367E+02 -0.94412954160E+03  0.10512891870E+04  0.90989264739E+02 0.  0.
         11    1    3    3    0    0  0.58215522731E+02 -0.27333404563E+01 -0.20405922110E+03  0.21221848165E+03  0.00000000000E+00 0. -1.
        -11    1    3    3    0    0  0.39465077218E+03  0.24214404823E+02 -0.74007032050E+03  0.83907070540E+03  0.00000000000E+00 0.  1.
         22    1    1    2    0    0 -0.45286629491E+03 -0.21481064367E+02  0.11822590261E+04  0.12662091936E+04  0.00000000000E+00 0. -1.
<mgrwt>
<rscale>  0 0.23052317E+04</rscale>
<asrwt>0</asrwt>
<pdfrwt beam="1">  1        2 0.19658676E+00 0.23052317E+04</pdfrwt>
<pdfrwt beam="2">  1       -2 0.15995145E+00 0.23052317E+04</pdfrwt>
<totfact> 0.38917941E+00</totfact>
</mgrwt>
</event>
<event>
 6    1  0.1568961E-005  0.1317174E+04  0.7818608E-02  0.9016056E-01
         -2   -1    0    0    0  501 -0.00000000000E+00  0.00000000000E+00  0.26430529407E+03  0.26430529407E+03  0.00000000000E+00 0.  1.
          2   -1    0    0  501    0  0.00000000000E+00 -0.00000000000E+00 -0.16410441899E+04  0.16410441899E+04  0.00000000000E+00 0. -1.
         23    2    1    2    0    0 -0.54654724679E+03  0.18067853610E+03 -0.23954862405E+03  0.63076706584E+03  0.95524455982E+02 0.  0.
         11    1    3    3    0    0 -0.30536940877E+03  0.14967048404E+03 -0.14912854102E+03  0.37133684351E+03  0.00000000000E+00 0. -1.
        -11    1    3    3    0    0 -0.24117783802E+03  0.31008052069E+02 -0.90420083030E+02  0.25943022233E+03  0.00000000000E+00 0.  1.
         22    1    1    2    0    0  0.54654724679E+03 -0.18067853610E+03 -0.11371902718E+04  0.12745824182E+04  0.00000000000E+00 0.  1.
<mgrwt>
<rscale>  0 0.13171737E+04</rscale>
<asrwt>0</asrwt>
<pdfrwt beam="1">  1        2 0.25246834E+00 0.13171737E+04</pdfrwt>
<pdfrwt beam="2">  1       -2 0.40662353E-01 0.13171737E+04</pdfrwt>
<totfact> 0.59289835E+01</totfact>
</mgrwt>
</event>
<event>
 6    1  0.1568961E-005  0.8800815E+03  0.7818608E-02  0.9450829E-01
          2   -1    0    0  501    0  0.00000000000E+00  0.00000000000E+00  0.43689204596E+03  0.43689204596E+03  0.00000000000E+00 0. -1.
         -2   -1    0    0    0  501 -0.00000000000E+00 -0.00000000000E+00 -0.44321211930E+03  0.44321211930E+03  0.00000000000E+00 0.  1.
         23    2    1    2    0    0  0.37645159003E+03 -0.16261224478E+03  0.14245981317E+03  0.44387716423E+03  0.92593718824E+02 0.  0.
         13    1    3    3    0    0  0.18114826408E+03 -0.46820735579E+02  0.10250305341E+03  0.21333952006E+03  0.00000000000E+00 0. -1.
        -13    1    3    3    0    0  0.19530332595E+03 -0.11579150921E+03  0.39956759768E+02  0.23053764418E+03  0.00000000000E+00 0.  1.
         22    1    1    2    0    0 -0.37645159003E+03  0.16261224478E+03 -0.14877988652E+03  0.43622700103E+03  0.00000000000E+00 0.  1.
<mgrwt>
<rscale>  0 0.88008147E+03</rscale>
<asrwt>0</asrwt>
<pdfrwt beam="1">  1        2 0.67214161E-01 0.88008147E+03</pdfrwt>
<pdfrwt beam="2">  1       -2 0.68186480E-01 0.88008147E+03</pdfrwt>
<totfact> 0.14229906E+02</totfact>
</mgrwt>
</event>
<event>
 6    1  0.1568961E-005  0.6776815E+03  0.7818608E-02  0.9756180E-01
         -2   -1    0    0    0  501 -0.00000000000E+00  0.00000000000E+00  0.16069085797E+03  0.16069085797E+03  0.00000000000E+00 0. -1.
          2   -1    0    0  501    0  0.00000000000E+00 -0.00000000000E+00 -0.71449647220E+03  0.71449647220E+03  0.00000000000E+00 0.  1.
         23    2    1    2    0    0  0.60262734641E+02 -0.17391632186E+03  0.74372895990E+02  0.22059835615E+03  0.96196792472E+02 0.  0.
         11    1    3    3    0    0  0.58141164301E+02 -0.10821451759E+03  0.90897311882E+02  0.15281720489E+03  0.00000000000E+00 0. -1.
        -11    1    3    3    0    0  0.21215703401E+01 -0.65701804277E+02 -0.16524415892E+02  0.67781151263E+02  0.00000000000E+00 0.  1.
         22    1    1    2    0    0 -0.60262734641E+02  0.17391632186E+03 -0.62817851022E+03  0.65458897402E+03  0.00000000000E+00 0.  1.
<mgrwt>
<rscale>  0 0.67768149E+03</rscale>
<asrwt>0</asrwt>
<pdfrwt beam="1">  1        2 0.10992253E+00 0.67768149E+03</pdfrwt>
<pdfrwt beam="2">  1       -2 0.24721670E-01 0.67768149E+03</pdfrwt>
<totfact> 0.58730643E+02</totfact>
</mgrwt>
</event>
<event>
 6    1  0.1568961E-005  0.2725615E+04  0.7818608E-02  0.8326742E-01
          2   -1    0    0  501    0  0.00000000000E+00  0.00000000000E+00  0.11646270079E+04  0.11646270079E+04  0.00000000000E+00 0. -1.
         -2   -1    0    0    0  501 -0.00000000000E+00 -0.00000000000E+00 -0.15947110990E+04  0.15947110990E+04  0.00000000000E+00 0.  1.
         23    2    1    2    0    0 -0.11169687001E+04  0.37752733992E+03  0.47353490629E+03  0.12738505566E+04  0.91180939180E+02 0.  0.
         11    1    3    3    0    0 -0.59036032093E+03  0.23928351929E+03  0.28270106004E+03  0.69692309510E+03  0.00000000000E+00 0.  1.
        -11    1    3    3    0    0 -0.52660837918E+03  0.13824382063E+03  0.19083384626E+03  0.57692746151E+03  0.00000000000E+00 0. -1.
         22    1    1    2    0    0  0.11169687001E+04 -0.37752733992E+03 -0.90361899746E+03  0.14854875503E+04  0.00000000000E+00 0.  1.
<mgrwt>
<rscale>  0 0.27256145E+04</rscale>
<asrwt>0</asrwt>
<pdfrwt beam="1">  1        2 0.17917339E+00 0.27256145E+04</pdfrwt>
<pdfrwt beam="2">  1       -2 0.24534017E+00 0.27256145E+04</pdfrwt>
<totfact> 0.11955609E+00</totfact>
</mgrwt>
</event>
<event>
 6    1  0.1568961E-005  0.3077002E+04  0.7818608E-02  0.8222078E-01
         -1   -1    0    0    0  501 -0.00000000000E+00  0.00000000000E+00  0.18591777452E+04  0.18591777452E+04  0.00000000000E+00 0.  1.
          1   -1    0    0  501    0  0.00000000000E+00 -0.00000000000E+00 -0.12731353472E+04  0.12731353472E+04  0.00000000000E+00 0. -1.
         23    2    1    2    0    0 -0.98025841126E+03 -0.67896894799E+03  0.12806696923E+04  0.17523085768E+04  0.92547837621E+02 0.  0.
         13    1    3    3    0    0 -0.16913987225E+03 -0.90936436392E+02  0.16898736832E+03  0.25580160769E+03  0.00000000000E+00 0.  1.
        -13    1    3    3    0    0 -0.81111853901E+03 -0.58803251159E+03  0.11116823240E+04  0.14965069691E+04  0.00000000000E+00 0. -1.
         22    1    1    2    0    0  0.98025841126E+03  0.67896894799E+03 -0.69462729433E+03  0.13800045156E+04  0.00000000000E+00 0. -1.
<mgrwt>
<rscale>  0 0.30770017E+04</rscale>
<asrwt>0</asrwt>
<pdfrwt beam="1">  1        1 0.19586698E+00 0.30770017E+04</pdfrwt>
<pdfrwt beam="2">  1       -1 0.28602734E+00 0.30770017E+04</pdfrwt>
<totfact> 0.32522115E-01</totfact>
</mgrwt>
</event>
<event>
 6    1  0.1568961E-005  0.4954454E+03  0.7818608E-02  0.1014975E+00
          1   -1    0    0  501    0  0.00000000000E+00  0.00000000000E+00  0.49830896265E+03  0.49830896265E+03  0.00000000000E+00 0. -1.
         -1   -1    0    0    0  501 -0.00000000000E+00 -0.00000000000E+00 -0.12314956209E+03  0.12314956209E+03  0.00000000000E+00 0.  1.
         23    2    1    2    0    0 -0.92879744299E+02  0.77497145905E+02 -0.65493030858E+02  0.16450445720E+03  0.90221531927E+02 0.  0.
         13    1    3    3    0    0 -0.86653072534E+02  0.19111575403E+02 -0.21966543302E+02  0.91414092560E+02  0.00000000000E+00 0.  1.
        -13    1    3    3    0    0 -0.62266717646E+01  0.58385570503E+02 -0.43526487556E+02  0.73090364639E+02  0.00000000000E+00 0. -1.
         22    1    1    2    0    0  0.92879744299E+02 -0.77497145905E+02  0.44065243142E+03  0.45695406754E+03  0.00000000000E+00 0. -1.
<mgrwt>
<rscale>  0 0.49544538E+03</rscale>
<asrwt>0</asrwt>
<pdfrwt beam="1">  1        1 0.76662917E-01 0.49544538E+03</pdfrwt>
<pdfrwt beam="2">  1       -1 0.18946087E-01 0.49544538E+03</pdfrwt>
<totfact> 0.10007572E+03</totfact>
</mgrwt>
</event>
<event>
 6    1  0.1568961E-005  0.1219093E+04  0.7818608E-02  0.9096307E-01
         -2   -1    0    0    0  501 -0.00000000000E+00  0.00000000000E+00  0.46453863502E+03  0.46453863502E+03  0.00000000000E+00 0.  1.
          2   -1    0    0  501    0  0.00000000000E+00 -0.00000000000E+00 -0.79981944498E+03  0.79981944498E+03  0.00000000000E+00 0. -1.
         23    2    1    2    0    0  0.44837768837E+03  0.37505175281E+03 -0.33481696618E+03  0.67980133863E+03  0.91220011213E+02 0.  0.
         13    1    3    3    0    0  0.14714136871E+03  0.71067881214E+02 -0.83461424634E+02  0.18348579108E+03  0.00000000000E+00 0.  1.
        -13    1    3    3    0    0  0.30123631966E+03  0.30398387160E+03 -0.25135554155E+03  0.49631554755E+03  0.00000000000E+00 0. -1.
         22    1    1    2    0    0 -0.44837768837E+03 -0.37505175281E+03 -0.46384378039E+00  0.58455674136E+03  0.00000000000E+00 0.  1.
<mgrwt>
<rscale>  0 0.12190932E+04</rscale>
<asrwt>0</asrwt>
<pdfrwt beam="1">  1        2 0.12304915E+00 0.12190932E+04</pdfrwt>
<pdfrwt beam="2">  1       -2 0.71467482E-01 0.12190932E+04</pdfrwt>
<totfact> 0.60345244E+01</totfact>
</mgrwt>
</event>
<event>
 6    1  0.1568961E-005  0.2167506E+04  0.7818608E-02  0.8532076E-01
         -1   -1    0    0    0  501 -0.00000000000E+00  0.00000000000E+00  0.52998066185E+03  0.52998066185E+03  0.00000000000E+00 0.  1.
          1   -1    0    0  501    0  0.00000000000E+00 -0.00000000000E+00 -0.22161563780E+04  0.22161563780E+04  0.00000000000E+00 0. -1.
         23    2    1    2    0    0 -0.80312895322E+03 -0.59824528414E+03 -0.13630130973E+04  0.16938311843E+04  0.91355579602E+02 0.  0.
         13    1    3    3    0    0 -0.62040083577E+03 -0.49850329781E+03 -0.10407745954E+04  0.13101963568E+04  0.00000000000E+00 0.  1.
        -13    1    3    3    0    0 -0.18272811745E+03 -0.99741986331E+02 -0.32223850191E+03  0.38363482748E+03  0.00000000000E+00 0. -1.
         22    1    1    2    0    0  0.80312895322E+03  0.59824528414E+03 -0.32316261889E+03  0.10523058556E+04  0.00000000000E+00 0.  1.
<mgrwt>
<rscale>  0 0.21675055E+04</rscale>
<asrwt>0</asrwt>
<pdfrwt beam="1">  1        1 0.34094714E+00 0.21675055E+04</pdfrwt>
<pdfrwt beam="2">  1       -1 0.81535486E-01 0.21675055E+04</pdfrwt>
<totfact> 0.29081316E+00</totfact>
</mgrwt>
</event>
<event>
 6    1  0.1568961E-005  0.3769141E+04  0.7818608E-02  0.8052810E-01
         -2   -1    0    0    0  501 -0.00000000000E+00  0.00000000000E+00  0.16256282996E+04  0.16256282996E+04  0.00000000000E+00 0.  1.
          2   -1    0    0  501    0  0.00000000000E+00 -0.00000000000E+00 -0.21847583686E+04  0.21847583686E+04  0.00000000000E+00 0. -1.
         23    2    1    2    0    0 -0.87675213665E+03  0.13795739137E+04  0.66611476716E+03  0.17675593626E+04  0.92944740367E+02 0.  0.
         11    1    3    3    0    0 -0.24439103371E+03  0.46150294218E+03  0.19836067072E+03  0.55862232205E+03  0.00000000000E+00 0. -1.
        -11    1    3    3    0    0 -0.63236110293E+03  0.91807097149E+03  0.46775409644E+03  0.12089370405E+04  0.00000000000E+00 0.  1.
         22    1    1    2    0    0  0.87675213665E+03 -0.13795739137E+04 -0.12252448361E+04  0.20428273057E+04  0.00000000000E+00 0. -1.
<mgrwt>
<rscale>  0 0.37691405E+04</rscale>
<asrwt>0</asrwt>
<pdfrwt beam="1">  1        2 0.33611667E+00 0.37691405E+04</pdfrwt>
<pdfrwt beam="2">  1       -2 0.25009666E+00 0.37691405E+04</pdfrwt>
<totfact> 0.27170847E-01</totfact>
</mgrwt>
</event>
<event>
 6    1  0.1568961E-005  0.3765344E+04  0.7818608E-02  0.8053633E-01
          2   -1    0    0  501    0  0.00000000000E+00  0.00000000000E+00  0.25804908997E+04  0.25804908997E+04  0.00000000000E+00 0. -1.
         -2   -1    0    0    0  501 -0.00000000000E+00 -0.00000000000E+00 -0.13735577468E+04  0.13735577468E+04  0.00000000000E+00 0.  1.
         23    2    1    2    0    0  0.17888430608E+04  0.19231558904E+03  0.11819631793E+04  0.21547242506E+04  0.94100247826E+02 0.  0.
         11    1    3    3    0    0  0.44085901818E+03  0.65154271185E+02  0.33711906628E+03  0.55879425356E+03  0.00000000000E+00 0.  1.
        -11    1    3    3    0    0  0.13479840427E+04  0.12716131786E+03  0.84484411303E+03  0.15959299970E+04  0.00000000000E+00 0. -1.
         22    1    1    2    0    0 -0.17888430608E+04 -0.19231558904E+03  0.24969973583E+02  0.17993243959E+04  0.00000000000E+00 0.  1.
<mgrwt>
<rscale>  0 0.37653437E+04</rscale>
<asrwt>0</asrwt>
<pdfrwt beam="1">  1        2 0.39699860E+00 0.37653437E+04</pdfrwt>
<pdfrwt beam="2">  1       -2 0.21131658E+00 0.37653437E+04</pdfrwt>
<totfact> 0.28210346E-01</totfact>
</mgrwt>
</event>
<event>
 6    1  0.1568961E-005  0.5674669E+03  0.7818608E-02  0.9975300E-01
         -2   -1    0    0    0  501 -0.00000000000E+00  0.00000000000E+00  0.13897930169E+03  0.13897930169E+03  0.00000000000E+00 0.  1.
          2   -1    0    0  501    0  0.00000000000E+00 -0.00000000000E+00 -0.57925660705E+03  0.57925660705E+03  0.00000000000E+00 0. -1.
         23    2    1    2    0    0 -0.15960490849E+03 -0.21520359012E+03 -0.31524605447E+03  0.42256865368E+03  0.86010930698E+02 0.  0.
         13    1    3    3    0    0 -0.31678190122E+02 -0.63148398568E+01 -0.63934171391E+02  0.71630742026E+02  0.00000000000E+00 0.  1.
        -13    1    3    3    0    0 -0.12792671837E+03 -0.20888875027E+03 -0.25131188308E+03  0.35093791165E+03  0.00000000000E+00 0. -1.
         22    1    1    2    0    0  0.15960490849E+03  0.21520359012E+03 -0.12503125089E+03  0.29566725506E+03  0.00000000000E+00 0. -1.
<mgrwt>
<rscale>  0 0.56746693E+03</rscale>
<asrwt>0</asrwt>
<pdfrwt beam="1">  1        2 0.89116401E-01 0.56746693E+03</pdfrwt>
<pdfrwt beam="2">  1       -2 0.21381431E-01 0.56746693E+03</pdfrwt>
<totfact> 0.98495496E+02</totfact>
</mgrwt>
</event>
<event>
 6    1  0.1568961E-005  0.1843755E+04  0.7818608E-02  0.8683371E-01
          1   -1    0    0  501    0  0.00000000000E+00  0.00000000000E+00  0.38585823964E+03  0.38585823964E+03  0.00000000000E+00 0. -1.
         -1   -1    0    0    0  501 -0.00000000000E+00 -0.00000000000E+00 -0.22025132851E+04  0.22025132851E+04  0.00000000000E+00 0.  1.
         23    2    1    2    0    0 -0.84547229036E+02 -0.45299851859E+03 -0.20278393786E+04  0.20814645172E+04  0.89476806168E+02 0.  0.
         11    1    3    3    0    0  0.15671962781E+02 -0.12112689247E+03 -0.48273158745E+03  0.49794288831E+03  0.00000000000E+00 0.  1.
        -11    1    3    3    0    0 -0.10021919182E+03 -0.33187162612E+03 -0.15451077912E+04  0.15835216288E+04  0.00000000000E+00 0. -1.
         22    1    1    2    0    0  0.84547229036E+02  0.45299851859E+03  0.21118433316E+03  0.50690700760E+03  0.00000000000E+00 0. -1.
<mgrwt>
<rscale>  0 0.18437548E+04</rscale>
<asrwt>0</asrwt>
<pdfrwt beam="1">  1        1 0.59362805E-01 0.18437548E+04</pdfrwt>
<pdfrwt beam="2">  1       -1 0.33884820E+00 0.18437548E+04</pdfrwt>
<totfact> 0.10917170E+00</totfact>
</mgrwt>
</event>
<event>
 6    1  0.1568961E-005  0.1926395E+04  0.7818608E-02  0.8641828E-01
         -1   -1    0    0    0  501 -0.00000000000E+00  0.00000000000E+00  0.96827077137E+03  0.96827077137E+03  0.00000000000E+00 0.  1.
          1   -1    0    0  501    0  0.00000000000E+00 -0.00000000000E+00 -0.95815047820E+03  0.95815047820E+03  0.00000000000E+00 0. -1.
         23    2    1    2    0    0 -0.46886777108E+03 -0.14511871416E+03 -0.82117053156E+03  0.96105040722E+03  0.91653779827E+02 0.  0.
         11    1    3    3    0    0 -0.38566482941E+02 -0.15916248624E+02 -0.13139438807E+03  0.13785929709E+03  0.00000000000E+00 0. -1.
        -11    1    3    3    0    0 -0.43030128814E+03 -0.12920246554E+03 -0.68977614349E+03  0.82319111014E+03  0.00000000000E+00 0.  1.
         22    1    1    2    0    0  0.46886777108E+03  0.14511871416E+03  0.83129082473E+03  0.96537084234E+03  0.00000000000E+00 0.  1.
<mgrwt>
<rscale>  0 0.19263947E+04</rscale>
<asrwt>0</asrwt>
<pdfrwt beam="1">  1        1 0.14740777E+00 0.19263947E+04</pdfrwt>
<pdfrwt beam="2">  1       -1 0.14896473E+00 0.19263947E+04</pdfrwt>
<totfact> 0.54187859E+00</totfact>
</mgrwt>
</event>
<event>
 6    1  0.1568961E-005  0.1226667E+04  0.7818608E-02  0.9089830E-01
          1   -1    0    0  501    0  0.00000000000E+00  0.00000000000E+00  0.80364757776E+03  0.80364757776E+03  0.00000000000E+00 0. -1.
         -1   -1    0    0    0  501 -0.00000000000E+00 -0.00000000000E+00 -0.46808849462E+03  0.46808849462E+03  0.00000000000E+00 0.  1.
         23    2    1    2    0    0  0.37565017082E+03  0.42234441677E+03 -0.68926201169E+02  0.57668484949E+03  0.91250957336E+02 0.  0.
         13    1    3    3    0    0  0.20280114502E+03  0.16188218511E+03 -0.42836877115E+02  0.26300027437E+03  0.00000000000E+00 0.  1.
        -13    1    3    3    0    0  0.17284902580E+03  0.26046223166E+03 -0.26089324053E+02  0.31368457513E+03  0.00000000000E+00 0. -1.
         22    1    1    2    0    0 -0.37565017082E+03 -0.42234441677E+03  0.40448528431E+03  0.69505122288E+03  0.00000000000E+00 0. -1.
<mgrwt>
<rscale>  0 0.12266673E+04</rscale>
<asrwt>0</asrwt>
<pdfrwt beam="1">  1        1 0.12363809E+00 0.12266673E+04</pdfrwt>
<pdfrwt beam="2">  1       -1 0.72013615E-01 0.12266673E+04</pdfrwt>
<totfact> 0.42202676E+01</totfact>
</mgrwt>
</event>
<event>
 6    1  0.1568961E-005  0.2841680E+04  0.7818608E-02  0.8290444E-01
         -1   -1    0    0    0  501 -0.00000000000E+00  0.00000000000E+00  0.19993555675E+04  0.19993555675E+04  0.00000000000E+00 0.  1.
          1   -1    0    0  501    0  0.00000000000E+00 -0.00000000000E+00 -0.10097188048E+04  0.10097188048E+04  0.00000000000E+00 0. -1.
         23    2    1    2    0    0  0.11334764470E+04  0.81633689851E+03  0.22864289099E+03  0.14183869547E+04  0.91483299343E+02 0.  0.
         13    1    3    3    0    0  0.32071273264E+02  0.30747386699E+02 -0.75267311988E+01  0.45062401624E+02  0.00000000000E+00 0. -1.
        -13    1    3    3    0    0  0.11014051737E+04  0.78558951181E+03  0.23616962219E+03  0.13733245531E+04  0.00000000000E+00 0.  1.
         22    1    1    2    0    0 -0.11334764470E+04 -0.81633689851E+03  0.76099387168E+03  0.15906874176E+04  0.00000000000E+00 0.  1.
<mgrwt>
<rscale>  0 0.28416804E+04</rscale>
<asrwt>0</asrwt>
<pdfrwt beam="1">  1        1 0.15534135E+00 0.28416804E+04</pdfrwt>
<pdfrwt beam="2">  1       -1 0.30759316E+00 0.28416804E+04</pdfrwt>
<totfact> 0.37809581E-01</totfact>
</mgrwt>
</event>
<event>
 6    1  0.1568961E-005  0.8793852E+03  0.7818608E-02  0.9451724E-01
         -1   -1    0    0    0  501 -0.00000000000E+00  0.00000000000E+00  0.33607613398E+03  0.33607613398E+03  0.00000000000E+00 0.  1.
          1   -1    0    0  501    0  0.00000000000E+00 -0.00000000000E+00 -0.57525530847E+03  0.57525530847E+03  0.00000000000E+00 0. -1.
         23    2    1    2    0    0 -0.50268780999E+01  0.40608259301E+03  0.40591447656E+02  0.41817838014E+03  0.91088693797E+02 0.  0.
         11    1    3    3    0    0  0.64525334559E+01  0.39171901258E+02 -0.22610625974E+02  0.45687125573E+02  0.00000000000E+00 0. -1.
        -11    1    3    3    0    0 -0.11479411556E+02  0.36691069176E+03  0.63202073630E+02  0.37249125456E+03  0.00000000000E+00 0.  1.
         22    1    1    2    0    0  0.50268780999E+01 -0.40608259301E+03 -0.27977062215E+03  0.49315306231E+03  0.00000000000E+00 0. -1.
<mgrwt>
<rscale>  0 0.87938519E+03</rscale>
<asrwt>0</asrwt>
<pdfrwt beam="1">  1        1 0.88500816E-01 0.87938519E+03</pdfrwt>
<pdfrwt beam="2">  1       -1 0.51704021E-01 0.87938519E+03</pdfrwt>
<totfact> 0.13816946E+02</totfact>
</mgrwt>
</event>
<event>
 6    1  0.1568961E-005  0.1193362E+04  0.7818608E-02  0.9118687E-01
         -4   -1    0    0    0  501 -0.00000000000E+00  0.00000000000E+00  0.39221944723E+03  0.39221944723E+03  0.00000000000E+00 0.  1.
          4   -1    0    0  501    0  0.00000000000E+00 -0.00000000000E+00 -0.90772678074E+03  0.90772678074E+03  0.00000000000E+00 0. -1.
         23    2    1    2    0    0  0.46680176523E+03  0.14911319468E+03  0.10485822502E+03  0.50938183523E+03  0.91301554558E+02 0.  0.
         11    1    3    3    0    0  0.32234817175E+03  0.14450033214E+03  0.62181854178E+02  0.35868547895E+03  0.00000000000E+00 0.  1.
        -11    1    3    3    0    0  0.14445359347E+03  0.46128625363E+01  0.42676370843E+02  0.15069635628E+03  0.00000000000E+00 0. -1.
         22    1    1    2    0    0 -0.46680176523E+03 -0.14911319468E+03 -0.62036555853E+03  0.79056439273E+03  0.00000000000E+00 0. -1.
<mgrwt>
<rscale>  0 0.11933618E+04</rscale>
<asrwt>0</asrwt>
<pdfrwt beam="1">  1        4 0.13965027E+00 0.11933618E+04</pdfrwt>
<pdfrwt beam="2">  1       -4 0.60341454E-01 0.11933618E+04</pdfrwt>
<totfact> 0.18339505E+00</totfact>
</mgrwt>
</event>
<event>
 6    1  0.1568961E-005  0.1914113E+04  0.7818608E-02  0.8647863E-01
         -2   -1    0    0    0  501 -0.00000000000E+00  0.00000000000E+00  0.39044039838E+03  0.39044039838E+03  0.00000000000E+00 0.  1.
          2   -1    0    0  501    0  0.00000000000E+00 -0.00000000000E+00 -0.23459582489E+04  0.23459582489E+04  0.00000000000E+00 0. -1.
         23    2    1    2    0    0  0.79764965453E+03  0.67575941887E+02 -0.17243132753E+04  0.19031717664E+04  0.89414886571E+02 0.  0.
         11    1    3    3    0    0  0.33938066374E+03 -0.13520110136E+02 -0.69636172125E+03  0.77477846842E+03  0.00000000000E+00 0. -1.
        -11    1    3    3    0    0  0.45826899080E+03  0.81096052023E+02 -0.10279515540E+04  0.11283932980E+04  0.00000000000E+00 0.  1.
         22    1    1    2    0    0 -0.79764965453E+03 -0.67575941887E+02 -0.23120457519E+03  0.83322688080E+03  0.00000000000E+00 0.  1.
<mgrwt>
<rscale>  0 0.19141127E+04</rscale>
<asrwt>0</asrwt>
<pdfrwt beam="1">  1        2 0.36091666E+00 0.19141127E+04</pdfrwt>
<pdfrwt beam="2">  1       -2 0.60067752E-01 0.19141127E+04</pdfrwt>
<totfact> 0.10321926E+01</totfact>
</mgrwt>
</event>
<event>
 6    1  0.1568961E-005  0.1522656E+04  0.7818608E-02  0.8869525E-01
          1   -1    0    0  501    0  0.00000000000E+00  0.00000000000E+00  0.13709717709E+04  0.13709717709E+04  0.00000000000E+00 0. -1.
         -1   -1    0    0    0  501 -0.00000000000E+00 -0.00000000000E+00 -0.42278077519E+03  0.42278077519E+03  0.00000000000E+00 0.  1.
         23    2    1    2    0    0 -0.35717205151E+03  0.66931119690E+03  0.47223496953E+03  0.89816140528E+03  0.90214692917E+02 0.  0.
         13    1    3    3    0    0 -0.26099456024E+03  0.52201706868E+03  0.40234068256E+03  0.70887093699E+03  0.00000000000E+00 0. -1.
        -13    1    3    3    0    0 -0.96177491269E+02  0.14729412822E+03  0.69894286967E+02  0.18929046829E+03  0.00000000000E+00 0.  1.
         22    1    1    2    0    0  0.35717205151E+03 -0.66931119690E+03  0.47595602623E+03  0.89559114086E+03  0.00000000000E+00 0. -1.
<mgrwt>
<rscale>  0 0.15226562E+04</rscale>
<asrwt>0</asrwt>
<pdfrwt beam="1">  1        1 0.21091873E+00 0.15226562E+04</pdfrwt>
<pdfrwt beam="2">  1       -1 0.65043197E-01 0.15226562E+04</pdfrwt>
<totfact> 0.18634751E+01</totfact>
</mgrwt>
</event>
<event>
 6    1  0.1568961E-005  0.3607048E+04  0.7818608E-02  0.8088879E-01
          1   -1    0    0  501    0  0.00000000000E+00  0.00000000000E+00  0.12834260664E+04  0.12834260664E+04  0.00000000000E+00 0.  1.
         -1   -1    0    0    0  501 -0.00000000000E+00 -0.00000000000E+00 -0.25343870976E+04  0.25343870976E+04  0.00000000000E+00 0. -1.
         23    2    1    2    0    0  0.64904640867E+03  0.12391468197E+04 -0.18288383054E+04  0.23043111900E+04  0.91947983977E+02 0.  0.
         13    1    3    3    0    0  0.45348848941E+03  0.86904867038E+03 -0.12108067074E+04  0.15578672229E+04  0.00000000000E+00 0. -1.
        -13    1    3    3    0    0  0.19555791927E+03  0.37009814936E+03 -0.61803159797E+03  0.74644396711E+03  0.00000000000E+00 0.  1.
         22    1    1    2    0    0 -0.64904640867E+03 -0.12391468197E+04  0.57787727414E+03  0.15135019740E+04  0.00000000000E+00 0.  1.
<mgrwt>
<rscale>  0 0.36070478E+04</rscale>
<asrwt>0</asrwt>
<pdfrwt beam="1">  1        1 0.19745017E+00 0.36070478E+04</pdfrwt>
<pdfrwt beam="2">  1       -1 0.38990570E+00 0.36070478E+04</pdfrwt>
<totfact> 0.62960098E-02</totfact>
</mgrwt>
</event>
<event>
 6    1  0.1568961E-005  0.9547357E+03  0.7818608E-02  0.9359632E-01
         -2   -1    0    0    0  501 -0.00000000000E+00  0.00000000000E+00  0.20633092552E+03  0.20633092552E+03  0.00000000000E+00 0.  1.
          2   -1    0    0  501    0  0.00000000000E+00 -0.00000000000E+00 -0.11044396484E+04  0.11044396484E+04  0.00000000000E+00 0. -1.
         23    2    1    2    0    0 -0.23285660824E+03 -0.81499882248E+02 -0.10070581518E+04  0.10410773984E+04  0.93870110561E+02 0.  0.
         11    1    3    3    0    0 -0.15678030041E+03 -0.95495344359E+02 -0.63176709803E+03  0.65789747646E+03  0.00000000000E+00 0. -1.
        -11    1    3    3    0    0 -0.76076307837E+02  0.13995462111E+02 -0.37529105376E+03  0.38317992198E+03  0.00000000000E+00 0.  1.
         22    1    1    2    0    0  0.23285660824E+03  0.81499882248E+02  0.10894942895E+03  0.26969317544E+03  0.00000000000E+00 0.  1.
<mgrwt>
<rscale>  0 0.95473568E+03</rscale>
<asrwt>0</asrwt>
<pdfrwt beam="1">  1        2 0.16991379E+00 0.95473568E+03</pdfrwt>
<pdfrwt beam="2">  1       -2 0.31743220E-01 0.95473568E+03</pdfrwt>
<totfact> 0.19947466E+02</totfact>
</mgrwt>
</event>
<event>
 6    1  0.1568961E-005  0.2167579E+04  0.7818608E-02  0.8532045E-01
         -2   -1    0    0    0  501 -0.00000000000E+00  0.00000000000E+00  0.43920628534E+03  0.43920628534E+03  0.00000000000E+00 0.  1.
          2   -1    0    0  501    0  0.00000000000E+00 -0.00000000000E+00 -0.26743678923E+04  0.26743678923E+04  0.00000000000E+00 0. -1.
         23    2    1    2    0    0 -0.88036470633E+03 -0.62730814239E+03 -0.10596384349E+04  0.15165731602E+04  0.92752444109E+02 0.  0.
         13    1    3    3    0    0 -0.46047541928E+03 -0.29152952112E+03 -0.48373255332E+03  0.72871411170E+03  0.00000000000E+00 0. -1.
        -13    1    3    3    0    0 -0.41988928704E+03 -0.33577862127E+03 -0.57590588159E+03  0.78785904851E+03  0.00000000000E+00 0.  1.
         22    1    1    2    0    0  0.88036470633E+03  0.62730814239E+03 -0.11755231721E+04  0.15970010174E+04  0.00000000000E+00 0. -1.
<mgrwt>
<rscale>  0 0.21675785E+04</rscale>
<asrwt>0</asrwt>
<pdfrwt beam="1">  1        2 0.41144121E+00 0.21675785E+04</pdfrwt>
<pdfrwt beam="2">  1       -2 0.67570198E-01 0.21675785E+04</pdfrwt>
<totfact> 0.50630238E+00</totfact>
</mgrwt>
</event>
<event>
 6    1  0.1568961E-005  0.4709000E+04  0.7818608E-02  0.7875035E-01
         -2   -1    0    0    0  501 -0.00000000000E+00  0.00000000000E+00  0.15144606705E+04  0.15144606705E+04  0.00000000000E+00 0.  1.
          2   -1    0    0  501    0  0.00000000000E+00 -0.00000000000E+00 -0.36604919332E+04  0.36604919332E+04  0.00000000000E+00 0. -1.
         23    2    1    2    0    0 -0.17833775345E+04  0.12425825841E+04 -0.20657121699E+04  0.29998898309E+04  0.87893798759E+02 0.  0.
         11    1    3    3    0    0 -0.46831297677E+03  0.34068734679E+03 -0.49999516567E+03  0.76510135157E+03  0.00000000000E+00 0. -1.
        -11    1    3    3    0    0 -0.13150645578E+04  0.90189523726E+03 -0.15657170042E+04  0.22347884793E+04  0.00000000000E+00 0.  1.
         22    1    1    2    0    0  0.17833775345E+04 -0.12425825841E+04 -0.80319092901E+02  0.21750627728E+04  0.00000000000E+00 0. -1.
<mgrwt>
<rscale>  0 0.47090003E+04</rscale>
<asrwt>0</asrwt>
<pdfrwt beam="1">  1        2 0.56315259E+00 0.47090003E+04</pdfrwt>
<pdfrwt beam="2">  1       -2 0.23299395E+00 0.47090003E+04</pdfrwt>
<totfact> 0.37976501E-02</totfact>
</mgrwt>
</event>
<event>
 6    1  0.1568961E-005  0.1350242E+04  0.7818608E-02  0.8990645E-01
         -2   -1    0    0    0  501 -0.00000000000E+00  0.00000000000E+00  0.59066681881E+03  0.59066681881E+03  0.00000000000E+00 0. -1.
          2   -1    0    0  501    0  0.00000000000E+00 -0.00000000000E+00 -0.77165044029E+03  0.77165044029E+03  0.00000000000E+00 0.  1.
         23    2    1    2    0    0  0.16334495247E+03  0.46228717978E+03  0.37260707129E+03  0.62282171131E+03  0.93165682601E+02 0.  0.
         13    1    3    3    0    0  0.60101298457E+02  0.92320588987E+02  0.12106945949E+03  0.16368589203E+03  0.00000000000E+00 0. -1.
        -13    1    3    3    0    0  0.10324365401E+03  0.36996659079E+03  0.25153761179E+03  0.45913581928E+03  0.00000000000E+00 0.  1.
         22    1    1    2    0    0 -0.16334495247E+03 -0.46228717978E+03 -0.55359069276E+03  0.73949554779E+03  0.00000000000E+00 0.  1.
<mgrwt>
<rscale>  0 0.13502419E+04</rscale>
<asrwt>0</asrwt>
<pdfrwt beam="1">  1        2 0.11871545E+00 0.13502419E+04</pdfrwt>
<pdfrwt beam="2">  1       -2 0.90871819E-01 0.13502419E+04</pdfrwt>
<totfact> 0.36486675E+01</totfact>
</mgrwt>
</event>
<event>
 6    1  0.1568961E-005  0.7070750E+03  0.7818608E-02  0.9705209E-01
         -2   -1    0    0    0  501 -0.00000000000E+00  0.00000000000E+00  0.67364890137E+02  0.67364890137E+02  0.00000000000E+00 0.  1.
          2   -1    0    0  501    0  0.00000000000E+00 -0.00000000000E+00 -0.18553994305E+04  0.18553994305E+04  0.00000000000E+00 0. -1.
         23    2    1    2    0    0 -0.30899418882E+03  0.13973195417E+03 -0.69729222043E+03  0.78052037286E+03  0.89404608606E+02 0.  0.
         13    1    3    3    0    0 -0.22539777204E+03  0.56772226762E+02 -0.48208002059E+03  0.53519004814E+03  0.00000000000E+00 0. -1.
        -13    1    3    3    0    0 -0.83596416775E+02  0.82959727406E+02 -0.21521219984E+03  0.24533032473E+03  0.00000000000E+00 0.  1.
         22    1    1    2    0    0  0.30899418882E+03 -0.13973195417E+03 -0.10907423200E+04  0.11422439478E+04  0.00000000000E+00 0. -1.
<mgrwt>
<rscale>  0 0.70707504E+03</rscale>
<asrwt>0</asrwt>
<pdfrwt beam="1">  1        2 0.28544610E+00 0.70707504E+03</pdfrwt>
<pdfrwt beam="2">  1       -2 0.10363828E-01 0.70707504E+03</pdfrwt>
<totfact> 0.53244865E+02</totfact>
</mgrwt>
</event>
<event>
 6    1  0.1568961E-005  0.9148649E+03  0.7818608E-02  0.9407188E-01
          1   -1    0    0  501    0  0.00000000000E+00  0.00000000000E+00  0.11834551085E+04  0.11834551085E+04  0.00000000000E+00 0. -1.
         -1   -1    0    0    0  501 -0.00000000000E+00 -0.00000000000E+00 -0.17680809201E+03  0.17680809201E+03  0.00000000000E+00 0.  1.
         23    2    1    2    0    0  0.20018788863E+03  0.17391052495E+03 -0.37623273668E+02  0.28284939869E+03  0.90929699072E+02 0.  0.
         11    1    3    3    0    0  0.46397315578E+02  0.50994912228E+01 -0.27691144116E+02  0.54272600509E+02  0.00000000000E+00 0. -1.
        -11    1    3    3    0    0  0.15379057305E+03  0.16881103373E+03 -0.99321295522E+01  0.22857679818E+03  0.00000000000E+00 0.  1.
         22    1    1    2    0    0 -0.20018788863E+03 -0.17391052495E+03  0.10442702901E+04  0.10774138018E+04  0.00000000000E+00 0. -1.
<mgrwt>
<rscale>  0 0.91486489E+03</rscale>
<asrwt>0</asrwt>
<pdfrwt beam="1">  1        1 0.18207001E+00 0.91486489E+03</pdfrwt>
<pdfrwt beam="2">  1       -1 0.27201246E-01 0.91486489E+03</pdfrwt>
<totfact> 0.13382730E+02</totfact>
</mgrwt>
</event>
<event>
 6    1  0.1568961E-005  0.1694955E+04  0.7818608E-02  0.8764247E-01
          2   -1    0    0  501    0  0.00000000000E+00  0.00000000000E+00  0.17501308666E+04  0.17501308666E+04  0.00000000000E+00 0. -1.
         -2   -1    0    0    0  501 -0.00000000000E+00 -0.00000000000E+00 -0.41037979917E+03  0.41037979917E+03  0.00000000000E+00 0.  1.
         23    2    1    2    0    0  0.43241834203E+03  0.66993476375E+03  0.31492648110E+03  0.86202553188E+03  0.90061750600E+02 0.  0.
         13    1    3    3    0    0  0.51583741667E+02  0.13598155742E+03  0.75258132936E+02  0.16375485622E+03  0.00000000000E+00 0.  1.
        -13    1    3    3    0    0  0.38083460036E+03  0.53395320633E+03  0.23966834817E+03  0.69827067566E+03  0.00000000000E+00 0. -1.
         22    1    1    2    0    0 -0.43241834203E+03 -0.66993476375E+03  0.10248245864E+04  0.12984851339E+04  0.00000000000E+00 0. -1.
<mgrwt>
<rscale>  0 0.16949553E+04</rscale>
<asrwt>0</asrwt>
<pdfrwt beam="1">  1        2 0.26925090E+00 0.16949553E+04</pdfrwt>
<pdfrwt beam="2">  1       -2 0.63135355E-01 0.16949553E+04</pdfrwt>
<totfact> 0.20343123E+01</totfact>
</mgrwt>
</event>
<event>
 6    1  0.1568961E-005  0.2275230E+04  0.7818608E-02  0.8487752E-01
         -1   -1    0    0    0  501 -0.00000000000E+00  0.00000000000E+00  0.44344860296E+03  0.44344860296E+03  0.00000000000E+00 0.  1.
          1   -1    0    0  501    0  0.00000000000E+00 -0.00000000000E+00 -0.29184179193E+04  0.29184179193E+04  0.00000000000E+00 0. -1.
         23    2    1    2    0    0 -0.82362183047E+03 -0.72748163915E+03 -0.81500086999E+03  0.13711184976E+04  0.90316451185E+02 0.  0.
         13    1    3    3    0    0 -0.32908300487E+03 -0.23265775760E+03 -0.29726250403E+03  0.50078962905E+03  0.00000000000E+00 0. -1.
        -13    1    3    3    0    0 -0.49453882560E+03 -0.49482388155E+03 -0.51773836595E+03  0.87032886851E+03  0.00000000000E+00 0.  1.
         22    1    1    2    0    0  0.82362183047E+03  0.72748163915E+03 -0.16599684464E+04  0.19907480247E+04  0.00000000000E+00 0. -1.
<mgrwt>
<rscale>  0 0.22752304E+04</rscale>
<asrwt>0</asrwt>
<pdfrwt beam="1">  1        1 0.44898737E+00 0.22752304E+04</pdfrwt>
<pdfrwt beam="2">  1       -1 0.68222862E-01 0.22752304E+04</pdfrwt>
<totfact> 0.13504991E+00</totfact>
</mgrwt>
</event>
<event>
 6    1  0.1568961E-005  0.1514348E+04  0.7818608E-02  0.8874967E-01
         -1   -1    0    0    0  501 -0.00000000000E+00  0.00000000000E+00  0.19286656795E+04  0.19286656795E+04  0.00000000000E+00 0.  1.
          1   -1    0    0  501    0  0.00000000000E+00 -0.00000000000E+00 -0.29725858823E+03  0.29725858823E+03  0.00000000000E+00 0. -1.
         23    2    1    2    0    0  0.17641249357E+03 -0.30076832949E+03 -0.16428765650E+03  0.39668874897E+03  0.93747392345E+02 0.  0.
         13    1    3    3    0    0  0.15012160011E+03 -0.19047772643E+03 -0.79888967414E+02  0.25534389791E+03  0.00000000000E+00 0.  1.
        -13    1    3    3    0    0  0.26290893457E+02 -0.11029060306E+03 -0.84398689084E+02  0.14134485106E+03  0.00000000000E+00 0. -1.
         22    1    1    2    0    0 -0.17641249357E+03  0.30076832949E+03  0.17956947478E+04  0.18292355188E+04  0.00000000000E+00 0.  1.
<mgrwt>
<rscale>  0 0.15143480E+04</rscale>
<asrwt>0</asrwt>
<pdfrwt beam="1">  1        1 0.45732092E-01 0.15143480E+04</pdfrwt>
<pdfrwt beam="2">  1       -1 0.29671779E+00 0.15143480E+04</pdfrwt>
<totfact> 0.29805804E+00</totfact>
</mgrwt>
</event>
<event>
 6    1  0.1568961E-005  0.3889317E+04  0.7818608E-02  0.8027255E-01
         -1   -1    0    0    0  501 -0.00000000000E+00  0.00000000000E+00  0.18534594753E+04  0.18534594753E+04  0.00000000000E+00 0.  1.
          1   -1    0    0  501    0  0.00000000000E+00 -0.00000000000E+00 -0.20403451032E+04  0.20403451032E+04  0.00000000000E+00 0. -1.
         23    2    1    2    0    0  0.75689747691E+03  0.90786201052E+03  0.14511222100E+04  0.18738598025E+04  0.92128553859E+02 0.  0.
         11    1    3    3    0    0  0.65089422207E+03  0.81427273494E+03  0.12433897651E+04  0.16225663263E+04  0.00000000000E+00 0. -1.
        -11    1    3    3    0    0  0.10600325483E+03  0.93589275579E+02  0.20773244490E+03  0.25129347624E+03  0.00000000000E+00 0.  1.
         22    1    1    2    0    0 -0.75689747691E+03 -0.90786201052E+03 -0.16380078380E+04  0.20199447760E+04  0.00000000000E+00 0. -1.
<mgrwt>
<rscale>  0 0.38893171E+04</rscale>
<asrwt>0</asrwt>
<pdfrwt beam="1">  1        1 0.31389925E+00 0.38893171E+04</pdfrwt>
<pdfrwt beam="2">  1       -1 0.28514761E+00 0.38893171E+04</pdfrwt>
<totfact> 0.91082049E-02</totfact>
</mgrwt>
</event>
<event>
 6    1  0.1568961E-005  0.2230202E+04  0.7818608E-02  0.8505961E-01
          1   -1    0    0  501    0  0.00000000000E+00  0.00000000000E+00  0.26612560660E+04  0.26612560660E+04  0.00000000000E+00 0. -1.
         -1   -1    0    0    0  501 -0.00000000000E+00 -0.00000000000E+00 -0.46724189220E+03  0.46724189220E+03  0.00000000000E+00 0.  1.
         23    2    1    2    0    0 -0.15551015452E+03 -0.43844969213E+03  0.25175999525E+04  0.25618152456E+04  0.90367531714E+02 0.  0.
         11    1    3    3    0    0 -0.43109448622E+02 -0.24415600995E+03  0.12188714041E+04  0.12438320150E+04  0.00000000000E+00 0.  1.
        -11    1    3    3    0    0 -0.11240070590E+03 -0.19429368218E+03  0.12987285484E+04  0.13179832306E+04  0.00000000000E+00 0. -1.
         22    1    1    2    0    0  0.15551015452E+03  0.43844969213E+03 -0.32358577868E+03  0.56668271268E+03  0.00000000000E+00 0.  1.
<mgrwt>
<rscale>  0 0.22302021E+04</rscale>
<asrwt>0</asrwt>
<pdfrwt beam="1">  1        1 0.40942400E+00 0.22302021E+04</pdfrwt>
<pdfrwt beam="2">  1       -1 0.71883370E-01 0.22302021E+04</pdfrwt>
<totfact> 0.18564795E+00</totfact>
</mgrwt>
</event>
<event>
 6    1  0.1568961E-005  0.2741862E+04  0.7818608E-02  0.8321549E-01
          1   -1    0    0  501    0  0.00000000000E+00  0.00000000000E+00  0.14614849544E+04  0.14614849544E+04  0.00000000000E+00 0. -1.
         -1   -1    0    0    0  501 -0.00000000000E+00 -0.00000000000E+00 -0.12859877360E+04  0.12859877360E+04  0.00000000000E+00 0.  1.
         23    2    1    2    0    0 -0.12707146760E+04  0.45094921680E+03 -0.15282462666E+03  0.13597168698E+04  0.86044265696E+02 0.  0.
         11    1    3    3    0    0 -0.20703961211E+03  0.10427914473E+03 -0.11761747005E+02  0.23211609100E+03  0.00000000000E+00 0.  1.
        -11    1    3    3    0    0 -0.10636750639E+04  0.34667007207E+03 -0.14106287966E+03  0.11276007788E+04  0.00000000000E+00 0. -1.
         22    1    1    2    0    0  0.12707146760E+04 -0.45094921680E+03  0.32832184506E+03  0.13877558207E+04  0.00000000000E+00 0.  1.
<mgrwt>
<rscale>  0 0.27418619E+04</rscale>
<asrwt>0</asrwt>
<pdfrwt beam="1">  1        1 0.22484384E+00 0.27418619E+04</pdfrwt>
<pdfrwt beam="2">  1       -1 0.19784427E+00 0.27418619E+04</pdfrwt>
<totfact> 0.94297362E-01</totfact>
</mgrwt>
</event>
<event>
 6    1  0.1568961E-005  0.1671533E+04  0.7818608E-02  0.8777769E-01
          2   -1    0    0  501    0  0.00000000000E+00  0.00000000000E+00  0.16870396364E+04  0.16870396364E+04  0.00000000000E+00 0. -1.
         -2   -1    0    0    0  501 -0.00000000000E+00 -0.00000000000E+00 -0.41404242471E+03  0.41404242471E+03  0.00000000000E+00 0.  1.
         23    2    1    2    0    0 -0.26189139692E+03  0.39745498705E+03  0.14981809831E+04  0.15745221866E+04  0.89533723163E+02 0.  0.
         11    1    3    3    0    0 -0.62998808311E+02  0.38650732437E+02  0.21383250490E+03  0.22624559470E+03  0.00000000000E+00 0. -1.
        -11    1    3    3    0    0 -0.19889258861E+03  0.35880425462E+03  0.12843484782E+04  0.13482765919E+04  0.00000000000E+00 0.  1.
         22    1    1    2    0    0  0.26189139692E+03 -0.39745498705E+03 -0.22518377140E+03  0.52655987449E+03  0.00000000000E+00 0.  1.
<mgrwt>
<rscale>  0 0.16715334E+04</rscale>
<asrwt>0</asrwt>
<pdfrwt beam="1">  1        2 0.25954455E+00 0.16715334E+04</pdfrwt>
<pdfrwt beam="2">  1       -2 0.63698836E-01 0.16715334E+04</pdfrwt>
<totfact> 0.21679131E+01</totfact>
</mgrwt>
</event>
<event>
 6    1  0.1568961E-005  0.2986123E+04  0.7818608E-02  0.8247705E-01
         -2   -1    0    0    0  501 -0.00000000000E+00  0.00000000000E+00  0.18309975608E+04  0.18309975608E+04  0.00000000000E+00 0.  1.
          2   -1    0    0  501    0  0.00000000000E+00 -0.00000000000E+00 -0.12174960738E+04  0.12174960738E+04  0.00000000000E+00 0. -1.
         23    2    1    2    0    0 -0.97448674389E+03  0.18526059146E+03  0.14438440244E+04  0.17548883509E+04  0.10488878149E+03 0.  0.
         13    1    3    3    0    0 -0.70051181036E+03  0.13790311368E+03  0.95310184570E+03  0.11908556560E+04  0.00000000000E+00 0. -1.
        -13    1    3    3    0    0 -0.27397493353E+03  0.47357477783E+02  0.49074217867E+03  0.56403269483E+03  0.00000000000E+00 0.  1.
         22    1    1    2    0    0  0.97448674389E+03 -0.18526059146E+03 -0.83034253734E+03  0.12936052837E+04  0.00000000000E+00 0. -1.
<mgrwt>
<rscale>  0 0.29861228E+04</rscale>
<asrwt>0</asrwt>
<pdfrwt beam="1">  1        2 0.18730709E+00 0.29861228E+04</pdfrwt>
<pdfrwt beam="2">  1       -2 0.28169193E+00 0.29861228E+04</pdfrwt>
<totfact> 0.65163186E-01</totfact>
</mgrwt>
</event>
<event>
 6    1  0.1568961E-005  0.1642451E+04  0.7818608E-02  0.8794885E-01
         -1   -1    0    0    0  501 -0.00000000000E+00  0.00000000000E+00  0.68445970228E+03  0.68445970228E+03  0.00000000000E+00 0.  1.
          1   -1    0    0  501    0  0.00000000000E+00 -0.00000000000E+00 -0.98531915032E+03  0.98531915032E+03  0.00000000000E+00 0. -1.
         23    2    1    2    0    0  0.30556233116E+03  0.74149303849E+03  0.16549825132E+02  0.80726571586E+03  0.90685031516E+02 0.  0.
         13    1    3    3    0    0  0.18589609112E+03  0.50719270654E+03 -0.25731256358E+02  0.54079931196E+03  0.00000000000E+00 0.  1.
        -13    1    3    3    0    0  0.11966624004E+03  0.23430033194E+03  0.42281081490E+02  0.26646640390E+03  0.00000000000E+00 0. -1.
         22    1    1    2    0    0 -0.30556233116E+03 -0.74149303849E+03 -0.31740927317E+03  0.86251313674E+03  0.00000000000E+00 0. -1.
<mgrwt>
<rscale>  0 0.16424509E+04</rscale>
<asrwt>0</asrwt>
<pdfrwt beam="1">  1        1 0.15158756E+00 0.16424509E+04</pdfrwt>
<pdfrwt beam="2">  1       -1 0.10530149E+00 0.16424509E+04</pdfrwt>
<totfact> 0.12567416E+01</totfact>
</mgrwt>
</event>
<event>
 6    1  0.1568961E-005  0.2589700E+04  0.7818608E-02  0.8371708E-01
          2   -1    0    0  501    0  0.00000000000E+00  0.00000000000E+00  0.27639614003E+04  0.27639614003E+04  0.00000000000E+00 0.  1.
         -2   -1    0    0    0  501 -0.00000000000E+00 -0.00000000000E+00 -0.60660617799E+03  0.60660617799E+03  0.00000000000E+00 0. -1.
         23    2    1    2    0    0  0.53113088932E+03  0.58641491259E+03  0.24114509105E+04  0.25395759478E+04  0.91476933163E+02 0.  0.
         11    1    3    3    0    0  0.28654976379E+03  0.32945677195E+03  0.14712416100E+04  0.15346675232E+04  0.00000000000E+00 0.  1.
        -11    1    3    3    0    0  0.24458112553E+03  0.25695814064E+03  0.94020930050E+03  0.10049084246E+04  0.00000000000E+00 0. -1.
         22    1    1    2    0    0 -0.53113088932E+03 -0.58641491259E+03 -0.25409568818E+03  0.83099163055E+03  0.00000000000E+00 0. -1.
<mgrwt>
<rscale>  0 0.25896996E+04</rscale>
<asrwt>0</asrwt>
<pdfrwt beam="1">  1        2 0.42522482E+00 0.25896996E+04</pdfrwt>
<pdfrwt beam="2">  1       -2 0.93324029E-01 0.25896996E+04</pdfrwt>
<totfact> 0.20907496E+00</totfact>
</mgrwt>
</event>
<event>
 6    1  0.1568961E-005  0.8375720E+03  0.7818608E-02  0.9507171E-01
         -2   -1    0    0    0  501 -0.00000000000E+00  0.00000000000E+00  0.10718369204E+03  0.10718369204E+03  0.00000000000E+00 0.  1.
          2   -1    0    0  501    0  0.00000000000E+00 -0.00000000000E+00 -0.16362722988E+04  0.16362722988E+04  0.00000000000E+00 0. -1.
         23    2    1    2    0    0  0.40740401168E+03 -0.11044796664E+02 -0.92235663698E+03  0.10125499097E+04  0.91736239424E+02 0.  0.
         11    1    3    3    0    0  0.14928187087E+03 -0.96394754210E+01 -0.45073617920E+03  0.47491167568E+03  0.00000000000E+00 0.  1.
        -11    1    3    3    0    0  0.25812214081E+03 -0.14053212428E+01 -0.47162045778E+03  0.53763823404E+03  0.00000000000E+00 0. -1.
         22    1    1    2    0    0 -0.40740401168E+03  0.11044796664E+02 -0.60673196982E+03  0.73090608115E+03  0.00000000000E+00 0.  1.
<mgrwt>
<rscale>  0 0.83757198E+03</rscale>
<asrwt>0</asrwt>
<pdfrwt beam="1">  1        2 0.25173422E+00 0.83757198E+03</pdfrwt>
<pdfrwt beam="2">  1       -2 0.16489797E-01 0.83757198E+03</pdfrwt>
<totfact> 0.32044129E+02</totfact>
</mgrwt>
</event>
<event>
 6    1  0.1568961E-005  0.1557932E+04  0.7818608E-02  0.8846817E-01
         -1   -1    0    0    0  501 -0.00000000000E+00  0.00000000000E+00  0.10131431873E+04  0.10131431873E+04  0.00000000000E+00 0.  1.
          1   -1    0    0  501    0  0.00000000000E+00 -0.00000000000E+00 -0.59891673340E+03  0.59891673340E+03  0.00000000000E+00 0. -1.
         23    2    1    2    0    0 -0.28829482159E+03 -0.59482533099E+03 -0.21328625334E+03  0.70063067150E+03  0.91984963100E+02 0.  0.
         13    1    3    3    0    0 -0.18676547982E+03 -0.42975668655E+03 -0.18922371844E+03  0.50534915623E+03  0.00000000000E+00 0.  1.
        -13    1    3    3    0    0 -0.10152934178E+03 -0.16506864445E+03 -0.24062534902E+02  0.19528151527E+03  0.00000000000E+00 0. -1.
         22    1    1    2    0    0  0.28829482159E+03  0.59482533099E+03  0.62751270723E+03  0.91142924919E+03  0.00000000000E+00 0.  1.
<mgrwt>
<rscale>  0 0.15579325E+04</rscale>
<asrwt>0</asrwt>
<pdfrwt beam="1">  1        1 0.92141036E-01 0.15579325E+04</pdfrwt>
<pdfrwt beam="2">  1       -1 0.15586818E+00 0.15579325E+04</pdfrwt>
<totfact> 0.10390066E+01</totfact>
</mgrwt>
</event>
<event>
 6    1  0.1568961E-005  0.1235737E+04  0.7818608E-02  0.9082138E-01
         -2   -1    0    0    0  501 -0.00000000000E+00  0.00000000000E+00  0.22770394969E+03  0.22770394969E+03  0.00000000000E+00 0.  1.
          2   -1    0    0  501    0  0.00000000000E+00 -0.00000000000E+00 -0.16765701636E+04  0.16765701636E+04  0.00000000000E+00 0. -1.
         23    2    1    2    0    0  0.38022388425E+03 -0.16349773181E+03 -0.29053183857E+02  0.42536547827E+03  0.93754957994E+02 0.  0.
         11    1    3    3    0    0  0.12206597277E+03 -0.70927013645E+01 -0.16496358941E+01  0.12228298908E+03  0.00000000000E+00 0.  1.
        -11    1    3    3    0    0  0.25815791148E+03 -0.15640503045E+03 -0.27403547962E+02  0.30308248919E+03  0.00000000000E+00 0. -1.
         22    1    1    2    0    0 -0.38022388425E+03  0.16349773181E+03 -0.14198130300E+04  0.14789086350E+04  0.00000000000E+00 0. -1.
<mgrwt>
<rscale>  0 0.12357373E+04</rscale>
<asrwt>0</asrwt>
<pdfrwt beam="1">  1        2 0.25793387E+00 0.12357373E+04</pdfrwt>
<pdfrwt beam="2">  1       -2 0.35031378E-01 0.12357373E+04</pdfrwt>
<totfact> 0.76067803E+01</totfact>
</mgrwt>
</event>
<event>
 6    1  0.1568961E-005  0.1626665E+04  0.7818608E-02  0.8804332E-01
         -2   -1    0    0    0  501 -0.00000000000E+00  0.00000000000E+00  0.21202440080E+03  0.21202440080E+03  0.00000000000E+00 0.  1.
          2   -1    0    0  501    0  0.00000000000E+00 -0.00000000000E+00 -0.31199712641E+04  0.31199712641E+04  0.00000000000E+00 0. -1.
         23    2    1    2    0    0  0.38517292222E+03  0.67885575945E+03 -0.19072214256E+04  0.20628799397E+04  0.93684349919E+02 0.  0.
         13    1    3    3    0    0  0.46010814223E+02  0.15080832093E+03 -0.34554199746E+03  0.37981497693E+03  0.00000000000E+00 0. -1.
        -13    1    3    3    0    0  0.33916210800E+03  0.52804743852E+03 -0.15616794281E+04  0.16830649628E+04  0.00000000000E+00 0.  1.
         22    1    1    2    0    0 -0.38517292222E+03 -0.67885575945E+03 -0.10007254377E+04  0.12691157252E+04  0.00000000000E+00 0.  1.
<mgrwt>
<rscale>  0 0.16266653E+04</rscale>
<asrwt>0</asrwt>
<pdfrwt beam="1">  1        2 0.47999556E+00 0.16266653E+04</pdfrwt>
<pdfrwt beam="2">  1       -2 0.32619140E-01 0.16266653E+04</pdfrwt>
<totfact> 0.12333963E+01</totfact>
</mgrwt>
</event>
<event>
 6    1  0.1568961E-005  0.1393763E+04  0.7818608E-02  0.8958346E-01
         -2   -1    0    0    0  501 -0.00000000000E+00  0.00000000000E+00  0.48593654704E+03  0.48593654704E+03  0.00000000000E+00 0.  1.
          2   -1    0    0  501    0  0.00000000000E+00 -0.00000000000E+00 -0.99939697678E+03  0.99939697678E+03  0.00000000000E+00 0. -1.
         23    2    1    2    0    0 -0.46774394759E+03 -0.51232768586E+03 -0.27230062200E+03  0.75087990984E+03  0.91700338369E+02 0.  0.
         11    1    3    3    0    0 -0.18945001044E+03 -0.27512370252E+03 -0.13473089480E+03  0.36018991124E+03  0.00000000000E+00 0. -1.
        -11    1    3    3    0    0 -0.27829393715E+03 -0.23720398334E+03 -0.13756972720E+03  0.39068999861E+03  0.00000000000E+00 0.  1.
         22    1    1    2    0    0  0.46774394759E+03  0.51232768586E+03 -0.24115980775E+03  0.73445361398E+03  0.00000000000E+00 0. -1.
<mgrwt>
<rscale>  0 0.13937626E+04</rscale>
<asrwt>0</asrwt>
<pdfrwt beam="1">  1        2 0.15375338E+00 0.13937626E+04</pdfrwt>
<pdfrwt beam="2">  1       -2 0.74759470E-01 0.13937626E+04</pdfrwt>
<totfact> 0.39490511E+01</totfact>
</mgrwt>
</event>
<event>
 6    1  0.1568961E-005  0.1074100E+04  0.7818608E-02  0.9230810E-01
          1   -1    0    0  501    0  0.00000000000E+00  0.00000000000E+00  0.41178145665E+03  0.41178145665E+03  0.00000000000E+00 0. -1.
         -1   -1    0    0    0  501 -0.00000000000E+00 -0.00000000000E+00 -0.70042611376E+03  0.70042611376E+03  0.00000000000E+00 0.  1.
         23    2    1    2    0    0 -0.59741797320E+02  0.44809917445E+03 -0.43820234687E+03  0.63604640540E+03  0.90397901096E+02 0.  0.
         11    1    3    3    0    0 -0.17108211122E+02  0.91053723023E+01 -0.25357929065E+02  0.31915877851E+02  0.00000000000E+00 0.  1.
        -11    1    3    3    0    0 -0.42633586198E+02  0.43899380215E+03 -0.41284441781E+03  0.60413052755E+03  0.00000000000E+00 0. -1.
         22    1    1    2    0    0  0.59741797320E+02 -0.44809917445E+03  0.14955768976E+03  0.47616116501E+03  0.00000000000E+00 0. -1.
<mgrwt>
<rscale>  0 0.10740996E+04</rscale>
<asrwt>0</asrwt>
<pdfrwt beam="1">  1        1 0.63350993E-01 0.10740996E+04</pdfrwt>
<pdfrwt beam="2">  1       -1 0.10775786E+00 0.10740996E+04</pdfrwt>
<totfact> 0.46176518E+01</totfact>
</mgrwt>
</event>
<event>
 6    1  0.1568961E-005  0.4810680E+04  0.7818608E-02  0.7858394E-01
         -2   -1    0    0    0  501 -0.00000000000E+00  0.00000000000E+00  0.17866087852E+04  0.17866087852E+04  0.00000000000E+00 0.  1.
          2   -1    0    0  501    0  0.00000000000E+00 -0.00000000000E+00 -0.32383475527E+04  0.32383475527E+04  0.00000000000E+00 0. -1.
         23    2    1    2    0    0 -0.74071717438E+02  0.20475267831E+04  0.58830087709E+03  0.21336565786E+04  0.92411723012E+02 0.  0.
         11    1    3    3    0    0 -0.71361299299E+02  0.85746046810E+03  0.22470602899E+03  0.88928268220E+03  0.00000000000E+00 0. -1.
        -11    1    3    3    0    0 -0.27104181390E+01  0.11900663150E+04  0.36359484810E+03  0.12443738964E+04  0.00000000000E+00 0.  1.
         22    1    1    2    0    0  0.74071717438E+02 -0.20475267831E+04 -0.20400396446E+04  0.28912997593E+04  0.00000000000E+00 0. -1.
<mgrwt>
<rscale>  0 0.48106799E+04</rscale>
<asrwt>0</asrwt>
<pdfrwt beam="1">  1        2 0.49820731E+00 0.48106799E+04</pdfrwt>
<pdfrwt beam="2">  1       -2 0.27486289E+00 0.48106799E+04</pdfrwt>
<totfact> 0.40894484E-02</totfact>
</mgrwt>
</event>
<event>
 6    1  0.1568961E-005  0.2318573E+04  0.7818608E-02  0.8470634E-01
         -1   -1    0    0    0  501 -0.00000000000E+00  0.00000000000E+00  0.11296442582E+04  0.11296442582E+04  0.00000000000E+00 0.  1.
          1   -1    0    0  501    0  0.00000000000E+00 -0.00000000000E+00 -0.11897067868E+04  0.11897067868E+04  0.00000000000E+00 0. -1.
         23    2    1    2    0    0  0.22149211397E+02  0.37587729892E+03 -0.11249866968E+04  0.11898211359E+04  0.91131421309E+02 0.  0.
         11    1    3    3    0    0 -0.30632533363E+02  0.12542427404E+03 -0.31780030710E+03  0.34302570722E+03  0.00000000000E+00 0. -1.
        -11    1    3    3    0    0  0.52781744760E+02  0.25045302488E+03 -0.80718638975E+03  0.84679542869E+03  0.00000000000E+00 0.  1.
         22    1    1    2    0    0 -0.22149211397E+02 -0.37587729892E+03  0.10649241683E+04  0.11295299091E+04  0.00000000000E+00 0.  1.
<mgrwt>
<rscale>  0 0.23185732E+04</rscale>
<asrwt>0</asrwt>
<pdfrwt beam="1">  1        1 0.18303181E+00 0.23185732E+04</pdfrwt>
<pdfrwt beam="2">  1       -1 0.17379142E+00 0.23185732E+04</pdfrwt>
<totfact> 0.22650403E+00</totfact>
</mgrwt>
</event>
<event>
 6    1  0.1568961E-005  0.3326670E+04  0.7818608E-02  0.8156142E-01
          2   -1    0    0  501    0  0.00000000000E+00  0.00000000000E+00  0.14827204140E+04  0.14827204140E+04  0.00000000000E+00 0. -1.
         -2   -1    0    0    0  501 -0.00000000000E+00 -0.00000000000E+00 -0.18659502543E+04  0.18659502543E+04  0.00000000000E+00 0.  1.
         23    2    1    2    0    0  0.53683001514E+03  0.13091692582E+04 -0.10695518648E+04  0.17760459409E+04  0.91035053321E+02 0.  0.
         13    1    3    3    0    0  0.18304035920E+03  0.42888402052E+03 -0.30022973418E+03  0.55460181161E+03  0.00000000000E+00 0. -1.
        -13    1    3    3    0    0  0.35378965593E+03  0.88028523765E+03 -0.76932213063E+03  0.12214441293E+04  0.00000000000E+00 0.  1.
         22    1    1    2    0    0 -0.53683001514E+03 -0.13091692582E+04  0.68632202450E+03  0.15726247273E+04  0.00000000000E+00 0. -1.
<mgrwt>
<rscale>  0 0.33266695E+04</rscale>
<asrwt>0</asrwt>
<pdfrwt beam="1">  1        2 0.22811083E+00 0.33266695E+04</pdfrwt>
<pdfrwt beam="2">  1       -2 0.28706927E+00 0.33266695E+04</pdfrwt>
<totfact> 0.41253331E-01</totfact>
</mgrwt>
</event>
<event>
 6    1  0.1568961E-005  0.1118108E+04  0.7818608E-02  0.9187720E-01
          2   -1    0    0  501    0  0.00000000000E+00  0.00000000000E+00  0.54117375712E+03  0.54117375712E+03  0.00000000000E+00 0. -1.
         -2   -1    0    0    0  501 -0.00000000000E+00 -0.00000000000E+00 -0.57752518210E+03  0.57752518210E+03  0.00000000000E+00 0.  1.
         23    2    1    2    0    0 -0.10447176078E+03 -0.30095598033E+03  0.43675324893E+03  0.54833336928E+03  0.91799959264E+02 0.  0.
         11    1    3    3    0    0 -0.42543593667E+02 -0.24256147669E+03  0.33177704710E+03  0.41318523245E+03  0.00000000000E+00 0. -1.
        -11    1    3    3    0    0 -0.61928167115E+02 -0.58394503643E+02  0.10497620183E+03  0.13514813683E+03  0.00000000000E+00 0.  1.
         22    1    1    2    0    0  0.10447176078E+03  0.30095598033E+03 -0.47310467391E+03  0.57036556994E+03  0.00000000000E+00 0.  1.
<mgrwt>
<rscale>  0 0.11181082E+04</rscale>
<asrwt>0</asrwt>
<pdfrwt beam="1">  1        2 0.83257501E-01 0.11181082E+04</pdfrwt>
<pdfrwt beam="2">  1       -2 0.88850028E-01 0.11181082E+04</pdfrwt>
<totfact> 0.60619453E+01</totfact>
</mgrwt>
</event>
<event>
 6    1  0.1568961E-005  0.2430783E+04  0.7818608E-02  0.8428068E-01
         -2   -1    0    0    0  501 -0.00000000000E+00  0.00000000000E+00  0.32207298816E+03  0.32207298816E+03  0.00000000000E+00 0.  1.
          2   -1    0    0  501    0  0.00000000000E+00 -0.00000000000E+00 -0.45864640029E+04  0.45864640029E+04  0.00000000000E+00 0. -1.
         23    2    1    2    0    0  0.17049708317E+03 -0.11985056086E+04 -0.23098367366E+04  0.26094573110E+04  0.91851831564E+02 0.  0.
         11    1    3    3    0    0  0.15187704937E+03 -0.90586481102E+03 -0.18175760262E+04  0.20364774256E+04  0.00000000000E+00 0. -1.
        -11    1    3    3    0    0  0.18620033801E+02 -0.29264079755E+03 -0.49226071039E+03  0.57297988537E+03  0.00000000000E+00 0.  1.
         22    1    1    2    0    0 -0.17049708317E+03  0.11985056086E+04 -0.19545542782E+04  0.22990796801E+04  0.00000000000E+00 0. -1.
<mgrwt>
<rscale>  0 0.24307827E+04</rscale>
<asrwt>0</asrwt>
<pdfrwt beam="1">  1        2 0.70560990E+00 0.24307827E+04</pdfrwt>
<pdfrwt beam="2">  1       -2 0.49549687E-01 0.24307827E+04</pdfrwt>
<totfact> 0.35154157E-01</totfact>
</mgrwt>
</event>
<event>
 6    1  0.1568961E-005  0.4725728E+04  0.7818608E-02  0.7872268E-01
          1   -1    0    0  501    0  0.00000000000E+00  0.00000000000E+00  0.23392509458E+04  0.23392509458E+04  0.00000000000E+00 0. -1.
         -1   -1    0    0    0  501 -0.00000000000E+00 -0.00000000000E+00 -0.23867154937E+04  0.23867154937E+04  0.00000000000E+00 0.  1.
         23    2    1    2    0    0  0.66699641394E+03  0.24692316135E+03  0.22287199889E+04  0.23412502489E+04  0.91677017525E+02 0.  0.
         13    1    3    3    0    0  0.19981858789E+03  0.44426492966E+02  0.54263829477E+03  0.57996336116E+03  0.00000000000E+00 0. -1.
        -13    1    3    3    0    0  0.46717782605E+03  0.20249666838E+03  0.16860816941E+04  0.17612868878E+04  0.00000000000E+00 0.  1.
         22    1    1    2    0    0 -0.66699641394E+03 -0.24692316135E+03 -0.22761845368E+04  0.23847161905E+04  0.00000000000E+00 0.  1.
<mgrwt>
<rscale>  0 0.47257281E+04</rscale>
<asrwt>0</asrwt>
<pdfrwt beam="1">  1        1 0.35988476E+00 0.47257281E+04</pdfrwt>
<pdfrwt beam="2">  1       -1 0.36718700E+00 0.47257281E+04</pdfrwt>
<totfact> 0.15402316E-02</totfact>
</mgrwt>
</event>
<event>
 6    1  0.1568961E-005  0.3584044E+04  0.7818608E-02  0.8094156E-01
          2   -1    0    0  501    0  0.00000000000E+00  0.00000000000E+00  0.39657635918E+04  0.39657635918E+04  0.00000000000E+00 0. -1.
         -2   -1    0    0    0  501 -0.00000000000E+00 -0.00000000000E+00 -0.80976665307E+03  0.80976665307E+03  0.00000000000E+00 0.  1.
         23    2    1    2    0    0  0.35212968938E+03  0.10017166362E+04  0.35006169791E+04  0.36591994204E+04  0.89384712832E+02 0.  0.
         13    1    3    3    0    0  0.27989480387E+03  0.69510734294E+03  0.23831951765E+04  0.24982262845E+04  0.00000000000E+00 0. -1.
        -13    1    3    3    0    0  0.72234885510E+02  0.30660929328E+03  0.11174218026E+04  0.11609731359E+04  0.00000000000E+00 0.  1.
         22    1    1    2    0    0 -0.35212968938E+03 -0.10017166362E+04 -0.34462004034E+03  0.11163308245E+04  0.00000000000E+00 0.  1.
<mgrwt>
<rscale>  0 0.35840441E+04</rscale>
<asrwt>0</asrwt>
<pdfrwt beam="1">  1        2 0.61011746E+00 0.35840441E+04</pdfrwt>
<pdfrwt beam="2">  1       -2 0.12457949E+00 0.35840441E+04</pdfrwt>
<totfact> 0.14346378E-01</totfact>
</mgrwt>
</event>
<event>
 6    1  0.1568961E-005  0.2378043E+04  0.7818608E-02  0.8447770E-01
         -2   -1    0    0    0  501 -0.00000000000E+00  0.00000000000E+00  0.69172195205E+03  0.69172195205E+03  0.00000000000E+00 0. -1.
          2   -1    0    0  501    0  0.00000000000E+00 -0.00000000000E+00 -0.20438444132E+04  0.20438444132E+04  0.00000000000E+00 0.  1.
         23    2    1    2    0    0  0.10200080272E+04  0.28537374823E+03 -0.60218666007E+02  0.10649766587E+04  0.93244003679E+02 0.  0.
         13    1    3    3    0    0  0.54067038449E+03  0.17761621353E+03 -0.71330948257E+02  0.57355042337E+03  0.00000000000E+00 0. -1.
        -13    1    3    3    0    0  0.47933764267E+03  0.10775753471E+03  0.11112282250E+02  0.49142623535E+03  0.00000000000E+00 0.  1.
         22    1    1    2    0    0 -0.10200080272E+04 -0.28537374823E+03 -0.12919037951E+04  0.16705897065E+04  0.00000000000E+00 0.  1.
<mgrwt>
<rscale>  0 0.23780429E+04</rscale>
<asrwt>0</asrwt>
<pdfrwt beam="1">  1        2 0.31443759E+00 0.23780429E+04</pdfrwt>
<pdfrwt beam="2">  1       -2 0.10641876E+00 0.23780429E+04</pdfrwt>
<totfact> 0.40491813E+00</totfact>
</mgrwt>
</event>
<event>
 6    1  0.1568961E-005  0.3068013E+04  0.7818608E-02  0.8224572E-01
         -1   -1    0    0    0  501 -0.00000000000E+00  0.00000000000E+00  0.86936733463E+03  0.86936733463E+03  0.00000000000E+00 0.  1.
          1   -1    0    0  501    0  0.00000000000E+00 -0.00000000000E+00 -0.27067674216E+04  0.27067674216E+04  0.00000000000E+00 0. -1.
         23    2    1    2    0    0 -0.80354473954E+03  0.13049769851E+04 -0.93902273033E+03  0.17996970413E+04  0.92177394906E+02 0.  0.
         11    1    3    3    0    0 -0.62161126617E+03  0.10719147707E+04 -0.73942725325E+03  0.14429672570E+04  0.00000000000E+00 0. -1.
        -11    1    3    3    0    0 -0.18193347337E+03  0.23306221439E+03 -0.19959547708E+03  0.35672978426E+03  0.00000000000E+00 0.  1.
         22    1    1    2    0    0  0.80354473954E+03 -0.13049769851E+04 -0.89837735660E+03  0.17764377149E+04  0.00000000000E+00 0.  1.
<mgrwt>
<rscale>  0 0.30680125E+04</rscale>
<asrwt>0</asrwt>
<pdfrwt beam="1">  1        1 0.41642576E+00 0.30680125E+04</pdfrwt>
<pdfrwt beam="2">  1       -1 0.13374882E+00 0.30680125E+04</pdfrwt>
<totfact> 0.38723825E-01</totfact>
</mgrwt>
</event>
<event>
 6    1  0.1568961E-005  0.3663560E+04  0.7818608E-02  0.8076086E-01
          2   -1    0    0  501    0  0.00000000000E+00  0.00000000000E+00  0.34837207342E+04  0.34837207342E+04  0.00000000000E+00 0. -1.
         -2   -1    0    0    0  501 -0.00000000000E+00 -0.00000000000E+00 -0.96317099331E+03  0.96317099331E+03  0.00000000000E+00 0.  1.
         23    2    1    2    0    0  0.62089433102E+03 -0.34690133608E+03  0.33085580817E+04  0.33853798564E+04  0.91596315790E+02 0.  0.
         13    1    3    3    0    0  0.34335086756E+03 -0.15056371279E+03  0.18676963556E+04  0.19049537860E+04  0.00000000000E+00 0. -1.
        -13    1    3    3    0    0  0.27754346346E+03 -0.19633762330E+03  0.14408617261E+04  0.14804260704E+04  0.00000000000E+00 0.  1.
         22    1    1    2    0    0 -0.62089433102E+03  0.34690133608E+03 -0.78800834080E+03  0.10615118711E+04  0.00000000000E+00 0.  1.
<mgrwt>
<rscale>  0 0.36635604E+04</rscale>
<asrwt>0</asrwt>
<pdfrwt beam="1">  1        2 0.53595703E+00 0.36635604E+04</pdfrwt>
<pdfrwt beam="2">  1       -2 0.14818015E+00 0.36635604E+04</pdfrwt>
<totfact> 0.20905670E-01</totfact>
</mgrwt>
</event>
<event>
 6    1  0.1568961E-005  0.4809013E+04  0.7818608E-02  0.7858664E-01
         -1   -1    0    0    0  501 -0.00000000000E+00  0.00000000000E+00  0.29081034738E+04  0.29081034738E+04  0.00000000000E+00 0.  1.
          1   -1    0    0  501    0  0.00000000000E+00 -0.00000000000E+00 -0.19881175921E+04  0.19881175921E+04  0.00000000000E+00 0. -1.
         23    2    1    2    0    0  0.37184169751E+03  0.49905732890E+03  0.28239791294E+04  0.28930948211E+04  0.88402800527E+02 0.  0.
         11    1    3    3    0    0  0.74813049618E+02  0.98337676014E+02  0.74058796289E+03  0.75082476098E+03  0.00000000000E+00 0. -1.
        -11    1    3    3    0    0  0.29702864789E+03  0.40071965289E+03  0.20833911665E+04  0.21422700601E+04  0.00000000000E+00 0.  1.
         22    1    1    2    0    0 -0.37184169751E+03 -0.49905732890E+03 -0.19039932476E+04  0.20031262448E+04  0.00000000000E+00 0. -1.
<mgrwt>
<rscale>  0 0.48090131E+04</rscale>
<asrwt>0</asrwt>
<pdfrwt beam="1">  1        1 0.30586424E+00 0.48090131E+04</pdfrwt>
<pdfrwt beam="2">  1       -1 0.44740054E+00 0.48090131E+04</pdfrwt>
<totfact> 0.75160271E-03</totfact>
</mgrwt>
</event>
<event>
 6    1  0.1568961E-005  0.4774573E+04  0.7818608E-02  0.7864255E-01
         -2   -1    0    0    0  501 -0.00000000000E+00  0.00000000000E+00  0.13708200299E+04  0.13708200299E+04  0.00000000000E+00 0. -1.
          2   -1    0    0  501    0  0.00000000000E+00 -0.00000000000E+00 -0.41574657593E+04  0.41574657593E+04  0.00000000000E+00 0.  1.
         23    2    1    2    0    0  0.50384473229E+03  0.15328025893E+04 -0.34296932434E+04  0.37913766387E+04  0.91639402889E+02 0.  0.
         11    1    3    3    0    0  0.21778878769E+03  0.54868761482E+03 -0.11927294889E+04  0.13308244394E+04  0.00000000000E+00 0. -1.
        -11    1    3    3    0    0  0.28605594461E+03  0.98411497452E+03 -0.22369637545E+04  0.24605521993E+04  0.00000000000E+00 0.  1.
         22    1    1    2    0    0 -0.50384473229E+03 -0.15328025893E+04  0.64304751402E+03  0.17369091506E+04  0.00000000000E+00 0. -1.
<mgrwt>
<rscale>  0 0.47745732E+04</rscale>
<asrwt>0</asrwt>
<pdfrwt beam="1">  1        2 0.63961012E+00 0.47745732E+04</pdfrwt>
<pdfrwt beam="2">  1       -2 0.21089539E+00 0.47745732E+04</pdfrwt>
<totfact> 0.21069186E-02</totfact>
</mgrwt>
</event>
<event>
 6    1  0.1568961E-005  0.4070001E+04  0.7818608E-02  0.7990572E-01
         -1   -1    0    0    0  501 -0.00000000000E+00  0.00000000000E+00  0.11625164222E+04  0.11625164222E+04  0.00000000000E+00 0.  1.
          1   -1    0    0  501    0  0.00000000000E+00 -0.00000000000E+00 -0.35622951402E+04  0.35622951402E+04  0.00000000000E+00 0. -1.
         23    2    1    2    0    0  0.66958411082E+03 -0.36423045823E+03  0.98861004097E+03  0.12517459007E+04  0.92256591822E+02 0.  0.
         13    1    3    3    0    0  0.31864391476E+03 -0.14872915825E+03  0.38960427608E+03  0.52482930450E+03  0.00000000000E+00 0.  1.
        -13    1    3    3    0    0  0.35094019607E+03 -0.21550129998E+03  0.59900576489E+03  0.72691659623E+03  0.00000000000E+00 0. -1.
         22    1    1    2    0    0 -0.66958411082E+03  0.36423045823E+03 -0.33883887589E+04  0.34730656616E+04  0.00000000000E+00 0. -1.
<mgrwt>
<rscale>  0 0.40700008E+04</rscale>
<asrwt>0</asrwt>
<pdfrwt beam="1">  1        1 0.54804540E+00 0.40700008E+04</pdfrwt>
<pdfrwt beam="2">  1       -1 0.17884868E+00 0.40700008E+04</pdfrwt>
<totfact> 0.36747782E-02</totfact>
</mgrwt>
</event>
<event>
 6    1  0.1568961E-005  0.2103793E+04  0.7818608E-02  0.8559574E-01
         -2   -1    0    0    0  501 -0.00000000000E+00  0.00000000000E+00  0.55808630290E+03  0.55808630290E+03  0.00000000000E+00 0.  1.
          2   -1    0    0  501    0  0.00000000000E+00 -0.00000000000E+00 -0.19826431950E+04  0.19826431950E+04  0.00000000000E+00 0. -1.
         23    2    1    2    0    0 -0.10446682921E+04 -0.94055563998E+02 -0.75797373582E+03  0.12979457702E+04  0.99803549604E+02 0.  0.
         11    1    3    3    0    0 -0.47695851826E+03 -0.59950662396E+02 -0.40504551027E+03  0.62860589836E+03  0.00000000000E+00 0. -1.
        -11    1    3    3    0    0 -0.56770977384E+03 -0.34104901603E+02 -0.35292822555E+03  0.66933987183E+03  0.00000000000E+00 0.  1.
         22    1    1    2    0    0  0.10446682921E+04  0.94055563998E+02 -0.66658315626E+03  0.12427837277E+04  0.00000000000E+00 0. -1.
<mgrwt>
<rscale>  0 0.21037928E+04</rscale>
<asrwt>0</asrwt>
<pdfrwt beam="1">  1        2 0.30502203E+00 0.21037928E+04</pdfrwt>
<pdfrwt beam="2">  1       -2 0.85859431E-01 0.21037928E+04</pdfrwt>
<totfact> 0.74104289E+00</totfact>
</mgrwt>
</event>
<event>
 6    1  0.1568961E-005  0.2989451E+04  0.7818608E-02  0.8246750E-01
         -2   -1    0    0    0  501 -0.00000000000E+00  0.00000000000E+00  0.69693514059E+03  0.69693514059E+03  0.00000000000E+00 0.  1.
          2   -1    0    0  501    0  0.00000000000E+00 -0.00000000000E+00 -0.32057571392E+04  0.32057571392E+04  0.00000000000E+00 0. -1.
         23    2    1    2    0    0  0.33669877928E+03 -0.65181159655E+03  0.44245204371E+03  0.86159989411E+03  0.91466612400E+02 0.  0.
         11    1    3    3    0    0  0.14623563103E+03 -0.20463147770E+03  0.12309644415E+03  0.28002077782E+03  0.00000000000E+00 0. -1.
        -11    1    3    3    0    0  0.19046314825E+03 -0.44718011886E+03  0.31935559955E+03  0.58157911629E+03  0.00000000000E+00 0.  1.
         22    1    1    2    0    0 -0.33669877928E+03  0.65181159655E+03 -0.29512740424E+04  0.30410923857E+04  0.00000000000E+00 0. -1.
<mgrwt>
<rscale>  0 0.29894513E+04</rscale>
<asrwt>0</asrwt>
<pdfrwt beam="1">  1        2 0.49319342E+00 0.29894513E+04</pdfrwt>
<pdfrwt beam="2">  1       -2 0.10722079E+00 0.29894513E+04</pdfrwt>
<totfact> 0.76930877E-01</totfact>
</mgrwt>
</event>
<event>
 6    1  0.1568961E-005  0.1345205E+04  0.7818608E-02  0.8994466E-01
          2   -1    0    0  501    0  0.00000000000E+00  0.00000000000E+00  0.17130769851E+04  0.17130769851E+04  0.00000000000E+00 0. -1.
         -2   -1    0    0    0  501 -0.00000000000E+00 -0.00000000000E+00 -0.26408273579E+03  0.26408273579E+03  0.00000000000E+00 0.  1.
         23    2    1    2    0    0 -0.31591331615E+03  0.52038112612E+03  0.11373099637E+04  0.12932409877E+04  0.91654563098E+02 0.  0.
         11    1    3    3    0    0 -0.14579102985E+03  0.19723029787E+03  0.54080933543E+03  0.59382619686E+03  0.00000000000E+00 0. -1.
        -11    1    3    3    0    0 -0.17012228631E+03  0.32315082825E+03  0.59650062824E+03  0.69941479080E+03  0.00000000000E+00 0.  1.
         22    1    1    2    0    0  0.31591331615E+03 -0.52038112612E+03  0.31168428561E+03  0.68391873321E+03  0.00000000000E+00 0.  1.
<mgrwt>
<rscale>  0 0.13452049E+04</rscale>
<asrwt>0</asrwt>
<pdfrwt beam="1">  1        2 0.26355030E+00 0.13452049E+04</pdfrwt>
<pdfrwt beam="2">  1       -2 0.40628114E-01 0.13452049E+04</pdfrwt>
<totfact> 0.54045472E+01</totfact>
</mgrwt>
</event>
<event>
 6    1  0.1568961E-005  0.2358205E+04  0.7818608E-02  0.8455319E-01
         -2   -1    0    0    0  501 -0.00000000000E+00  0.00000000000E+00  0.16744838508E+04  0.16744838508E+04  0.00000000000E+00 0.  1.
          2   -1    0    0  501    0  0.00000000000E+00 -0.00000000000E+00 -0.83027553890E+03  0.83027553890E+03  0.00000000000E+00 0. -1.
         23    2    1    2    0    0 -0.26016243899E+03  0.10283024943E+04 -0.11996901002E+03  0.10713269977E+04  0.90876058568E+02 0.  0.
         13    1    3    3    0    0 -0.90077000263E+02  0.47556899019E+03 -0.19986474864E+02  0.48443698206E+03  0.00000000000E+00 0.  1.
        -13    1    3    3    0    0 -0.17008543873E+03  0.55273350414E+03 -0.99982535159E+02  0.58689001560E+03  0.00000000000E+00 0. -1.
         22    1    1    2    0    0  0.26016243899E+03 -0.10283024943E+04  0.96417732196E+03  0.14334323921E+04  0.00000000000E+00 0.  1.
<mgrwt>
<rscale>  0 0.23582052E+04</rscale>
<asrwt>0</asrwt>
<pdfrwt beam="1">  1        2 0.12773470E+00 0.23582052E+04</pdfrwt>
<pdfrwt beam="2">  1       -2 0.25761290E+00 0.23582052E+04</pdfrwt>
<totfact> 0.17059728E+00</totfact>
</mgrwt>
</event>
<event>
 6    1  0.1568961E-005  0.1802211E+04  0.7818608E-02  0.8705125E-01
          2   -1    0    0  501    0  0.00000000000E+00  0.00000000000E+00  0.66871786088E+03  0.66871786088E+03  0.00000000000E+00 0. -1.
         -2   -1    0    0    0  501 -0.00000000000E+00 -0.00000000000E+00 -0.12142502765E+04  0.12142502765E+04  0.00000000000E+00 0.  1.
         23    2    1    2    0    0 -0.39019324344E+03  0.79908475777E+03 -0.41058944779E+03  0.98352563126E+03  0.89172615666E+02 0.  0.
         13    1    3    3    0    0 -0.21474493013E+03  0.40012708323E+03 -0.25464092797E+03  0.52063333542E+03  0.00000000000E+00 0.  1.
        -13    1    3    3    0    0 -0.17544831331E+03  0.39895767453E+03 -0.15594851982E+03  0.46289229584E+03  0.00000000000E+00 0. -1.
         22    1    1    2    0    0  0.39019324344E+03 -0.79908475777E+03 -0.13494296787E+03  0.89944250617E+03  0.00000000000E+00 0.  1.
<mgrwt>
<rscale>  0 0.18022107E+04</rscale>
<asrwt>0</asrwt>
<pdfrwt beam="1">  1        2 0.10287967E+00 0.18022107E+04</pdfrwt>
<pdfrwt beam="2">  1       -2 0.18680774E+00 0.18022107E+04</pdfrwt>
<totfact> 0.66674339E+00</totfact>
</mgrwt>
</event>
<event>
 6    1  0.1568961E-005  0.9275355E+03  0.7818608E-02  0.9391800E-01
          2   -1    0    0  501    0  0.00000000000E+00  0.00000000000E+00  0.10249794547E+04  0.10249794547E+04  0.00000000000E+00 0. -1.
         -2   -1    0    0    0  501 -0.00000000000E+00 -0.00000000000E+00 -0.20983888584E+03  0.20983888584E+03  0.00000000000E+00 0.  1.
         23    2    1    2    0    0 -0.44138362303E+03 -0.54045333442E+02  0.25865380579E+03  0.52248561054E+03  0.91372978627E+02 0.  0.
         11    1    3    3    0    0 -0.19471122722E+03 -0.69586279555E+02  0.12114978232E+03  0.23964970700E+03  0.00000000000E+00 0.  1.
        -11    1    3    3    0    0 -0.24667239582E+03  0.15540946113E+02  0.13750402347E+03  0.28283590354E+03  0.00000000000E+00 0. -1.
         22    1    1    2    0    0  0.44138362303E+03  0.54045333442E+02  0.55648676302E+03  0.71233272995E+03  0.00000000000E+00 0. -1.
<mgrwt>
<rscale>  0 0.92753554E+03</rscale>
<asrwt>0</asrwt>
<pdfrwt beam="1">  1        2 0.15768914E+00 0.92753554E+03</pdfrwt>
<pdfrwt beam="2">  1       -2 0.32282906E-01 0.92753554E+03</pdfrwt>
<totfact> 0.21694981E+02</totfact>
</mgrwt>
</event>
<event>
 6    1  0.1568961E-005  0.4115483E+04  0.7818608E-02  0.7981647E-01
         -2   -1    0    0    0  501 -0.00000000000E+00  0.00000000000E+00  0.17089141901E+04  0.17089141901E+04  0.00000000000E+00 0.  1.
          2   -1    0    0  501    0  0.00000000000E+00 -0.00000000000E+00 -0.24777720998E+04  0.24777720998E+04  0.00000000000E+00 0. -1.
         23    2    1    2    0    0  0.62758808290E+03 -0.19536550523E+04 -0.24307027190E+03  0.20684116370E+04  0.92782962442E+02 0.  0.
         13    1    3    3    0    0  0.33098294411E+03 -0.11411802882E+04 -0.17168358773E+03  0.12005487969E+04  0.00000000000E+00 0.  1.
        -13    1    3    3    0    0  0.29660513879E+03 -0.81247476409E+03 -0.71386684160E+02  0.86786284016E+03  0.00000000000E+00 0. -1.
         22    1    1    2    0    0 -0.62758808290E+03  0.19536550523E+04 -0.52578763775E+03  0.21182746529E+04  0.00000000000E+00 0. -1.
<mgrwt>
<rscale>  0 0.41154829E+04</rscale>
<asrwt>0</asrwt>
<pdfrwt beam="1">  1        2 0.38119571E+00 0.41154829E+04</pdfrwt>
<pdfrwt beam="2">  1       -2 0.26290988E+00 0.41154829E+04</pdfrwt>
<totfact> 0.15009039E-01</totfact>
</mgrwt>
</event>
<event>
 6    1  0.1568961E-005  0.2057485E+04  0.7818608E-02  0.8580206E-01
         -1   -1    0    0    0  501 -0.00000000000E+00  0.00000000000E+00  0.98150468576E+03  0.98150468576E+03  0.00000000000E+00 0.  1.
          1   -1    0    0  501    0  0.00000000000E+00 -0.00000000000E+00 -0.10782538178E+04  0.10782538178E+04  0.00000000000E+00 0. -1.
         23    2    1    2    0    0 -0.21347993693E+03 -0.22421182290E+03  0.93165953099E+03  0.98576176092E+03  0.88837731870E+02 0.  0.
         13    1    3    3    0    0 -0.15478987555E+03 -0.12686808212E+03  0.69461658178E+03  0.72287454756E+03  0.00000000000E+00 0. -1.
        -13    1    3    3    0    0 -0.58690061388E+02 -0.97343740784E+02  0.23704294921E+03  0.26288721335E+03  0.00000000000E+00 0.  1.
         22    1    1    2    0    0  0.21347993693E+03  0.22421182290E+03 -0.10284086631E+04  0.10739967427E+04  0.00000000000E+00 0. -1.
<mgrwt>
<rscale>  0 0.20574850E+04</rscale>
<asrwt>0</asrwt>
<pdfrwt beam="1">  1        1 0.16588520E+00 0.20574850E+04</pdfrwt>
<pdfrwt beam="2">  1       -1 0.15100072E+00 0.20574850E+04</pdfrwt>
<totfact> 0.41657917E+00</totfact>
</mgrwt>
</event>
<event>
 6    1  0.1568961E-005  0.1918845E+04  0.7818608E-02  0.8645533E-01
         -1   -1    0    0    0  501 -0.00000000000E+00  0.00000000000E+00  0.31345977148E+03  0.31345977148E+03  0.00000000000E+00 0.  1.
          1   -1    0    0  501    0  0.00000000000E+00 -0.00000000000E+00 -0.29365535145E+04  0.29365535145E+04  0.00000000000E+00 0. -1.
         23    2    1    2    0    0 -0.85269999515E+03  0.28085168415E+03 -0.18771790446E+04  0.20828099243E+04  0.91219872317E+02 0.  0.
         13    1    3    3    0    0 -0.69156010134E+03  0.26158542991E+03 -0.15064669339E+04  0.16781313816E+04  0.00000000000E+00 0.  1.
        -13    1    3    3    0    0 -0.16113989381E+03  0.19266254244E+02 -0.37071211063E+03  0.40467854266E+03  0.00000000000E+00 0. -1.
         22    1    1    2    0    0  0.85269999515E+03 -0.28085168415E+03 -0.74591469847E+03  0.11672033617E+04  0.00000000000E+00 0.  1.
<mgrwt>
<rscale>  0 0.19188449E+04</rscale>
<asrwt>0</asrwt>
<pdfrwt beam="1">  1        1 0.45177746E+00 0.19188449E+04</pdfrwt>
<pdfrwt beam="2">  1       -1 0.48224581E-01 0.19188449E+04</pdfrwt>
<totfact> 0.26753474E+00</totfact>
</mgrwt>
</event>
<event>
 6    1  0.1568961E-005  0.4849575E+03  0.7818608E-02  0.1017782E+00
         -2   -1    0    0    0  501 -0.00000000000E+00  0.00000000000E+00  0.58423584351E+02  0.58423584351E+02  0.00000000000E+00 0. -1.
          2   -1    0    0  501    0  0.00000000000E+00 -0.00000000000E+00 -0.10063734392E+04  0.10063734392E+04  0.00000000000E+00 0.  1.
         23    2    1    2    0    0  0.92050320933E+02 -0.97644478583E+02 -0.91172138747E+03  0.92579987385E+03  0.88666861241E+02 0.  0.
         11    1    3    3    0    0  0.33693137805E+01 -0.44800288202E+02 -0.13573459488E+03  0.14297656573E+03  0.00000000000E+00 0. -1.
        -11    1    3    3    0    0  0.88681007153E+02 -0.52844190381E+02 -0.77598679258E+03  0.78282330813E+03  0.00000000000E+00 0.  1.
         22    1    1    2    0    0 -0.92050320933E+02  0.97644478583E+02 -0.36228467415E+02  0.13899714973E+03  0.00000000000E+00 0. -1.
<mgrwt>
<rscale>  0 0.48495750E+03</rscale>
<asrwt>0</asrwt>
<pdfrwt beam="1">  1        2 0.15482666E+00 0.48495750E+03</pdfrwt>
<pdfrwt beam="2">  1       -2 0.89882450E-02 0.48495750E+03</pdfrwt>
<totfact> 0.20476941E+03</totfact>
</mgrwt>
</event>
<event>
 6    1  0.1568961E-005  0.3899809E+04  0.7818608E-02  0.8025069E-01
          2   -1    0    0  501    0  0.00000000000E+00  0.00000000000E+00  0.32407719149E+04  0.32407719149E+04  0.00000000000E+00 0. -1.
         -2   -1    0    0    0  501 -0.00000000000E+00 -0.00000000000E+00 -0.11732167776E+04  0.11732167776E+04  0.00000000000E+00 0.  1.
         23    2    1    2    0    0  0.13448966311E+04 -0.73723856512E+03  0.23952750732E+04  0.28456558176E+04  0.90259102851E+02 0.  0.
         11    1    3    3    0    0  0.91505375250E+03 -0.54182508081E+03  0.16172864239E+04  0.19355911668E+04  0.00000000000E+00 0. -1.
        -11    1    3    3    0    0  0.42984287863E+03 -0.19541348431E+03  0.77798864928E+03  0.91006465077E+03  0.00000000000E+00 0.  1.
         22    1    1    2    0    0 -0.13448966311E+04  0.73723856512E+03 -0.32771993584E+03  0.15683328750E+04  0.00000000000E+00 0. -1.
<mgrwt>
<rscale>  0 0.38998092E+04</rscale>
<asrwt>0</asrwt>
<pdfrwt beam="1">  1        2 0.49858029E+00 0.38998092E+04</pdfrwt>
<pdfrwt beam="2">  1       -2 0.18049489E+00 0.38998092E+04</pdfrwt>
<totfact> 0.17425823E-01</totfact>
</mgrwt>
</event>
<event>
 6    1  0.1568961E-005  0.1390587E+04  0.7818608E-02  0.8960661E-01
         -2   -1    0    0    0  501 -0.00000000000E+00  0.00000000000E+00  0.12241283681E+04  0.12241283681E+04  0.00000000000E+00 0. -1.
          2   -1    0    0  501    0  0.00000000000E+00 -0.00000000000E+00 -0.39492014026E+03  0.39492014026E+03  0.00000000000E+00 0.  1.
         23    2    1    2    0    0 -0.24418183804E+03 -0.32325252989E+03 -0.23730464884E+03  0.47818625365E+03  0.90728323604E+02 0.  0.
         13    1    3    3    0    0 -0.11179142382E+03 -0.14780281770E+03 -0.16110867301E+03  0.24555854674E+03  0.00000000000E+00 0.  1.
        -13    1    3    3    0    0 -0.13239041423E+03 -0.17544971220E+03 -0.76195975835E+02  0.23262770691E+03  0.00000000000E+00 0. -1.
         22    1    1    2    0    0  0.24418183804E+03  0.32325252989E+03  0.10665128767E+04  0.11408622547E+04  0.00000000000E+00 0. -1.
<mgrwt>
<rscale>  0 0.13905868E+04</rscale>
<asrwt>0</asrwt>
<pdfrwt beam="1">  1        2 0.60756945E-01 0.13905868E+04</pdfrwt>
<pdfrwt beam="2">  1       -2 0.18832744E+00 0.13905868E+04</pdfrwt>
<totfact> 0.12484983E+01</totfact>
</mgrwt>
</event>
<event>
 6    1  0.1568961E-005  0.4896831E+04  0.7818608E-02  0.7844622E-01
         -2   -1    0    0    0  501 -0.00000000000E+00  0.00000000000E+00  0.26963119045E+04  0.26963119045E+04  0.00000000000E+00 0.  1.
          2   -1    0    0  501    0  0.00000000000E+00 -0.00000000000E+00 -0.22233103474E+04  0.22233103474E+04  0.00000000000E+00 0. -1.
         23    2    1    2    0    0 -0.18690633152E+04 -0.28967830495E+03  0.17973613009E+04  0.26106744553E+04  0.88330456679E+02 0.  0.
         11    1    3    3    0    0 -0.12234847818E+04 -0.15865580580E+03  0.11316278342E+04  0.16741171498E+04  0.00000000000E+00 0.  1.
        -11    1    3    3    0    0 -0.64557853334E+03 -0.13102249914E+03  0.66573346662E+03  0.93655730555E+03  0.00000000000E+00 0. -1.
         22    1    1    2    0    0  0.18690633152E+04  0.28967830495E+03 -0.13243597438E+04  0.23089477966E+04  0.00000000000E+00 0.  1.
<mgrwt>
<rscale>  0 0.48968309E+04</rscale>
<asrwt>0</asrwt>
<pdfrwt beam="1">  1        2 0.34204774E+00 0.48968309E+04</pdfrwt>
<pdfrwt beam="2">  1       -2 0.41481722E+00 0.48968309E+04</pdfrwt>
<totfact> 0.21836221E-02</totfact>
</mgrwt>
</event>
<event>
 6    1  0.1568961E-005  0.3366581E+04  0.7818608E-02  0.8146158E-01
          2   -1    0    0  501    0  0.00000000000E+00  0.00000000000E+00  0.23785078306E+04  0.23785078306E+04  0.00000000000E+00 0. -1.
         -2   -1    0    0    0  501 -0.00000000000E+00 -0.00000000000E+00 -0.11912790945E+04  0.11912790945E+04  0.00000000000E+00 0.  1.
         23    2    1    2    0    0 -0.13862292309E+04  0.61871191157E+03  0.13624341007E+04  0.20416727834E+04  0.88120177526E+02 0.  0.
         13    1    3    3    0    0 -0.10502118987E+04  0.46687779562E+03  0.10810454541E+04  0.15778400369E+04  0.00000000000E+00 0. -1.
        -13    1    3    3    0    0 -0.33601733225E+03  0.15183411595E+03  0.28138864659E+03  0.46383274654E+03  0.00000000000E+00 0.  1.
         22    1    1    2    0    0  0.13862292309E+04 -0.61871191157E+03 -0.17520536459E+03  0.15281141416E+04  0.00000000000E+00 0. -1.
<mgrwt>
<rscale>  0 0.33665808E+04</rscale>
<asrwt>0</asrwt>
<pdfrwt beam="1">  1        2 0.36592428E+00 0.33665808E+04</pdfrwt>
<pdfrwt beam="2">  1       -2 0.18327371E+00 0.33665808E+04</pdfrwt>
<totfact> 0.58486119E-01</totfact>
</mgrwt>
</event>
<event>
 6    1  0.1568961E-005  0.2382233E+04  0.7818608E-02  0.8446186E-01
         -1   -1    0    0    0  501 -0.00000000000E+00  0.00000000000E+00  0.59895104877E+03  0.59895104877E+03  0.00000000000E+00 0.  1.
          1   -1    0    0  501    0  0.00000000000E+00 -0.00000000000E+00 -0.23687377560E+04  0.23687377560E+04  0.00000000000E+00 0. -1.
         23    2    1    2    0    0 -0.28274004478E+02  0.76957146102E+03 -0.20153070155E+04  0.21594067533E+04  0.92387806387E+02 0.  0.
         13    1    3    3    0    0 -0.79914968250E+01  0.20996291683E+03 -0.44158043008E+03  0.48902102889E+03  0.00000000000E+00 0.  1.
        -13    1    3    3    0    0 -0.20282507653E+02  0.55960854419E+03 -0.15737265854E+04  0.16703857245E+04  0.00000000000E+00 0. -1.
         22    1    1    2    0    0  0.28274004478E+02 -0.76957146102E+03  0.24552030824E+03  0.80828205146E+03  0.00000000000E+00 0.  1.
<mgrwt>
<rscale>  0 0.23822325E+04</rscale>
<asrwt>0</asrwt>
<pdfrwt beam="1">  1        1 0.36442120E+00 0.23822325E+04</pdfrwt>
<pdfrwt beam="2">  1       -1 0.92146313E-01 0.23822325E+04</pdfrwt>
<totfact> 0.17172779E+00</totfact>
</mgrwt>
</event>
<event>
 6    1  0.1568961E-005  0.1186091E+04  0.7818608E-02  0.9125119E-01
         -2   -1    0    0    0  501 -0.00000000000E+00  0.00000000000E+00  0.15805831181E+03  0.15805831181E+03  0.00000000000E+00 0.  1.
          2   -1    0    0  501    0  0.00000000000E+00 -0.00000000000E+00 -0.22251456535E+04  0.22251456535E+04  0.00000000000E+00 0. -1.
         23    2    1    2    0    0  0.41688973444E+03  0.11585844688E+02 -0.20414473973E+03  0.47415016286E+03  0.95979267048E+02 0.  0.
         13    1    3    3    0    0  0.66095528940E+02 -0.30004296645E+02 -0.53229455339E+02  0.90012508457E+02  0.00000000000E+00 0.  1.
        -13    1    3    3    0    0  0.35079420550E+03  0.41590141333E+02 -0.15091528439E+03  0.38413765440E+03  0.00000000000E+00 0. -1.
         22    1    1    2    0    0 -0.41688973444E+03 -0.11585844688E+02 -0.18629426020E+04  0.19090538025E+04  0.00000000000E+00 0. -1.
<mgrwt>
<rscale>  0 0.11860907E+04</rscale>
<asrwt>0</asrwt>
<pdfrwt beam="1">  1        2 0.34233008E+00 0.11860907E+04</pdfrwt>
<pdfrwt beam="2">  1       -2 0.24316665E-01 0.11860907E+04</pdfrwt>
<totfact> 0.74716319E+01</totfact>
</mgrwt>
</event>
<event>
 6    1  0.1701976E-005  0.5253874E+04  0.7818608E-02  0.7790495E-01
         -2   -1    0    0    0  501 -0.00000000000E+00  0.00000000000E+00  0.24506427302E+04  0.24506427302E+04  0.00000000000E+00 0.  1.
          2   -1    0    0  501    0  0.00000000000E+00 -0.00000000000E+00 -0.28159133048E+04  0.28159133048E+04  0.00000000000E+00 0. -1.
         23    2    1    2    0    0  0.12810599532E+04  0.21082812623E+04  0.71998571506E+03  0.25714223279E+04  0.88706672827E+02 0.  0.
         11    1    3    3    0    0  0.70841232667E+03  0.11339856127E+04  0.43284514526E+03  0.14053918721E+04  0.00000000000E+00 0.  1.
        -11    1    3    3    0    0  0.57264762652E+03  0.97429564954E+03  0.28714056980E+03  0.11660304557E+04  0.00000000000E+00 0. -1.
         22    1    1    2    0    0 -0.12810599532E+04 -0.21082812623E+04 -0.10852562897E+04  0.26951337071E+04  0.00000000000E+00 0. -1.
<mgrwt>
<rscale>  0 0.52538738E+04</rscale>
<asrwt>0</asrwt>
<pdfrwt beam="1">  1        2 0.43321743E+00 0.52538738E+04</pdfrwt>
<pdfrwt beam="2">  1       -2 0.37702196E+00 0.52538738E+04</pdfrwt>
<totfact> 0.16891157E-02</totfact>
</mgrwt>
</event>
<event>
 6    1  0.1568961E-005  0.1068757E+04  0.7818608E-02  0.9236190E-01
         -2   -1    0    0    0  501 -0.00000000000E+00  0.00000000000E+00  0.44084405714E+03  0.44084405714E+03  0.00000000000E+00 0. -1.
          2   -1    0    0  501    0  0.00000000000E+00 -0.00000000000E+00 -0.64775852620E+03  0.64775852620E+03  0.00000000000E+00 0.  1.
         23    2    1    2    0    0 -0.47462416426E+03  0.19955516263E+03  0.25708284176E+02  0.52362142830E+03  0.91804815068E+02 0.  0.
         11    1    3    3    0    0 -0.29162750049E+03  0.94850636981E+02 -0.22015556993E+02  0.30745394310E+03  0.00000000000E+00 0. -1.
        -11    1    3    3    0    0 -0.18299666376E+03  0.10470452565E+03  0.47723841169E+02  0.21616748520E+03  0.00000000000E+00 0.  1.
         22    1    1    2    0    0  0.47462416426E+03 -0.19955516263E+03 -0.23262275324E+03  0.56498115504E+03  0.00000000000E+00 0.  1.
<mgrwt>
<rscale>  0 0.10687572E+04</rscale>
<asrwt>0</asrwt>
<pdfrwt beam="1">  1        2 0.99655159E-01 0.10687572E+04</pdfrwt>
<pdfrwt beam="2">  1       -2 0.67822162E-01 0.10687572E+04</pdfrwt>
<totfact> 0.89502994E+01</totfact>
</mgrwt>
</event>
<event>
 6    1  0.1568961E-005  0.2979833E+04  0.7818608E-02  0.8249513E-01
          2   -1    0    0  501    0  0.00000000000E+00  0.00000000000E+00  0.33344127959E+04  0.33344127959E+04  0.00000000000E+00 0. -1.
         -2   -1    0    0    0  501 -0.00000000000E+00 -0.00000000000E+00 -0.66573991345E+03  0.66573991345E+03  0.00000000000E+00 0.  1.
         23    2    1    2    0    0 -0.54613310974E+03  0.99689993079E+03  0.26257562023E+04  0.28626498799E+04  0.89988085139E+02 0.  0.
         13    1    3    3    0    0 -0.15824611414E+03  0.33823426039E+03  0.77587187598E+03  0.86105831131E+03  0.00000000000E+00 0. -1.
        -13    1    3    3    0    0 -0.38788699560E+03  0.65866567040E+03  0.18498843264E+04  0.20015915686E+04  0.00000000000E+00 0.  1.
         22    1    1    2    0    0  0.54613310974E+03 -0.99689993079E+03  0.42916680157E+02  0.11375028294E+04  0.00000000000E+00 0.  1.
<mgrwt>
<rscale>  0 0.29798333E+04</rscale>
<asrwt>0</asrwt>
<pdfrwt beam="1">  1        2 0.51298658E+00 0.29798333E+04</pdfrwt>
<pdfrwt beam="2">  1       -2 0.10242153E+00 0.29798333E+04</pdfrwt>
<totfact> 0.70608838E-01</totfact>
</mgrwt>
</event>
<event>
 6    1  0.1568961E-005  0.9512194E+03  0.7818608E-02  0.9363726E-01
         -2   -1    0    0    0  501 -0.00000000000E+00  0.00000000000E+00  0.37517240660E+03  0.37517240660E+03  0.00000000000E+00 0.  1.
          2   -1    0    0  501    0  0.00000000000E+00 -0.00000000000E+00 -0.60293499844E+03  0.60293499844E+03  0.00000000000E+00 0. -1.
         23    2    1    2    0    0  0.29833986843E+03 -0.32702035992E+03  0.50708384584E+02  0.45513983663E+03  0.92908222058E+02 0.  0.
         13    1    3    3    0    0  0.96781641503E+02 -0.85299747037E+02  0.55342466218E+02  0.14037635678E+03  0.00000000000E+00 0.  1.
        -13    1    3    3    0    0  0.20155822693E+03 -0.24172061288E+03 -0.46340816347E+01  0.31476347985E+03  0.00000000000E+00 0. -1.
         22    1    1    2    0    0 -0.29833986843E+03  0.32702035992E+03 -0.27847097643E+03  0.52296756841E+03  0.00000000000E+00 0. -1.
<mgrwt>
<rscale>  0 0.95121937E+03</rscale>
<asrwt>0</asrwt>
<pdfrwt beam="1">  1        2 0.92759229E-01 0.95121937E+03</pdfrwt>
<pdfrwt beam="2">  1       -2 0.57718833E-01 0.95121937E+03</pdfrwt>
<totfact> 0.13876240E+02</totfact>
</mgrwt>
</event>
<event>
 6    1  0.1568961E-005  0.2750636E+04  0.7818608E-02  0.8318760E-01
          2   -1    0    0  501    0  0.00000000000E+00  0.00000000000E+00  0.30161207692E+04  0.30161207692E+04  0.00000000000E+00 0. -1.
         -2   -1    0    0    0  501 -0.00000000000E+00 -0.00000000000E+00 -0.62713005599E+03  0.62713005599E+03  0.00000000000E+00 0.  1.
         23    2    1    2    0    0 -0.12789002815E+03 -0.93105516926E+03 -0.13092734024E+03  0.95378868869E+03  0.96702154807E+02 0.  0.
         13    1    3    3    0    0 -0.81353531425E+02 -0.38946706639E+03 -0.94767706442E+02  0.40900355874E+03  0.00000000000E+00 0.  1.
        -13    1    3    3    0    0 -0.46536496727E+02 -0.54158810287E+03 -0.36159633795E+02  0.54478512995E+03  0.00000000000E+00 0. -1.
         22    1    1    2    0    0  0.12789002815E+03  0.93105516926E+03  0.25199180534E+04  0.26894621365E+04  0.00000000000E+00 0. -1.
<mgrwt>
<rscale>  0 0.27506363E+04</rscale>
<asrwt>0</asrwt>
<pdfrwt beam="1">  1        2 0.46401857E+00 0.27506363E+04</pdfrwt>
<pdfrwt beam="2">  1       -2 0.96481548E-01 0.27506363E+04</pdfrwt>
<totfact> 0.13352934E+00</totfact>
</mgrwt>
</event>
<event>
 6    1  0.1568961E-005  0.1814262E+04  0.7818608E-02  0.8698752E-01
          2   -1    0    0  501    0  0.00000000000E+00  0.00000000000E+00  0.10496242935E+04  0.10496242935E+04  0.00000000000E+00 0. -1.
         -2   -1    0    0    0  501 -0.00000000000E+00 -0.00000000000E+00 -0.78398229060E+03  0.78398229060E+03  0.00000000000E+00 0.  1.
         23    2    1    2    0    0 -0.81200251439E+03 -0.20185513782E+03 -0.21508029556E+03  0.86862601005E+03  0.90321823298E+02 0.  0.
         13    1    3    3    0    0 -0.37574363097E+03 -0.11724403780E+03 -0.61146215365E+02  0.39833189712E+03  0.00000000000E+00 0.  1.
        -13    1    3    3    0    0 -0.43625888342E+03 -0.84611100018E+02 -0.15393408019E+03  0.47029411293E+03  0.00000000000E+00 0. -1.
         22    1    1    2    0    0  0.81200251439E+03  0.20185513782E+03  0.48072229846E+03  0.96498057404E+03  0.00000000000E+00 0. -1.
<mgrwt>
<rscale>  0 0.18142622E+04</rscale>
<asrwt>0</asrwt>
<pdfrwt beam="1">  1        2 0.16148066E+00 0.18142622E+04</pdfrwt>
<pdfrwt beam="2">  1       -2 0.12061266E+00 0.18142622E+04</pdfrwt>
<totfact> 0.11581047E+01</totfact>
</mgrwt>
</event>
<event>
 6    1  0.1568961E-005  0.2210122E+04  0.7818608E-02  0.8514227E-01
          2   -1    0    0  501    0  0.00000000000E+00  0.00000000000E+00  0.11452571363E+04  0.11452571363E+04  0.00000000000E+00 0.  1.
         -2   -1    0    0    0  501 -0.00000000000E+00 -0.00000000000E+00 -0.10662756358E+04  0.10662756358E+04  0.00000000000E+00 0. -1.
         23    2    1    2    0    0 -0.84861934279E+03  0.17553643103E+03  0.72385594494E+03  0.11313333106E+04  0.70567719960E+02 0.  0.
         13    1    3    3    0    0 -0.59240250721E+03  0.10494307680E+03  0.46548831642E+03  0.76067940201E+03  0.00000000000E+00 0. -1.
        -13    1    3    3    0    0 -0.25621683558E+03  0.70593354234E+02  0.25836762852E+03  0.37065390861E+03  0.00000000000E+00 0.  1.
         22    1    1    2    0    0  0.84861934279E+03 -0.17553643103E+03 -0.64487444438E+03  0.10801994615E+04  0.00000000000E+00 0. -1.
<mgrwt>
<rscale>  0 0.22101220E+04</rscale>
<asrwt>0</asrwt>
<pdfrwt beam="1">  1        2 0.17619341E+00 0.22101220E+04</pdfrwt>
<pdfrwt beam="2">  1       -2 0.16404241E+00 0.22101220E+04</pdfrwt>
<totfact> 0.43911720E+00</totfact>
</mgrwt>
</event>
<event>
 6    1  0.1568961E-005  0.3248742E+04  0.7818608E-02  0.8176062E-01
         -2   -1    0    0    0  501 -0.00000000000E+00  0.00000000000E+00  0.19246828841E+04  0.19246828841E+04  0.00000000000E+00 0. -1.
          2   -1    0    0  501    0  0.00000000000E+00 -0.00000000000E+00 -0.13709169429E+04  0.13709169429E+04  0.00000000000E+00 0.  1.
         23    2    1    2    0    0  0.38482142214E+02  0.12675674876E+04 -0.75054326484E+03  0.14764157472E+04  0.90994809916E+02 0.  0.
         13    1    3    3    0    0  0.58799934864E+02  0.70287605430E+03 -0.38720328982E+03  0.80462324581E+03  0.00000000000E+00 0.  1.
        -13    1    3    3    0    0 -0.20317792650E+02  0.56469143328E+03 -0.36333997502E+03  0.67179250142E+03  0.00000000000E+00 0. -1.
         22    1    1    2    0    0 -0.38482142214E+02 -0.12675674876E+04  0.13043092060E+04  0.18191840797E+04  0.00000000000E+00 0. -1.
<mgrwt>
<rscale>  0 0.32487415E+04</rscale>
<asrwt>0</asrwt>
<pdfrwt beam="1">  1        2 0.21091030E+00 0.32487415E+04</pdfrwt>
<pdfrwt beam="2">  1       -2 0.29610506E+00 0.32487415E+04</pdfrwt>
<totfact> 0.42344338E-01</totfact>
</mgrwt>
</event>
<event>
 6    1  0.1568961E-005  0.2718318E+04  0.7818608E-02  0.8329086E-01
          1   -1    0    0  501    0  0.00000000000E+00  0.00000000000E+00  0.20157107726E+04  0.20157107726E+04  0.00000000000E+00 0. -1.
         -1   -1    0    0    0  501 -0.00000000000E+00 -0.00000000000E+00 -0.91645720323E+03  0.91645720323E+03  0.00000000000E+00 0.  1.
         23    2    1    2    0    0 -0.37249601842E+02 -0.13539144500E+04  0.45006827492E+03  0.14301981302E+04  0.91833375882E+02 0.  0.
         11    1    3    3    0    0  0.22457044038E+02 -0.26063200184E+03  0.10895920652E+03  0.28338219404E+03  0.00000000000E+00 0. -1.
        -11    1    3    3    0    0 -0.59706645880E+02 -0.10932824481E+04  0.34110906841E+03  0.11468159362E+04  0.00000000000E+00 0.  1.
         22    1    1    2    0    0  0.37249601842E+02  0.13539144500E+04  0.64918529448E+03  0.15019698456E+04  0.00000000000E+00 0. -1.
<mgrwt>
<rscale>  0 0.27183176E+04</rscale>
<asrwt>0</asrwt>
<pdfrwt beam="1">  1        1 0.31010935E+00 0.27183176E+04</pdfrwt>
<pdfrwt beam="2">  1       -1 0.14099342E+00 0.27183176E+04</pdfrwt>
<totfact> 0.10428617E+00</totfact>
</mgrwt>
</event>
<event>
 6    1  0.1568961E-005  0.2867755E+04  0.7818608E-02  0.8282537E-01
         -4   -1    0    0    0  501 -0.00000000000E+00  0.00000000000E+00  0.14496264899E+04  0.14496264899E+04  0.00000000000E+00 0. -1.
          4   -1    0    0  501    0  0.00000000000E+00 -0.00000000000E+00 -0.14182992212E+04  0.14182992212E+04  0.00000000000E+00 0.  1.
         23    2    1    2    0    0  0.10193049780E+04 -0.98258796024E+03 -0.20203585631E+03  0.14330319569E+04  0.91106336082E+02 0.  0.
         13    1    3    3    0    0  0.75308546353E+03 -0.71907667864E+03 -0.18869718952E+03  0.10582134069E+04  0.00000000000E+00 0.  1.
        -13    1    3    3    0    0  0.26621951443E+03 -0.26351128161E+03 -0.13338666793E+02  0.37481855000E+03  0.00000000000E+00 0. -1.
         22    1    1    2    0    0 -0.10193049780E+04  0.98258796024E+03  0.23336312497E+03  0.14348937542E+04  0.00000000000E+00 0. -1.
<mgrwt>
<rscale>  0 0.28677546E+04</rscale>
<asrwt>0</asrwt>
<pdfrwt beam="1">  1        4 0.21819988E+00 0.28677546E+04</pdfrwt>
<pdfrwt beam="2">  1       -4 0.22301946E+00 0.28677546E+04</pdfrwt>
<totfact> 0.16076233E-02</totfact>
</mgrwt>
</event>
<event>
 6    1  0.2092516E-005  0.4213447E+04  0.7818608E-02  0.7962819E-01
          2   -1    0    0  501    0  0.00000000000E+00  0.00000000000E+00  0.21397026972E+04  0.21397026972E+04  0.00000000000E+00 0. -1.
         -2   -1    0    0    0  501 -0.00000000000E+00 -0.00000000000E+00 -0.20742527348E+04  0.20742527348E+04  0.00000000000E+00 0.  1.
         23    2    1    2    0    0  0.42874775148E+02  0.38285693928E+03  0.21031693442E+04  0.21401381882E+04  0.91937435615E+02 0.  0.
         13    1    3    3    0    0  0.59100344980E+02  0.20014514775E+03  0.96755411359E+03  0.98980396729E+03  0.00000000000E+00 0. -1.
        -13    1    3    3    0    0 -0.16225569832E+02  0.18271179153E+03  0.11356152306E+04  0.11503342209E+04  0.00000000000E+00 0.  1.
         22    1    1    2    0    0 -0.42874775148E+02 -0.38285693928E+03 -0.20377193817E+04  0.20738172439E+04  0.00000000000E+00 0.  1.
<mgrwt>
<rscale>  0 0.42134471E+04</rscale>
<asrwt>0</asrwt>
<pdfrwt beam="1">  1        2 0.32918503E+00 0.42134471E+04</pdfrwt>
<pdfrwt beam="2">  1       -2 0.31911581E+00 0.42134471E+04</pdfrwt>
<totfact> 0.10496369E-01</totfact>
</mgrwt>
</event>
<event>
 6    1  0.1568961E-005  0.2327663E+04  0.7818608E-02  0.8467093E-01
          2   -1    0    0  501    0  0.00000000000E+00  0.00000000000E+00  0.23198685454E+04  0.23198685454E+04  0.00000000000E+00 0. -1.
         -2   -1    0    0    0  501 -0.00000000000E+00 -0.00000000000E+00 -0.58387091220E+03  0.58387091220E+03  0.00000000000E+00 0.  1.
         23    2    1    2    0    0 -0.62098895056E+01 -0.11298605934E+04  0.53033822484E+03  0.12513962329E+04  0.90057623704E+02 0.  0.
         13    1    3    3    0    0  0.15590307155E+02 -0.97933742613E+03  0.43361304403E+03  0.10711513076E+04  0.00000000000E+00 0. -1.
        -13    1    3    3    0    0 -0.21800196660E+02 -0.15052316730E+03  0.96725180803E+02  0.18024492523E+03  0.00000000000E+00 0.  1.
         22    1    1    2    0    0  0.62098895056E+01  0.11298605934E+04  0.12056594084E+04  0.16523432247E+04  0.00000000000E+00 0. -1.
<mgrwt>
<rscale>  0 0.23276630E+04</rscale>
<asrwt>0</asrwt>
<pdfrwt beam="1">  1        2 0.35690285E+00 0.23276630E+04</pdfrwt>
<pdfrwt beam="2">  1       -2 0.89826295E-01 0.23276630E+04</pdfrwt>
<totfact> 0.42410319E+00</totfact>
</mgrwt>
</event>
<event>
 6    1  0.1568961E-005  0.2328446E+04  0.7818608E-02  0.8466789E-01
          1   -1    0    0  501    0  0.00000000000E+00  0.00000000000E+00  0.46719592931E+03  0.46719592931E+03  0.00000000000E+00 0. -1.
         -1   -1    0    0    0  501 -0.00000000000E+00 -0.00000000000E+00 -0.29011705557E+04  0.29011705557E+04  0.00000000000E+00 0.  1.
         23    2    1    2    0    0 -0.84329175075E+03  0.24477424651E+03 -0.23207112309E+04  0.24829942438E+04  0.92219245282E+02 0.  0.
         11    1    3    3    0    0 -0.35776472521E+03  0.83140296003E+02 -0.10864389303E+04  0.11468467450E+04  0.00000000000E+00 0.  1.
        -11    1    3    3    0    0 -0.48552702555E+03  0.16163395051E+03 -0.12342723006E+04  0.13361474988E+04  0.00000000000E+00 0. -1.
         22    1    1    2    0    0  0.84329175075E+03 -0.24477424651E+03 -0.11326339550E+03  0.88537224115E+03  0.00000000000E+00 0. -1.
<mgrwt>
<rscale>  0 0.23284459E+04</rscale>
<asrwt>0</asrwt>
<pdfrwt beam="1">  1        1 0.71876296E-01 0.23284459E+04</pdfrwt>
<pdfrwt beam="2">  1       -1 0.44633393E+00 0.23284459E+04</pdfrwt>
<totfact> 0.15041097E-01</totfact>
</mgrwt>
</event>
<event>
 6    1  0.1568961E-005  0.1078118E+04  0.7818608E-02  0.9226786E-01
         -2   -1    0    0    0  501 -0.00000000000E+00  0.00000000000E+00  0.86682884171E+02  0.86682884171E+02  0.00000000000E+00 0.  1.
          2   -1    0    0  501    0  0.00000000000E+00 -0.00000000000E+00 -0.33522729379E+04  0.33522729379E+04  0.00000000000E+00 0. -1.
         23    2    1    2    0    0  0.23070773125E+03  0.19964893866E+03 -0.30471535109E+04  0.30637221892E+04  0.90351413349E+02 0.  0.
         11    1    3    3    0    0  0.53674229570E+02  0.63950503804E+02 -0.51069442784E+03  0.51747404619E+03  0.00000000000E+00 0. -1.
        -11    1    3    3    0    0  0.17703350168E+03  0.13569843485E+03 -0.25364590831E+04  0.25462481430E+04  0.00000000000E+00 0.  1.
         22    1    1    2    0    0 -0.23070773125E+03 -0.19964893866E+03 -0.21843654284E+03  0.37523363284E+03  0.00000000000E+00 0.  1.
<mgrwt>
<rscale>  0 0.10781182E+04</rscale>
<asrwt>0</asrwt>
<pdfrwt beam="1">  1        2 0.51573426E+00 0.10781182E+04</pdfrwt>
<pdfrwt beam="2">  1       -2 0.13335829E-01 0.10781182E+04</pdfrwt>
<totfact> 0.45001493E+01</totfact>
</mgrwt>
</event>
<event>
 6    1  0.1568961E-005  0.1702052E+04  0.7818608E-02  0.8760195E-01
         -2   -1    0    0    0  501 -0.00000000000E+00  0.00000000000E+00  0.24433926377E+03  0.24433926377E+03  0.00000000000E+00 0.  1.
          2   -1    0    0  501    0  0.00000000000E+00 -0.00000000000E+00 -0.29640954408E+04  0.29640954408E+04  0.00000000000E+00 0. -1.
         23    2    1    2    0    0 -0.52639336667E+03 -0.15854378487E+03 -0.14477434691E+03  0.57542169024E+03  0.89019109618E+02 0.  0.
         11    1    3    3    0    0 -0.43347150218E+03 -0.11441587320E+03 -0.14910622116E+03  0.47246290906E+03  0.00000000000E+00 0. -1.
        -11    1    3    3    0    0 -0.92921864490E+02 -0.44127911671E+02  0.43318742455E+01  0.10295878119E+03  0.00000000000E+00 0.  1.
         22    1    1    2    0    0  0.52639336667E+03  0.15854378487E+03 -0.25749818302E+04  0.26330130144E+04  0.00000000000E+00 0. -1.
<mgrwt>
<rscale>  0 0.17020516E+04</rscale>
<asrwt>0</asrwt>
<pdfrwt beam="1">  1        2 0.45601468E+00 0.17020516E+04</pdfrwt>
<pdfrwt beam="2">  1       -2 0.37590656E-01 0.17020516E+04</pdfrwt>
<totfact> 0.11698275E+01</totfact>
</mgrwt>
</event>
<event>
 6    1  0.1568961E-005  0.1136722E+04  0.7818608E-02  0.9170121E-01
         -1   -1    0    0    0  501 -0.00000000000E+00  0.00000000000E+00  0.21858343928E+03  0.21858343928E+03  0.00000000000E+00 0.  1.
          1   -1    0    0  501    0  0.00000000000E+00 -0.00000000000E+00 -0.14778524430E+04  0.14778524430E+04  0.00000000000E+00 0. -1.
         23    2    1    2    0    0  0.23535403672E+03  0.60290882573E+02  0.12679317504E+03  0.28924190970E+03  0.92508702111E+02 0.  0.
         11    1    3    3    0    0  0.12660030310E+03  0.72429918085E+02  0.45054949487E+02  0.15265542326E+03  0.00000000000E+00 0. -1.
        -11    1    3    3    0    0  0.10875373362E+03 -0.12139035512E+02  0.81738225548E+02  0.13658648643E+03  0.00000000000E+00 0.  1.
         22    1    1    2    0    0 -0.23535403672E+03 -0.60290882573E+02 -0.13860621788E+04  0.14071939726E+04  0.00000000000E+00 0. -1.
<mgrwt>
<rscale>  0 0.11367217E+04</rscale>
<asrwt>0</asrwt>
<pdfrwt beam="1">  1        1 0.22736191E+00 0.11367217E+04</pdfrwt>
<pdfrwt beam="2">  1       -1 0.33628222E-01 0.11367217E+04</pdfrwt>
<totfact> 0.56142715E+01</totfact>
</mgrwt>
</event>
<event>
 6    1  0.1568961E-005  0.3155649E+04  0.7818608E-02  0.8200629E-01
         -2   -1    0    0    0  501 -0.00000000000E+00  0.00000000000E+00  0.13460910966E+04  0.13460910966E+04  0.00000000000E+00 0.  1.
          2   -1    0    0  501    0  0.00000000000E+00 -0.00000000000E+00 -0.18494516379E+04  0.18494516379E+04  0.00000000000E+00 0. -1.
         23    2    1    2    0    0 -0.13190724924E+04  0.85969895568E+03 -0.18269500481E+03  0.15887257191E+04  0.10787683310E+03 0.  0.
         13    1    3    3    0    0 -0.26519442716E+03  0.22300321205E+03 -0.25051513806E+02  0.34739904307E+03  0.00000000000E+00 0. -1.
        -13    1    3    3    0    0 -0.10538780652E+04  0.63669574362E+03 -0.15764349100E+03  0.12413266760E+04  0.00000000000E+00 0.  1.
         22    1    1    2    0    0  0.13190724924E+04 -0.85969895568E+03 -0.32066553648E+03  0.16068170154E+04  0.00000000000E+00 0.  1.
<mgrwt>
<rscale>  0 0.31556491E+04</rscale>
<asrwt>0</asrwt>
<pdfrwt beam="1">  1        2 0.28453102E+00 0.31556491E+04</pdfrwt>
<pdfrwt beam="2">  1       -2 0.20709094E+00 0.31556491E+04</pdfrwt>
<totfact> 0.81862107E-01</totfact>
</mgrwt>
</event>
<event>
 6    1  0.1568961E-005  0.1398016E+04  0.7818608E-02  0.8955256E-01
          2   -1    0    0  501    0  0.00000000000E+00  0.00000000000E+00  0.21669061541E+04  0.21669061541E+04  0.00000000000E+00 0. -1.
         -2   -1    0    0    0  501 -0.00000000000E+00 -0.00000000000E+00 -0.22548829411E+03  0.22548829411E+03  0.00000000000E+00 0.  1.
         23    2    1    2    0    0  0.29094057880E+03 -0.28122758919E+03  0.19439916291E+04  0.19877439798E+04  0.91034596289E+02 0.  0.
         11    1    3    3    0    0  0.10797337739E+03 -0.15337034691E+03  0.75245725858E+03  0.77548219807E+03  0.00000000000E+00 0.  1.
        -11    1    3    3    0    0  0.18296720141E+03 -0.12785724228E+03  0.11915343706E+04  0.12122617817E+04  0.00000000000E+00 0. -1.
         22    1    1    2    0    0 -0.29094057880E+03  0.28122758919E+03 -0.25737691339E+01  0.40465046843E+03  0.00000000000E+00 0.  1.
<mgrwt>
<rscale>  0 0.13980157E+04</rscale>
<asrwt>0</asrwt>
<pdfrwt beam="1">  1        2 0.33337016E+00 0.13980157E+04</pdfrwt>
<pdfrwt beam="2">  1       -2 0.34690508E-01 0.13980157E+04</pdfrwt>
<totfact> 0.40939798E+01</totfact>
</mgrwt>
</event>
<event>
 6    1  0.2117483E-005  0.4397055E+04  0.7818608E-02  0.7928912E-01
         -2   -1    0    0    0  501 -0.00000000000E+00  0.00000000000E+00  0.16539482240E+04  0.16539482240E+04  0.00000000000E+00 0.  1.
          2   -1    0    0  501    0  0.00000000000E+00 -0.00000000000E+00 -0.29224147113E+04  0.29224147113E+04  0.00000000000E+00 0. -1.
         23    2    1    2    0    0  0.17079354385E+04  0.10894102034E+04 -0.15209620329E+04  0.25348899245E+04  0.92105215612E+02 0.  0.
         11    1    3    3    0    0  0.10144851065E+04  0.66256614332E+03 -0.85532327954E+03  0.14831560397E+04  0.00000000000E+00 0. -1.
        -11    1    3    3    0    0  0.69345033202E+03  0.42684406006E+03 -0.66563875337E+03  0.10517338849E+04  0.00000000000E+00 0.  1.
         22    1    1    2    0    0 -0.17079354385E+04 -0.10894102034E+04  0.25249554558E+03  0.20414730108E+04  0.00000000000E+00 0.  1.
<mgrwt>
<rscale>  0 0.43970548E+04</rscale>
<asrwt>0</asrwt>
<pdfrwt beam="1">  1        2 0.44960226E+00 0.43970548E+04</pdfrwt>
<pdfrwt beam="2">  1       -2 0.25445358E+00 0.43970548E+04</pdfrwt>
<totfact> 0.89674006E-02</totfact>
</mgrwt>
</event>
<event>
 6    1  0.1568961E-005  0.9805438E+03  0.7818608E-02  0.9330145E-01
         -3   -1    0    0    0  501 -0.00000000000E+00  0.00000000000E+00  0.68128851977E+03  0.68128851977E+03  0.00000000000E+00 0.  1.
          3   -1    0    0  501    0  0.00000000000E+00 -0.00000000000E+00 -0.35281166468E+03  0.35281166468E+03  0.00000000000E+00 0. -1.
         23    2    1    2    0    0 -0.31399228818E+03  0.16152947127E+03 -0.18708612180E+03  0.40920970584E+03  0.88138750001E+02 0.  0.
         13    1    3    3    0    0 -0.14795677963E+03  0.65722809806E+02 -0.13438111283E+03  0.21040194831E+03  0.00000000000E+00 0. -1.
        -13    1    3    3    0    0 -0.16603550856E+03  0.95806661467E+02 -0.52705008972E+02  0.19880775753E+03  0.00000000000E+00 0.  1.
         22    1    1    2    0    0  0.31399228818E+03 -0.16152947127E+03  0.51556297689E+03  0.62489047862E+03  0.00000000000E+00 0.  1.
<mgrwt>
<rscale>  0 0.98054380E+03</rscale>
<asrwt>0</asrwt>
<pdfrwt beam="1">  1        3 0.54278718E-01 0.98054380E+03</pdfrwt>
<pdfrwt beam="2">  1       -3 0.10481362E+00 0.98054380E+03</pdfrwt>
<totfact> 0.68600873E+00</totfact>
</mgrwt>
</event>
<event>
 6    1  0.1568961E-005  0.1958555E+04  0.7818608E-02  0.8626246E-01
          1   -1    0    0  501    0  0.00000000000E+00  0.00000000000E+00  0.76026590149E+03  0.76026590149E+03  0.00000000000E+00 0. -1.
         -1   -1    0    0    0  501 -0.00000000000E+00 -0.00000000000E+00 -0.12613805178E+04  0.12613805178E+04  0.00000000000E+00 0.  1.
         23    2    1    2    0    0  0.66196363919E+03 -0.10288634323E+03 -0.98539714934E+03  0.11950201246E+04  0.91017014529E+02 0.  0.
         13    1    3    3    0    0  0.36721980417E+03 -0.52921907247E+02 -0.62439642639E+03  0.72630710455E+03  0.00000000000E+00 0.  1.
        -13    1    3    3    0    0  0.29474383503E+03 -0.49964435985E+02 -0.36100072295E+03  0.46871302000E+03  0.00000000000E+00 0. -1.
         22    1    1    2    0    0 -0.66196363919E+03  0.10288634323E+03  0.48428253307E+03  0.82662629469E+03  0.00000000000E+00 0. -1.
<mgrwt>
<rscale>  0 0.19585552E+04</rscale>
<asrwt>0</asrwt>
<pdfrwt beam="1">  1        1 0.11696399E+00 0.19585552E+04</pdfrwt>
<pdfrwt beam="2">  1       -1 0.19405854E+00 0.19585552E+04</pdfrwt>
<totfact> 0.36936658E+00</totfact>
</mgrwt>
</event>
<event>
 6    1  0.1568961E-005  0.1317581E+04  0.7818608E-02  0.9015738E-01
         -2   -1    0    0    0  501 -0.00000000000E+00  0.00000000000E+00  0.16109614337E+03  0.16109614337E+03  0.00000000000E+00 0. -1.
          2   -1    0    0  501    0  0.00000000000E+00 -0.00000000000E+00 -0.26940755075E+04  0.26940755075E+04  0.00000000000E+00 0.  1.
         23    2    1    2    0    0  0.28694685244E+03  0.29492724885E+03 -0.16700774084E+03  0.45368413260E+03  0.92828489333E+02 0.  0.
         11    1    3    3    0    0  0.23678199534E+03  0.26611375576E+03 -0.17211506644E+03  0.39560819053E+03  0.00000000000E+00 0. -1.
        -11    1    3    3    0    0  0.50164857104E+02  0.28813493090E+02  0.51073255984E+01  0.58075942068E+02  0.00000000000E+00 0.  1.
         22    1    1    2    0    0 -0.28694685244E+03 -0.29492724885E+03 -0.23659716233E+04  0.24014875183E+04  0.00000000000E+00 0.  1.
<mgrwt>
<rscale>  0 0.13175814E+04</rscale>
<asrwt>0</asrwt>
<pdfrwt beam="1">  1        2 0.41447312E+00 0.13175814E+04</pdfrwt>
<pdfrwt beam="2">  1       -2 0.24784024E-01 0.13175814E+04</pdfrwt>
<totfact> 0.38455060E+01</totfact>
</mgrwt>
</event>
<event>
 6    1  0.1568961E-005  0.1787979E+04  0.7818608E-02  0.8712718E-01
         -2   -1    0    0    0  501 -0.00000000000E+00  0.00000000000E+00  0.12939568067E+04  0.12939568067E+04  0.00000000000E+00 0.  1.
          2   -1    0    0  501    0  0.00000000000E+00 -0.00000000000E+00 -0.61765371368E+03  0.61765371368E+03  0.00000000000E+00 0. -1.
         23    2    1    2    0    0 -0.63991809697E+03 -0.61234738247E+03  0.22988010730E+03  0.91976478144E+03  0.93047846806E+02 0.  0.
         11    1    3    3    0    0 -0.76736717230E+02 -0.89427884319E+02  0.61887463737E+02  0.13310119621E+03  0.00000000000E+00 0.  1.
        -11    1    3    3    0    0 -0.56318137974E+03 -0.52291949815E+03  0.16799264357E+03  0.78666358523E+03  0.00000000000E+00 0. -1.
         22    1    1    2    0    0  0.63991809697E+03  0.61234738247E+03  0.44642298570E+03  0.99184573891E+03  0.00000000000E+00 0.  1.
<mgrwt>
<rscale>  0 0.17879790E+04</rscale>
<asrwt>0</asrwt>
<pdfrwt beam="1">  1        2 0.95023649E-01 0.17879790E+04</pdfrwt>
<pdfrwt beam="2">  1       -2 0.19907028E+00 0.17879790E+04</pdfrwt>
<totfact> 0.60975040E+00</totfact>
</mgrwt>
</event>
<event>
 6    1  0.1568961E-005  0.4005024E+04  0.7818608E-02  0.8003534E-01
         -1   -1    0    0    0  501 -0.00000000000E+00  0.00000000000E+00  0.98506363100E+03  0.98506363100E+03  0.00000000000E+00 0.  1.
          1   -1    0    0  501    0  0.00000000000E+00 -0.00000000000E+00 -0.40708583752E+04  0.40708583752E+04  0.00000000000E+00 0. -1.
         23    2    1    2    0    0 -0.91492800604E+03 -0.68039118234E+02  0.70174666744E+03  0.11588471387E+04  0.93572046017E+02 0.  0.
         11    1    3    3    0    0 -0.45293679794E+03 -0.74682814802E+02  0.37831485658E+03  0.59485409679E+03  0.00000000000E+00 0. -1.
        -11    1    3    3    0    0 -0.46199120810E+03  0.66436965680E+01  0.32343181086E+03  0.56399304193E+03  0.00000000000E+00 0.  1.
         22    1    1    2    0    0  0.91492800604E+03  0.68039118234E+02 -0.37875414117E+04  0.38970748675E+04  0.00000000000E+00 0. -1.
<mgrwt>
<rscale>  0 0.40050241E+04</rscale>
<asrwt>0</asrwt>
<pdfrwt beam="1">  1        1 0.62628591E+00 0.40050241E+04</pdfrwt>
<pdfrwt beam="2">  1       -1 0.15154825E+00 0.40050241E+04</pdfrwt>
<totfact> 0.21953877E-02</totfact>
</mgrwt>
</event>
<event>
 6    1  0.1568961E-005  0.5039384E+03  0.7818608E-02  0.1012756E+00
         -2   -1    0    0    0  501 -0.00000000000E+00  0.00000000000E+00  0.77467655579E+02  0.77467655579E+02  0.00000000000E+00 0.  1.
          2   -1    0    0  501    0  0.00000000000E+00 -0.00000000000E+00 -0.81954807857E+03  0.81954807857E+03  0.00000000000E+00 0. -1.
         23    2    1    2    0    0  0.22767657790E+03  0.82382442599E+02 -0.43017170400E+03  0.50216064686E+03  0.92163601061E+02 0.  0.
         11    1    3    3    0    0  0.15200070604E+03  0.96339084217E+02 -0.27021117974E+03  0.32465291534E+03  0.00000000000E+00 0. -1.
        -11    1    3    3    0    0  0.75675871866E+02 -0.13956641617E+02 -0.15996052426E+03  0.17750773152E+03  0.00000000000E+00 0.  1.
         22    1    1    2    0    0 -0.22767657790E+03 -0.82382442599E+02 -0.31190871900E+03  0.39485508729E+03  0.00000000000E+00 0. -1.
<mgrwt>
<rscale>  0 0.50393836E+03</rscale>
<asrwt>0</asrwt>
<pdfrwt beam="1">  1        2 0.12608432E+00 0.50393836E+03</pdfrwt>
<pdfrwt beam="2">  1       -2 0.11918101E-01 0.50393836E+03</pdfrwt>
<totfact> 0.17216433E+03</totfact>
</mgrwt>
</event>
<event>
 6    1  0.1568961E-005  0.7720256E+03  0.7818608E-02  0.9601416E-01
         -2   -1    0    0    0  501 -0.00000000000E+00  0.00000000000E+00  0.70356551406E+03  0.70356551406E+03  0.00000000000E+00 0.  1.
          2   -1    0    0  501    0  0.00000000000E+00 -0.00000000000E+00 -0.21178679229E+03  0.21178679229E+03  0.00000000000E+00 0. -1.
         23    2    1    2    0    0 -0.18189407360E+03 -0.24418379783E+03  0.52034328413E+03  0.60953027418E+03  0.89771045808E+02 0.  0.
         13    1    3    3    0    0 -0.81454048105E+02 -0.16938260042E+03  0.35966059152E+03  0.40580902943E+03  0.00000000000E+00 0.  1.
        -13    1    3    3    0    0 -0.10044002549E+03 -0.74801197412E+02  0.16068269261E+03  0.20372124475E+03  0.00000000000E+00 0. -1.
         22    1    1    2    0    0  0.18189407360E+03  0.24418379783E+03 -0.28564562359E+02  0.30582203216E+03  0.00000000000E+00 0. -1.
<mgrwt>
<rscale>  0 0.77202560E+03</rscale>
<asrwt>0</asrwt>
<pdfrwt beam="1">  1        2 0.32582584E-01 0.77202560E+03</pdfrwt>
<pdfrwt beam="2">  1       -2 0.10824085E+00 0.77202560E+03</pdfrwt>
<totfact> 0.11166495E+02</totfact>
</mgrwt>
</event>
<event>
 6    1  0.1568961E-005  0.1692742E+04  0.7818608E-02  0.8765515E-01
         -2   -1    0    0    0  501 -0.00000000000E+00  0.00000000000E+00  0.35784577448E+03  0.35784577448E+03  0.00000000000E+00 0. -1.
          2   -1    0    0  501    0  0.00000000000E+00 -0.00000000000E+00 -0.20018219486E+04  0.20018219486E+04  0.00000000000E+00 0.  1.
         23    2    1    2    0    0  0.54694107615E+01 -0.23385535123E+03 -0.19546857435E+04  0.19707478389E+04  0.91282249753E+02 0.  0.
         13    1    3    3    0    0  0.32128647012E+02 -0.25589961297E+02 -0.33606795248E+03  0.33856870021E+03  0.00000000000E+00 0. -1.
        -13    1    3    3    0    0 -0.26659236251E+02 -0.20826538993E+03 -0.16186177910E+04  0.16321791387E+04  0.00000000000E+00 0.  1.
         22    1    1    2    0    0 -0.54694107615E+01  0.23385535123E+03  0.31070956940E+03  0.38891988412E+03  0.00000000000E+00 0. -1.
<mgrwt>
<rscale>  0 0.16927416E+04</rscale>
<asrwt>0</asrwt>
<pdfrwt beam="1">  1        2 0.30797260E+00 0.16927416E+04</pdfrwt>
<pdfrwt beam="2">  1       -2 0.55053197E-01 0.16927416E+04</pdfrwt>
<totfact> 0.19693038E+01</totfact>
</mgrwt>
</event>
<event>
 6    1  0.1568961E-005  0.8232334E+03  0.7818608E-02  0.9526984E-01
         -2   -1    0    0    0  501 -0.00000000000E+00  0.00000000000E+00  0.76645162684E+03  0.76645162684E+03  0.00000000000E+00 0.  1.
          2   -1    0    0  501    0  0.00000000000E+00 -0.00000000000E+00 -0.22105544227E+03  0.22105544227E+03  0.00000000000E+00 0. -1.
         23    2    1    2    0    0 -0.10819382117E+02  0.35138866112E+03  0.52048797003E+03  0.63507059350E+03  0.93892926179E+02 0.  0.
         11    1    3    3    0    0 -0.50773208867E+02  0.20450516932E+03  0.32452335320E+03  0.38693111763E+03  0.00000000000E+00 0. -1.
        -11    1    3    3    0    0  0.39953826750E+02  0.14688349179E+03  0.19596461683E+03  0.24813947586E+03  0.00000000000E+00 0.  1.
         22    1    1    2    0    0  0.10819382117E+02 -0.35138866112E+03  0.24908214536E+02  0.35243647561E+03  0.00000000000E+00 0. -1.
<mgrwt>
<rscale>  0 0.82323339E+03</rscale>
<asrwt>0</asrwt>
<pdfrwt beam="1">  1        2 0.34008530E-01 0.82323339E+03</pdfrwt>
<pdfrwt beam="2">  1       -2 0.11791563E+00 0.82323339E+03</pdfrwt>
<totfact> 0.86209037E+01</totfact>
</mgrwt>
</event>
<event>
 6    1  0.1568961E-005  0.3863548E+04  0.7818608E-02  0.8032654E-01
         -1   -1    0    0    0  501 -0.00000000000E+00  0.00000000000E+00  0.87364361752E+03  0.87364361752E+03  0.00000000000E+00 0.  1.
          1   -1    0    0  501    0  0.00000000000E+00 -0.00000000000E+00 -0.42714794970E+04  0.42714794970E+04  0.00000000000E+00 0. -1.
         23    2    1    2    0    0 -0.17841965022E+04  0.44951222537E+03 -0.92050411131E+03  0.20592535306E+04  0.88197987321E+02 0.  0.
         11    1    3    3    0    0 -0.10806884769E+04  0.30094615205E+03 -0.59753435035E+03  0.12710245750E+04  0.00000000000E+00 0. -1.
        -11    1    3    3    0    0 -0.70350802538E+03  0.14856607333E+03 -0.32296976096E+03  0.78822895558E+03  0.00000000000E+00 0.  1.
         22    1    1    2    0    0  0.17841965022E+04 -0.44951222537E+03 -0.24773317682E+04  0.30858695839E+04  0.00000000000E+00 0. -1.
<mgrwt>
<rscale>  0 0.38635480E+04</rscale>
<asrwt>0</asrwt>
<pdfrwt beam="1">  1        1 0.65715068E+00 0.38635480E+04</pdfrwt>
<pdfrwt beam="2">  1       -1 0.13440671E+00 0.38635480E+04</pdfrwt>
<totfact> 0.19889301E-02</totfact>
</mgrwt>
</event>
<event>
 6    1  0.1568961E-005  0.1509108E+04  0.7818608E-02  0.8878418E-01
          1   -1    0    0  501    0  0.00000000000E+00  0.00000000000E+00  0.90666531725E+03  0.90666531725E+03  0.00000000000E+00 0.  1.
         -1   -1    0    0    0  501 -0.00000000000E+00 -0.00000000000E+00 -0.62796273957E+03  0.62796273957E+03  0.00000000000E+00 0. -1.
         23    2    1    2    0    0  0.17404613472E+03  0.42952520081E+03 -0.46224233836E+03  0.66068107687E+03  0.89708142438E+02 0.  0.
         13    1    3    3    0    0  0.73874942196E+02  0.22119076204E+03 -0.17274325672E+03  0.29021215178E+03  0.00000000000E+00 0. -1.
        -13    1    3    3    0    0  0.10017119253E+03  0.20833443877E+03 -0.28949908164E+03  0.37046892509E+03  0.00000000000E+00 0.  1.
         22    1    1    2    0    0 -0.17404613472E+03 -0.42952520081E+03  0.74094491605E+03  0.87394697995E+03  0.00000000000E+00 0.  1.
<mgrwt>
<rscale>  0 0.15091084E+04</rscale>
<asrwt>0</asrwt>
<pdfrwt beam="1">  1        1 0.13948697E+00 0.15091084E+04</pdfrwt>
<pdfrwt beam="2">  1       -1 0.96609653E-01 0.15091084E+04</pdfrwt>
<totfact> 0.17912596E+01</totfact>
</mgrwt>
</event>
<event>
 6    1  0.1568961E-005  0.1397352E+04  0.7818608E-02  0.8955738E-01
         -1   -1    0    0    0  501 -0.00000000000E+00  0.00000000000E+00  0.12226555409E+03  0.12226555409E+03  0.00000000000E+00 0.  1.
          1   -1    0    0  501    0  0.00000000000E+00 -0.00000000000E+00 -0.39925233823E+04  0.39925233823E+04  0.00000000000E+00 0. -1.
         23    2    1    2    0    0  0.40844292715E+02  0.69278104053E+03 -0.18005366692E+04  0.19318185971E+04  0.91525780005E+02 0.  0.
         11    1    3    3    0    0  0.60104729630E+02  0.31514143785E+03 -0.87915608166E+03  0.93586437067E+03  0.00000000000E+00 0. -1.
        -11    1    3    3    0    0 -0.19260436915E+02  0.37763960268E+03 -0.92138058757E+03  0.99595422641E+03  0.00000000000E+00 0.  1.
         22    1    1    2    0    0 -0.40844292715E+02 -0.69278104053E+03 -0.20697211590E+04  0.21829703393E+04  0.00000000000E+00 0.  1.
<mgrwt>
<rscale>  0 0.13973519E+04</rscale>
<asrwt>0</asrwt>
<pdfrwt beam="1">  1        1 0.61423438E+00 0.13973519E+04</pdfrwt>
<pdfrwt beam="2">  1       -1 0.18810085E-01 0.13973519E+04</pdfrwt>
<totfact> 0.22042493E+00</totfact>
</mgrwt>
</event>
<event>
 6    1  0.1568961E-005  0.1295083E+04  0.7818608E-02  0.9033474E-01
          1   -1    0    0  501    0  0.00000000000E+00  0.00000000000E+00  0.19868925812E+03  0.19868925812E+03  0.00000000000E+00 0. -1.
         -1   -1    0    0    0  501 -0.00000000000E+00 -0.00000000000E+00 -0.21103794702E+04  0.21103794702E+04  0.00000000000E+00 0.  1.
         23    2    1    2    0    0  0.25003631317E+02  0.60053401305E+03 -0.13729114402E+04  0.15018829707E+04  0.97469751349E+02 0.  0.
         11    1    3    3    0    0  0.61693320025E+02  0.31364380188E+03 -0.71387849707E+03  0.78217709553E+03  0.00000000000E+00 0. -1.
        -11    1    3    3    0    0 -0.36689688707E+02  0.28689021117E+03 -0.65903294316E+03  0.71970587513E+03  0.00000000000E+00 0.  1.
         22    1    1    2    0    0 -0.25003631317E+02 -0.60053401305E+03 -0.53877877188E+03  0.80718575770E+03  0.00000000000E+00 0. -1.
<mgrwt>
<rscale>  0 0.12950826E+04</rscale>
<asrwt>0</asrwt>
<pdfrwt beam="1">  1        1 0.30567579E-01 0.12950826E+04</pdfrwt>
<pdfrwt beam="2">  1       -1 0.32467375E+00 0.12950826E+04</pdfrwt>
<totfact> 0.33874883E+00</totfact>
</mgrwt>
</event>
<event>
 6    1  0.1568961E-005  0.2576629E+04  0.7818608E-02  0.8376183E-01
          1   -1    0    0  501    0  0.00000000000E+00  0.00000000000E+00  0.25658355625E+04  0.25658355625E+04  0.00000000000E+00 0. -1.
         -1   -1    0    0    0  501 -0.00000000000E+00 -0.00000000000E+00 -0.64686715961E+03  0.64686715961E+03  0.00000000000E+00 0.  1.
         23    2    1    2    0    0  0.26253146085E+03 -0.11422177641E+04  0.16229691008E+04  0.20039017561E+04  0.89495012438E+02 0.  0.
         13    1    3    3    0    0  0.21072307300E+03 -0.72806904413E+03  0.10581306309E+04  0.13015871767E+04  0.00000000000E+00 0.  1.
        -13    1    3    3    0    0  0.51808387855E+02 -0.41414871998E+03  0.56483846997E+03  0.70231457942E+03  0.00000000000E+00 0. -1.
         22    1    1    2    0    0 -0.26253146085E+03  0.11422177641E+04  0.29599930205E+03  0.12088009660E+04  0.00000000000E+00 0. -1.
<mgrwt>
<rscale>  0 0.25766294E+04</rscale>
<asrwt>0</asrwt>
<pdfrwt beam="1">  1        1 0.39474393E+00 0.25766294E+04</pdfrwt>
<pdfrwt beam="2">  1       -1 0.99518026E-01 0.25766294E+04</pdfrwt>
<totfact> 0.10364339E+00</totfact>
</mgrwt>
</event>
<event>
 6    1  0.1568961E-005  0.1740975E+04  0.7818608E-02  0.8738334E-01
          2   -1    0    0  501    0  0.00000000000E+00  0.00000000000E+00  0.27460275976E+04  0.27460275976E+04  0.00000000000E+00 0. -1.
         -2   -1    0    0    0  501 -0.00000000000E+00 -0.00000000000E+00 -0.27594337139E+03  0.27594337139E+03  0.00000000000E+00 0.  1.
         23    2    1    2    0    0  0.38267600667E+03 -0.61270370068E+03  0.20739625435E+04  0.21981025703E+04  0.92127774176E+02 0.  0.
         11    1    3    3    0    0  0.23408112573E+03 -0.40308749199E+03  0.14579776656E+04  0.15306770962E+04  0.00000000000E+00 0. -1.
        -11    1    3    3    0    0  0.14859488095E+03 -0.20961620869E+03  0.61598487791E+03  0.66742547404E+03  0.00000000000E+00 0.  1.
         22    1    1    2    0    0 -0.38267600667E+03  0.61270370068E+03  0.39612168277E+03  0.82386839876E+03  0.00000000000E+00 0.  1.
<mgrwt>
<rscale>  0 0.17409746E+04</rscale>
<asrwt>0</asrwt>
<pdfrwt beam="1">  1        2 0.42246577E+00 0.17409746E+04</pdfrwt>
<pdfrwt beam="2">  1       -2 0.42452828E-01 0.17409746E+04</pdfrwt>
<totfact> 0.12467371E+01</totfact>
</mgrwt>
</event>
<event>
 6    1  0.1568961E-005  0.1783385E+04  0.7818608E-02  0.8715185E-01
          2   -1    0    0  501    0  0.00000000000E+00  0.00000000000E+00  0.45804379141E+03  0.45804379141E+03  0.00000000000E+00 0. -1.
         -2   -1    0    0    0  501 -0.00000000000E+00 -0.00000000000E+00 -0.17358945171E+04  0.17358945171E+04  0.00000000000E+00 0.  1.
         23    2    1    2    0    0 -0.69386839950E+03  0.36982764540E+03 -0.11520952815E+04  0.13976718488E+04  0.89091055626E+02 0.  0.
         11    1    3    3    0    0 -0.33961262491E+03  0.21561216189E+03 -0.64485496360E+03  0.76004161954E+03  0.00000000000E+00 0. -1.
        -11    1    3    3    0    0 -0.35425577459E+03  0.15421548351E+03 -0.50724031792E+03  0.63763022929E+03  0.00000000000E+00 0.  1.
         22    1    1    2    0    0  0.69386839950E+03 -0.36982764540E+03 -0.12575544420E+03  0.79626645971E+03  0.00000000000E+00 0. -1.
<mgrwt>
<rscale>  0 0.17833852E+04</rscale>
<asrwt>0</asrwt>
<pdfrwt beam="1">  1        2 0.70468274E-01 0.17833852E+04</pdfrwt>
<pdfrwt beam="2">  1       -2 0.26706070E+00 0.17833852E+04</pdfrwt>
<totfact> 0.32557930E+00</totfact>
</mgrwt>
</event>
<event>
 6    1  0.1568961E-005  0.2356244E+04  0.7818608E-02  0.8456069E-01
         -1   -1    0    0    0  501 -0.00000000000E+00  0.00000000000E+00  0.40876634260E+03  0.40876634260E+03  0.00000000000E+00 0.  1.
          1   -1    0    0  501    0  0.00000000000E+00 -0.00000000000E+00 -0.33955136328E+04  0.33955136328E+04  0.00000000000E+00 0. -1.
         23    2    1    2    0    0 -0.87545984206E+03 -0.65531408922E+03 -0.79458901953E+03  0.13544995007E+04  0.86201489562E+02 0.  0.
         13    1    3    3    0    0 -0.78314334216E+03 -0.55236982420E+03 -0.68320328272E+03  0.11769420727E+04  0.00000000000E+00 0.  1.
        -13    1    3    3    0    0 -0.92316499898E+02 -0.10294426502E+03 -0.11138573681E+03  0.17755742795E+03  0.00000000000E+00 0. -1.
         22    1    1    2    0    0  0.87545984206E+03  0.65531408922E+03 -0.21921582706E+04  0.24497804747E+04  0.00000000000E+00 0. -1.
<mgrwt>
<rscale>  0 0.23562442E+04</rscale>
<asrwt>0</asrwt>
<pdfrwt beam="1">  1        1 0.52238672E+00 0.23562442E+04</pdfrwt>
<pdfrwt beam="2">  1       -1 0.62887129E-01 0.23562442E+04</pdfrwt>
<totfact> 0.69672929E-01</totfact>
</mgrwt>
</event>
<event>
 6    1  0.1568961E-005  0.1071039E+04  0.7818608E-02  0.9233888E-01
         -2   -1    0    0    0  501 -0.00000000000E+00  0.00000000000E+00  0.30041495060E+03  0.30041495060E+03  0.00000000000E+00 0.  1.
          2   -1    0    0  501    0  0.00000000000E+00 -0.00000000000E+00 -0.95461618110E+03  0.95461618110E+03  0.00000000000E+00 0. -1.
         23    2    1    2    0    0 -0.31351317118E+03  0.36545055396E+03 -0.59352743047E+03  0.76972099797E+03  0.91383740904E+02 0.  0.
         13    1    3    3    0    0 -0.96629286910E+02  0.55065871334E+02 -0.14472845959E+03  0.18252615235E+03  0.00000000000E+00 0. -1.
        -13    1    3    3    0    0 -0.21688388427E+03  0.31038468263E+03 -0.44879897087E+03  0.58719484562E+03  0.00000000000E+00 0.  1.
         22    1    1    2    0    0  0.31351317118E+03 -0.36545055396E+03 -0.60673800025E+02  0.48531013373E+03  0.00000000000E+00 0.  1.
<mgrwt>
<rscale>  0 0.10710387E+04</rscale>
<asrwt>0</asrwt>
<pdfrwt beam="1">  1        2 0.14686403E+00 0.10710387E+04</pdfrwt>
<pdfrwt beam="2">  1       -2 0.46217684E-01 0.10710387E+04</pdfrwt>
<totfact> 0.11897191E+02</totfact>
</mgrwt>
</event>
<event>
 6    1  0.1568961E-005  0.2268177E+04  0.7818608E-02  0.8490575E-01
         -2   -1    0    0    0  501 -0.00000000000E+00  0.00000000000E+00  0.24757380798E+04  0.24757380798E+04  0.00000000000E+00 0.  1.
          2   -1    0    0  501    0  0.00000000000E+00 -0.00000000000E+00 -0.51950452732E+03  0.51950452732E+03  0.00000000000E+00 0. -1.
         23    2    1    2    0    0 -0.47048511110E+02  0.11094484281E+04  0.68720325481E+03  0.13089664514E+04  0.89752329262E+02 0.  0.
         13    1    3    3    0    0 -0.33270802517E+02  0.99489040076E+03  0.58367480982E+03  0.11539454664E+04  0.00000000000E+00 0.  1.
        -13    1    3    3    0    0 -0.13777708593E+02  0.11455802729E+03  0.10352844499E+03  0.15502098501E+03  0.00000000000E+00 0. -1.
         22    1    1    2    0    0  0.47048511110E+02 -0.11094484281E+04  0.12690302977E+04  0.16862761557E+04  0.00000000000E+00 0. -1.
<mgrwt>
<rscale>  0 0.22681774E+04</rscale>
<asrwt>0</asrwt>
<pdfrwt beam="1">  1        2 0.79923775E-01 0.22681774E+04</pdfrwt>
<pdfrwt beam="2">  1       -2 0.38088277E+00 0.22681774E+04</pdfrwt>
<totfact> 0.52962216E-01</totfact>
</mgrwt>
</event>
<event>
 6    1  0.1568961E-005  0.2352167E+04  0.7818608E-02  0.8457632E-01
          2   -1    0    0  501    0  0.00000000000E+00  0.00000000000E+00  0.15235747139E+04  0.15235747139E+04  0.00000000000E+00 0. -1.
         -2   -1    0    0    0  501 -0.00000000000E+00 -0.00000000000E+00 -0.90784713005E+03  0.90784713005E+03  0.00000000000E+00 0.  1.
         23    2    1    2    0    0 -0.24963393504E+03  0.97682816495E+03 -0.31382785609E+03  0.10600780937E+04  0.93633734153E+02 0.  0.
         13    1    3    3    0    0 -0.29011954085E+02  0.27965370660E+03 -0.95497063907E+02  0.29693025833E+03  0.00000000000E+00 0.  1.
        -13    1    3    3    0    0 -0.22062198095E+03  0.69717445834E+03 -0.21833079218E+03  0.76314783539E+03  0.00000000000E+00 0. -1.
         22    1    1    2    0    0  0.24963393504E+03 -0.97682816495E+03  0.92955543994E+03  0.13713437502E+04  0.00000000000E+00 0. -1.
<mgrwt>
<rscale>  0 0.23521675E+04</rscale>
<asrwt>0</asrwt>
<pdfrwt beam="1">  1        2 0.23439611E+00 0.23521675E+04</pdfrwt>
<pdfrwt beam="2">  1       -2 0.13966879E+00 0.23521675E+04</pdfrwt>
<totfact> 0.40169366E+00</totfact>
</mgrwt>
</event>
<event>
 6    1  0.1568961E-005  0.2530856E+04  0.7818608E-02  0.8392075E-01
         -2   -1    0    0    0  501 -0.00000000000E+00  0.00000000000E+00  0.17880315705E+04  0.17880315705E+04  0.00000000000E+00 0.  1.
          2   -1    0    0  501    0  0.00000000000E+00 -0.00000000000E+00 -0.89557062494E+03  0.89557062494E+03  0.00000000000E+00 0. -1.
         23    2    1    2    0    0  0.25767340015E+03  0.75975274449E+03  0.14822530182E+04  0.16878740684E+04  0.90692044064E+02 0.  0.
         13    1    3    3    0    0  0.12438515600E+03  0.30101117035E+03  0.68423775411E+03  0.75779990489E+03  0.00000000000E+00 0. -1.
        -13    1    3    3    0    0  0.13328824415E+03  0.45874157413E+03  0.79801526413E+03  0.93007416353E+03  0.00000000000E+00 0.  1.
         22    1    1    2    0    0 -0.25767340015E+03 -0.75975274449E+03 -0.58979207270E+03  0.99572812701E+03  0.00000000000E+00 0. -1.
<mgrwt>
<rscale>  0 0.25308564E+04</rscale>
<asrwt>0</asrwt>
<pdfrwt beam="1">  1        2 0.13778010E+00 0.25308564E+04</pdfrwt>
<pdfrwt beam="2">  1       -2 0.27508178E+00 0.25308564E+04</pdfrwt>
<totfact> 0.11852465E+00</totfact>
</mgrwt>
</event>
<event>
 6    1  0.1568961E-005  0.4823986E+04  0.7818608E-02  0.7856248E-01
          2   -1    0    0  501    0  0.00000000000E+00  0.00000000000E+00  0.36396574328E+04  0.36396574328E+04  0.00000000000E+00 0. -1.
         -2   -1    0    0    0  501 -0.00000000000E+00 -0.00000000000E+00 -0.15984224770E+04  0.15984224770E+04  0.00000000000E+00 0.  1.
         23    2    1    2    0    0  0.10954449281E+04  0.20584370827E+04  0.16850403982E+04  0.28792587261E+04  0.11664841989E+03 0.  0.
         13    1    3    3    0    0  0.72690988370E+03  0.12945424850E+04  0.11275197474E+04  0.18642797551E+04  0.00000000000E+00 0.  1.
        -13    1    3    3    0    0  0.36853504443E+03  0.76389459773E+03  0.55752065083E+03  0.10149789710E+04  0.00000000000E+00 0. -1.
         22    1    1    2    0    0 -0.10954449281E+04 -0.20584370827E+04  0.35619455753E+03  0.23588211837E+04  0.00000000000E+00 0. -1.
<mgrwt>
<rscale>  0 0.48239860E+04</rscale>
<asrwt>0</asrwt>
<pdfrwt beam="1">  1        2 0.55994730E+00 0.48239860E+04</pdfrwt>
<pdfrwt beam="2">  1       -2 0.24591115E+00 0.48239860E+04</pdfrwt>
<totfact> 0.32409536E-02</totfact>
</mgrwt>
</event>
<event>
 6    1  0.1568961E-005  0.1641474E+04  0.7818608E-02  0.8795466E-01
         -1   -1    0    0    0  501 -0.00000000000E+00  0.00000000000E+00  0.40747445243E+03  0.40747445243E+03  0.00000000000E+00 0.  1.
          1   -1    0    0  501    0  0.00000000000E+00 -0.00000000000E+00 -0.16531322708E+04  0.16531322708E+04  0.00000000000E+00 0. -1.
         23    2    1    2    0    0  0.62832092522E+03  0.49347830167E+03 -0.84584692283E+03  0.11672105225E+04  0.92819004760E+02 0.  0.
         13    1    3    3    0    0  0.43106096409E+03  0.38620740689E+03 -0.63518521896E+03  0.85931948557E+03  0.00000000000E+00 0. -1.
        -13    1    3    3    0    0  0.19725996113E+03  0.10727089478E+03 -0.21066170387E+03  0.30789103691E+03  0.00000000000E+00 0.  1.
         22    1    1    2    0    0 -0.62832092522E+03 -0.49347830167E+03 -0.39981089550E+03  0.89339620071E+03  0.00000000000E+00 0.  1.
<mgrwt>
<rscale>  0 0.16414739E+04</rscale>
<asrwt>0</asrwt>
<pdfrwt beam="1">  1        1 0.25432804E+00 0.16414739E+04</pdfrwt>
<pdfrwt beam="2">  1       -1 0.62688378E-01 0.16414739E+04</pdfrwt>
<totfact> 0.12663337E+01</totfact>
</mgrwt>
</event>
<event>
 6    1  0.1568961E-005  0.1947139E+04  0.7818608E-02  0.8631742E-01
         -1   -1    0    0    0  501 -0.00000000000E+00  0.00000000000E+00  0.70957019151E+03  0.70957019151E+03  0.00000000000E+00 0.  1.
          1   -1    0    0  501    0  0.00000000000E+00 -0.00000000000E+00 -0.13357908859E+04  0.13357908859E+04  0.00000000000E+00 0. -1.
         23    2    1    2    0    0  0.85910069568E+02  0.31950325823E+03  0.64570515444E+03  0.73110910879E+03  0.90124971065E+02 0.  0.
         13    1    3    3    0    0  0.10129150413E+03  0.23862876262E+03  0.51648700905E+03  0.57789487424E+03  0.00000000000E+00 0. -1.
        -13    1    3    3    0    0 -0.15381434561E+02  0.80874495610E+02  0.12921814539E+03  0.15321423455E+03  0.00000000000E+00 0.  1.
         22    1    1    2    0    0 -0.85910069568E+02 -0.31950325823E+03 -0.12719258488E+04  0.13142519686E+04  0.00000000000E+00 0. -1.
<mgrwt>
<rscale>  0 0.19471388E+04</rscale>
<asrwt>0</asrwt>
<pdfrwt beam="1">  1        1 0.20550629E+00 0.19471388E+04</pdfrwt>
<pdfrwt beam="2">  1       -1 0.10916464E+00 0.19471388E+04</pdfrwt>
<totfact> 0.61764412E+00</totfact>
</mgrwt>
</event>
<event>
 6    1  0.1568961E-005  0.5227022E+04  0.7818608E-02  0.7794410E-01
         -2   -1    0    0    0  501 -0.00000000000E+00  0.00000000000E+00  0.20911968327E+04  0.20911968327E+04  0.00000000000E+00 0.  1.
          2   -1    0    0  501    0  0.00000000000E+00 -0.00000000000E+00 -0.32662819962E+04  0.32662819962E+04  0.00000000000E+00 0. -1.
         23    2    1    2    0    0  0.21558492028E+04 -0.77169648162E+03 -0.18771917024E+04  0.29624517232E+04  0.95238015973E+02 0.  0.
         13    1    3    3    0    0  0.13069829255E+04 -0.51245872206E+03 -0.11245571938E+04  0.17987348864E+04  0.00000000000E+00 0.  1.
        -13    1    3    3    0    0  0.84886627735E+03 -0.25923775955E+03 -0.75263450864E+03  0.11637168369E+04  0.00000000000E+00 0. -1.
         22    1    1    2    0    0 -0.21558492028E+04  0.77169648162E+03  0.70210653884E+03  0.23950271057E+04  0.00000000000E+00 0.  1.
<mgrwt>
<rscale>  0 0.52270215E+04</rscale>
<asrwt>0</asrwt>
<pdfrwt beam="1">  1        2 0.50250492E+00 0.52270215E+04</pdfrwt>
<pdfrwt beam="2">  1       -2 0.32172259E+00 0.52270215E+04</pdfrwt>
<totfact> 0.19572571E-02</totfact>
</mgrwt>
</event>
<event>
 6    1  0.1568961E-005  0.1440361E+04  0.7818608E-02  0.8925111E-01
         -2   -1    0    0    0  501 -0.00000000000E+00  0.00000000000E+00  0.44220496970E+03  0.44220496970E+03  0.00000000000E+00 0. -1.
          2   -1    0    0  501    0  0.00000000000E+00 -0.00000000000E+00 -0.11728945735E+04  0.11728945735E+04  0.00000000000E+00 0.  1.
         23    2    1    2    0    0 -0.41428427719E+03  0.38059985042E+03 -0.86586117049E+03  0.10365158752E+04  0.90343148824E+02 0.  0.
         11    1    3    3    0    0 -0.23275998866E+03  0.25789317603E+03 -0.47579577532E+03  0.58912453894E+03  0.00000000000E+00 0.  1.
        -11    1    3    3    0    0 -0.18152428853E+03  0.12270667438E+03 -0.39006539517E+03  0.44739133627E+03  0.00000000000E+00 0. -1.
         22    1    1    2    0    0  0.41428427719E+03 -0.38059985042E+03  0.13517156667E+03  0.57858366802E+03  0.00000000000E+00 0. -1.
<mgrwt>
<rscale>  0 0.14403608E+04</rscale>
<asrwt>0</asrwt>
<pdfrwt beam="1">  1        2 0.18044532E+00 0.14403608E+04</pdfrwt>
<pdfrwt beam="2">  1       -2 0.68031535E-01 0.14403608E+04</pdfrwt>
<totfact> 0.37754685E+01</totfact>
</mgrwt>
</event>
<event>
 6    1  0.1568961E-005  0.4885537E+04  0.7818608E-02  0.7846411E-01
         -1   -1    0    0    0  501 -0.00000000000E+00  0.00000000000E+00  0.22118858012E+04  0.22118858012E+04  0.00000000000E+00 0.  1.
          1   -1    0    0  501    0  0.00000000000E+00 -0.00000000000E+00 -0.26977516361E+04  0.26977516361E+04  0.00000000000E+00 0. -1.
         23    2    1    2    0    0  0.17899190641E+04 -0.13429906735E+04 -0.12254068685E+04  0.25528694925E+04  0.89924674560E+02 0.  0.
         13    1    3    3    0    0  0.81461069579E+03 -0.56711058357E+03 -0.51206701194E+03  0.11168785182E+04  0.00000000000E+00 0. -1.
        -13    1    3    3    0    0  0.97530836833E+03 -0.77588008996E+03 -0.71333985653E+03  0.14359909743E+04  0.00000000000E+00 0.  1.
         22    1    1    2    0    0 -0.17899190641E+04  0.13429906735E+04  0.73954103365E+03  0.23567679448E+04  0.00000000000E+00 0.  1.
<mgrwt>
<rscale>  0 0.48855372E+04</rscale>
<asrwt>0</asrwt>
<pdfrwt beam="1">  1        1 0.41503871E+00 0.48855372E+04</pdfrwt>
<pdfrwt beam="2">  1       -1 0.34029012E+00 0.48855372E+04</pdfrwt>
<totfact> 0.12927866E-02</totfact>
</mgrwt>
</event>
<event>
 6    1  0.1568961E-005  0.3166299E+04  0.7818608E-02  0.8197775E-01
          1   -1    0    0  501    0  0.00000000000E+00  0.00000000000E+00  0.18283356944E+04  0.18283356944E+04  0.00000000000E+00 0. -1.
         -1   -1    0    0    0  501 -0.00000000000E+00 -0.00000000000E+00 -0.13708438194E+04  0.13708438194E+04  0.00000000000E+00 0.  1.
         23    2    1    2    0    0  0.13990939988E+04 -0.34029143171E+03  0.89056673863E+03  0.16955784651E+04  0.92816697922E+02 0.  0.
         11    1    3    3    0    0  0.12850747905E+04 -0.33789203802E+03  0.81555432209E+03  0.15590757194E+04  0.00000000000E+00 0.  1.
        -11    1    3    3    0    0  0.11401920831E+03 -0.23993936889E+01  0.75012416534E+02  0.13650274572E+03  0.00000000000E+00 0. -1.
         22    1    1    2    0    0 -0.13990939988E+04  0.34029143171E+03 -0.43307486371E+03  0.15036010487E+04  0.00000000000E+00 0.  1.
<mgrwt>
<rscale>  0 0.31662992E+04</rscale>
<asrwt>0</asrwt>
<pdfrwt beam="1">  1        1 0.28128241E+00 0.31662992E+04</pdfrwt>
<pdfrwt beam="2">  1       -1 0.21089905E+00 0.31662992E+04</pdfrwt>
<totfact> 0.41455468E-01</totfact>
</mgrwt>
</event>
<event>
 6    1  0.1568961E-005  0.1504394E+04  0.7818608E-02  0.8881536E-01
          2   -1    0    0  501    0  0.00000000000E+00  0.00000000000E+00  0.39184831427E+04  0.39184831427E+04  0.00000000000E+00 0. -1.
         -2   -1    0    0    0  501 -0.00000000000E+00 -0.00000000000E+00 -0.14439278248E+03  0.14439278248E+03  0.00000000000E+00 0.  1.
         23    2    1    2    0    0  0.48777971982E+03 -0.56853473988E+03  0.19560062869E+04  0.20965111311E+04  0.90760801830E+02 0.  0.
         13    1    3    3    0    0  0.20268237106E+03 -0.21498723423E+03  0.89075769240E+03  0.93848224330E+03  0.00000000000E+00 0.  1.
        -13    1    3    3    0    0  0.28509734876E+03 -0.35354750565E+03  0.10652485945E+04  0.11580288878E+04  0.00000000000E+00 0. -1.
         22    1    1    2    0    0 -0.48777971982E+03  0.56853473988E+03  0.18180840734E+04  0.19663647941E+04  0.00000000000E+00 0.  1.
<mgrwt>
<rscale>  0 0.15043945E+04</rscale>
<asrwt>0</asrwt>
<pdfrwt beam="1">  1        2 0.60284348E+00 0.15043945E+04</pdfrwt>
<pdfrwt beam="2">  1       -2 0.22214277E-01 0.15043945E+04</pdfrwt>
<totfact> 0.69643638E+00</totfact>
</mgrwt>
</event>
<event>
 6    1  0.1568961E-005  0.5353381E+04  0.7818608E-02  0.7776192E-01
          2   -1    0    0  501    0  0.00000000000E+00  0.00000000000E+00  0.27458383993E+04  0.27458383993E+04  0.00000000000E+00 0.  1.
         -2   -1    0    0    0  501 -0.00000000000E+00 -0.00000000000E+00 -0.26092843739E+04  0.26092843739E+04  0.00000000000E+00 0. -1.
         23    2    1    2    0    0 -0.21906256516E+03  0.87075196311E+03 -0.24532948233E+04  0.26140437070E+04  0.91496574984E+02 0.  0.
         11    1    3    3    0    0 -0.17503764855E+03  0.51560644299E+03 -0.14559211451E+04  0.15544113237E+04  0.00000000000E+00 0.  1.
        -11    1    3    3    0    0 -0.44024916609E+02  0.35514552012E+03 -0.99737367817E+03  0.10596323833E+04  0.00000000000E+00 0. -1.
         22    1    1    2    0    0  0.21906256516E+03 -0.87075196311E+03  0.25898488487E+04  0.27410790663E+04  0.00000000000E+00 0.  1.
<mgrwt>
<rscale>  0 0.53533814E+04</rscale>
<asrwt>0</asrwt>
<pdfrwt beam="1">  1        2 0.42243668E+00 0.53533814E+04</pdfrwt>
<pdfrwt beam="2">  1       -2 0.40142836E+00 0.53533814E+04</pdfrwt>
<totfact> 0.12832481E-02</totfact>
</mgrwt>
</event>
<event>
 6    1  0.1568961E-005  0.1554007E+04  0.7818608E-02  0.8849312E-01
          1   -1    0    0  501    0  0.00000000000E+00  0.00000000000E+00  0.12120987664E+04  0.12120987664E+04  0.00000000000E+00 0. -1.
         -1   -1    0    0    0  501 -0.00000000000E+00 -0.00000000000E+00 -0.49808999634E+03  0.49808999634E+03  0.00000000000E+00 0.  1.
         23    2    1    2    0    0  0.27031472984E+03  0.68545746273E+03  0.62086283480E+03  0.96749222204E+03  0.87456010003E+02 0.  0.
         11    1    3    3    0    0  0.19162613170E+03  0.55120659036E+03  0.52324967140E+03  0.78379812339E+03  0.00000000000E+00 0.  1.
        -11    1    3    3    0    0  0.78688598144E+02  0.13425087236E+03  0.97613163401E+02  0.18369409864E+03  0.00000000000E+00 0. -1.
         22    1    1    2    0    0 -0.27031472984E+03 -0.68545746273E+03  0.93145935309E+02  0.74269654075E+03  0.00000000000E+00 0.  1.
<mgrwt>
<rscale>  0 0.15540068E+04</rscale>
<asrwt>0</asrwt>
<pdfrwt beam="1">  1        1 0.18647673E+00 0.15540068E+04</pdfrwt>
<pdfrwt beam="2">  1       -1 0.76629231E-01 0.15540068E+04</pdfrwt>
<totfact> 0.17234838E+01</totfact>
</mgrwt>
</event>
<event>
 6    1  0.1568961E-005  0.4256881E+04  0.7818608E-02  0.7954640E-01
         -1   -1    0    0    0  501 -0.00000000000E+00  0.00000000000E+00  0.16008785644E+04  0.16008785644E+04  0.00000000000E+00 0.  1.
          1   -1    0    0  501    0  0.00000000000E+00 -0.00000000000E+00 -0.28298585674E+04  0.28298585674E+04  0.00000000000E+00 0. -1.
         23    2    1    2    0    0  0.12945967420E+03  0.88585988496E+03  0.13938552160E+04  0.16593165341E+04  0.94823279205E+02 0.  0.
         11    1    3    3    0    0  0.10381053635E+03  0.54113965051E+03  0.92738443150E+03  0.10787263938E+04  0.00000000000E+00 0. -1.
        -11    1    3    3    0    0  0.25649137847E+02  0.34472023445E+03  0.46647078448E+03  0.58059014036E+03  0.00000000000E+00 0.  1.
         22    1    1    2    0    0 -0.12945967420E+03 -0.88585988496E+03 -0.26228352190E+04  0.27714205976E+04  0.00000000000E+00 0. -1.
<mgrwt>
<rscale>  0 0.42568815E+04</rscale>
<asrwt>0</asrwt>
<pdfrwt beam="1">  1        1 0.43536286E+00 0.42568815E+04</pdfrwt>
<pdfrwt beam="2">  1       -1 0.24628901E+00 0.42568815E+04</pdfrwt>
<totfact> 0.44827666E-02</totfact>
</mgrwt>
</event>
<event>
 6    1  0.1568961E-005  0.3209320E+04  0.7818608E-02  0.8186360E-01
         -1   -1    0    0    0  501 -0.00000000000E+00  0.00000000000E+00  0.91079086082E+03  0.91079086082E+03  0.00000000000E+00 0.  1.
          1   -1    0    0  501    0  0.00000000000E+00 -0.00000000000E+00 -0.28271405070E+04  0.28271405070E+04  0.00000000000E+00 0. -1.
         23    2    1    2    0    0  0.12958045565E+04 -0.79114298996E+02 -0.20549589120E+04  0.24323353163E+04  0.89612723117E+02 0.  0.
         13    1    3    3    0    0  0.48322258456E+03  0.18436232215E+01 -0.70858271255E+03  0.85766947345E+03  0.00000000000E+00 0.  1.
        -13    1    3    3    0    0  0.81258197195E+03 -0.80957922218E+02 -0.13463761994E+04  0.15746658429E+04  0.00000000000E+00 0. -1.
         22    1    1    2    0    0 -0.12958045565E+04  0.79114298996E+02  0.13860926584E+03  0.13055960514E+04  0.00000000000E+00 0.  1.
<mgrwt>
<rscale>  0 0.32093200E+04</rscale>
<asrwt>0</asrwt>
<pdfrwt beam="1">  1        1 0.43494469E+00 0.32093200E+04</pdfrwt>
<pdfrwt beam="2">  1       -1 0.14012167E+00 0.32093200E+04</pdfrwt>
<totfact> 0.27845999E-01</totfact>
</mgrwt>
</event>
<event>
 6    1  0.1784898E-005  0.1972703E+04  0.7818608E-02  0.8619490E-01
          1   -1    0    0  501    0  0.00000000000E+00  0.00000000000E+00  0.11964112950E+04  0.11964112950E+04  0.00000000000E+00 0. -1.
         -1   -1    0    0    0  501 -0.00000000000E+00 -0.00000000000E+00 -0.81317297282E+03  0.81317297282E+03  0.00000000000E+00 0.  1.
         23    2    1    2    0    0 -0.39095106179E+03  0.84648735042E+03  0.51260673406E+03  0.10682449277E+04  0.94857760299E+02 0.  0.
         13    1    3    3    0    0 -0.31271610947E+03  0.62435316092E+03  0.34274442948E+03  0.77787015537E+03  0.00000000000E+00 0. -1.
        -13    1    3    3    0    0 -0.78234952323E+02  0.22213418950E+03  0.16986230458E+03  0.29037477237E+03  0.00000000000E+00 0.  1.
         22    1    1    2    0    0  0.39095106179E+03 -0.84648735042E+03 -0.12936841191E+03  0.94133934005E+03  0.00000000000E+00 0.  1.
<mgrwt>
<rscale>  0 0.19727030E+04</rscale>
<asrwt>0</asrwt>
<pdfrwt beam="1">  1        1 0.18406328E+00 0.19727030E+04</pdfrwt>
<pdfrwt beam="2">  1       -1 0.12510353E+00 0.19727030E+04</pdfrwt>
<totfact> 0.55831299E+00</totfact>
</mgrwt>
</event>
<event>
 6    1  0.1568961E-005  0.3163949E+04  0.7818608E-02  0.8198404E-01
          2   -1    0    0  501    0  0.00000000000E+00  0.00000000000E+00  0.24616916349E+04  0.24616916349E+04  0.00000000000E+00 0. -1.
         -2   -1    0    0    0  501 -0.00000000000E+00 -0.00000000000E+00 -0.10166355132E+04  0.10166355132E+04  0.00000000000E+00 0.  1.
         23    2    1    2    0    0 -0.13046998471E+04 -0.20590463861E+03 -0.23134115421E+03  0.13440951461E+04  0.91840192109E+02 0.  0.
         11    1    3    3    0    0 -0.72049855851E+03 -0.69116251236E+02 -0.13892111336E+03  0.73701716719E+03  0.00000000000E+00 0.  1.
        -11    1    3    3    0    0 -0.58420128862E+03 -0.13678838738E+03 -0.92420040847E+02  0.60707797893E+03  0.00000000000E+00 0. -1.
         22    1    1    2    0    0  0.13046998471E+04  0.20590463861E+03  0.16763972760E+04  0.21342320020E+04  0.00000000000E+00 0. -1.
<mgrwt>
<rscale>  0 0.31639489E+04</rscale>
<asrwt>0</asrwt>
<pdfrwt beam="1">  1        2 0.37872179E+00 0.31639489E+04</pdfrwt>
<pdfrwt beam="2">  1       -2 0.15640547E+00 0.31639489E+04</pdfrwt>
<totfact> 0.82880948E-01</totfact>
</mgrwt>
</event>
<event>
 6    1  0.1966832E-005  0.2214117E+04  0.7818608E-02  0.8512575E-01
         -2   -1    0    0    0  501 -0.00000000000E+00  0.00000000000E+00  0.75840489644E+03  0.75840489644E+03  0.00000000000E+00 0.  1.
          2   -1    0    0  501    0  0.00000000000E+00 -0.00000000000E+00 -0.16159952649E+04  0.16159952649E+04  0.00000000000E+00 0. -1.
         23    2    1    2    0    0 -0.70419015694E+02 -0.65163249533E+03 -0.13835747915E+04  0.15340172962E+04  0.96675305693E+02 0.  0.
         13    1    3    3    0    0 -0.70033655255E+02 -0.33406931908E+03 -0.63641502624E+03  0.72217110745E+03  0.00000000000E+00 0. -1.
        -13    1    3    3    0    0 -0.38536043929E+00 -0.31756317626E+03 -0.74715976525E+03  0.81184618878E+03  0.00000000000E+00 0.  1.
         22    1    1    2    0    0  0.70419015694E+02  0.65163249533E+03  0.52598442301E+03  0.84038286513E+03  0.00000000000E+00 0.  1.
<mgrwt>
<rscale>  0 0.22141172E+04</rscale>
<asrwt>0</asrwt>
<pdfrwt beam="1">  1        2 0.24861465E+00 0.22141172E+04</pdfrwt>
<pdfrwt beam="2">  1       -2 0.11667768E+00 0.22141172E+04</pdfrwt>
<totfact> 0.56769705E+00</totfact>
</mgrwt>
</event>
<event>
 6    1  0.1568961E-005  0.3116050E+04  0.7818608E-02  0.8211347E-01
         -2   -1    0    0    0  501 -0.00000000000E+00  0.00000000000E+00  0.11543497553E+04  0.11543497553E+04  0.00000000000E+00 0.  1.
          2   -1    0    0  501    0  0.00000000000E+00 -0.00000000000E+00 -0.21028650769E+04  0.21028650769E+04  0.00000000000E+00 0. -1.
         23    2    1    2    0    0  0.14508720812E+04 -0.41191911283E+03 -0.87786185092E+03  0.17473475981E+04  0.88741465319E+02 0.  0.
         11    1    3    3    0    0  0.10040857403E+04 -0.27871122458E+03 -0.65285362427E+03  0.12296690512E+04  0.00000000000E+00 0.  1.
        -11    1    3    3    0    0  0.44678634089E+03 -0.13320788824E+03 -0.22500822666E+03  0.51767854694E+03  0.00000000000E+00 0. -1.
         22    1    1    2    0    0 -0.14508720812E+04  0.41191911283E+03 -0.70653470630E+02  0.15098672341E+04  0.00000000000E+00 0.  1.
<mgrwt>
<rscale>  0 0.31160499E+04</rscale>
<asrwt>0</asrwt>
<pdfrwt beam="1">  1        2 0.32351770E+00 0.31160499E+04</pdfrwt>
<pdfrwt beam="2">  1       -2 0.17759227E+00 0.31160499E+04</pdfrwt>
<totfact> 0.93542627E-01</totfact>
</mgrwt>
</event>
<event>
 6    1  0.1568961E-005  0.2750531E+03  0.7818608E-02  0.1098422E+00
          4   -1    0    0  501    0  0.00000000000E+00  0.00000000000E+00  0.10977515590E+03  0.10977515590E+03  0.00000000000E+00 0. -1.
         -4   -1    0    0    0  501 -0.00000000000E+00 -0.00000000000E+00 -0.17229361422E+03  0.17229361422E+03  0.00000000000E+00 0.  1.
         23    2    1    2    0    0  0.10445350612E+03 -0.32589416468E+02 -0.91588802303E+02  0.16885353305E+03  0.90279576371E+02 0.  0.
         11    1    3    3    0    0  0.39902490447E+02 -0.10290342500E+02  0.13638969795E+02  0.43406467142E+02  0.00000000000E+00 0. -1.
        -11    1    3    3    0    0  0.64551015669E+02 -0.22299073968E+02 -0.10522777210E+03  0.12544706591E+03  0.00000000000E+00 0.  1.
         22    1    1    2    0    0 -0.10445350612E+03  0.32589416468E+02  0.29070343991E+02  0.11321523707E+03  0.00000000000E+00 0. -1.
<mgrwt>
<rscale>  0 0.27505315E+03</rscale>
<asrwt>0</asrwt>
<pdfrwt beam="1">  1        4 0.16888486E-01 0.27505315E+03</pdfrwt>
<pdfrwt beam="2">  1       -4 0.26506710E-01 0.27505315E+03</pdfrwt>
<totfact> 0.76990423E+02</totfact>
</mgrwt>
</event>
<event>
 6    1  0.1568961E-005  0.3483076E+04  0.7818608E-02  0.8117813E-01
          2   -1    0    0  501    0  0.00000000000E+00  0.00000000000E+00  0.17932323557E+04  0.17932323557E+04  0.00000000000E+00 0. -1.
         -2   -1    0    0    0  501 -0.00000000000E+00 -0.00000000000E+00 -0.16913334847E+04  0.16913334847E+04  0.00000000000E+00 0.  1.
         23    2    1    2    0    0  0.52866676367E+03  0.32866700904E+03  0.16769045962E+04  0.17910034457E+04  0.90408892771E+02 0.  0.
         11    1    3    3    0    0  0.37789735509E+03  0.20203562113E+03  0.10561302944E+04  0.11397526056E+04  0.00000000000E+00 0.  1.
        -11    1    3    3    0    0  0.15076940858E+03  0.12663138791E+03  0.62077430180E+03  0.65125084011E+03  0.00000000000E+00 0. -1.
         22    1    1    2    0    0 -0.52866676367E+03 -0.32866700904E+03 -0.15750057253E+04  0.16935623946E+04  0.00000000000E+00 0.  1.
<mgrwt>
<rscale>  0 0.34830756E+04</rscale>
<asrwt>0</asrwt>
<pdfrwt beam="1">  1        2 0.27588190E+00 0.34830756E+04</pdfrwt>
<pdfrwt beam="2">  1       -2 0.26020515E+00 0.34830756E+04</pdfrwt>
<totfact> 0.39844317E-01</totfact>
</mgrwt>
</event>
<event>
 6    1  0.1568961E-005  0.1932416E+04  0.7818608E-02  0.8638887E-01
         -2   -1    0    0    0  501 -0.00000000000E+00  0.00000000000E+00  0.42757129372E+03  0.42757129372E+03  0.00000000000E+00 0.  1.
          2   -1    0    0  501    0  0.00000000000E+00 -0.00000000000E+00 -0.21833981423E+04  0.21833981423E+04  0.00000000000E+00 0. -1.
         23    2    1    2    0    0 -0.40003729807E+03  0.76521120621E+03 -0.30102436961E+03  0.91921641541E+03  0.93622205234E+02 0.  0.
         11    1    3    3    0    0 -0.31023785048E+03  0.49899093891E+03 -0.20303698646E+03  0.62166188468E+03  0.00000000000E+00 0.  1.
        -11    1    3    3    0    0 -0.89799447589E+02  0.26622026729E+03 -0.97987383148E+02  0.29755453074E+03  0.00000000000E+00 0. -1.
         22    1    1    2    0    0  0.40003729807E+03 -0.76521120621E+03 -0.14548024790E+04  0.16917530206E+04  0.00000000000E+00 0. -1.
<mgrwt>
<rscale>  0 0.19324165E+04</rscale>
<asrwt>0</asrwt>
<pdfrwt beam="1">  1        2 0.33590741E+00 0.19324165E+04</pdfrwt>
<pdfrwt beam="2">  1       -2 0.65780199E-01 0.19324165E+04</pdfrwt>
<totfact> 0.10487439E+01</totfact>
</mgrwt>
</event>
<event>
 6    1  0.1568961E-005  0.1897114E+04  0.7818608E-02  0.8656294E-01
          2   -1    0    0  501    0  0.00000000000E+00  0.00000000000E+00  0.64743140829E+03  0.64743140829E+03  0.00000000000E+00 0. -1.
         -2   -1    0    0    0  501 -0.00000000000E+00 -0.00000000000E+00 -0.13897392541E+04  0.13897392541E+04  0.00000000000E+00 0.  1.
         23    2    1    2    0    0 -0.18766642155E+03  0.58533354088E+03  0.40057783929E+03  0.73947203442E+03  0.92316003497E+02 0.  0.
         13    1    3    3    0    0 -0.36170370244E+02  0.10996157248E+03  0.12141469931E+03  0.16775390402E+03  0.00000000000E+00 0. -1.
        -13    1    3    3    0    0 -0.15149605130E+03  0.47537196840E+03  0.27916313998E+03  0.57171813040E+03  0.00000000000E+00 0.  1.
         22    1    1    2    0    0  0.18766642155E+03 -0.58533354088E+03 -0.11428856851E+04  0.12976986280E+04  0.00000000000E+00 0.  1.
<mgrwt>
<rscale>  0 0.18971145E+04</rscale>
<asrwt>0</asrwt>
<pdfrwt beam="1">  1        2 0.99604832E-01 0.18971145E+04</pdfrwt>
<pdfrwt beam="2">  1       -2 0.21380604E+00 0.18971145E+04</pdfrwt>
<totfact> 0.45783668E+00</totfact>
</mgrwt>
</event>
<event>
 6    1  0.1568961E-005  0.2797112E+04  0.7818608E-02  0.8304165E-01
          2   -1    0    0  501    0  0.00000000000E+00  0.00000000000E+00  0.11144900065E+04  0.11144900065E+04  0.00000000000E+00 0. -1.
         -2   -1    0    0    0  501 -0.00000000000E+00 -0.00000000000E+00 -0.17550261903E+04  0.17550261903E+04  0.00000000000E+00 0.  1.
         23    2    1    2    0    0 -0.18194669593E+03  0.48771574256E+03 -0.16506144395E+04  0.17331934749E+04  0.91980149297E+02 0.  0.
         11    1    3    3    0    0 -0.13041565281E+03  0.21844550344E+03 -0.78359845768E+03  0.82386480891E+03  0.00000000000E+00 0. -1.
        -11    1    3    3    0    0 -0.51531043125E+02  0.26927023912E+03 -0.86701598183E+03  0.90932866601E+03  0.00000000000E+00 0.  1.
         22    1    1    2    0    0  0.18194669593E+03 -0.48771574256E+03  0.10100782557E+04  0.11363227219E+04  0.00000000000E+00 0.  1.
<mgrwt>
<rscale>  0 0.27971122E+04</rscale>
<asrwt>0</asrwt>
<pdfrwt beam="1">  1        2 0.17146000E+00 0.27971122E+04</pdfrwt>
<pdfrwt beam="2">  1       -2 0.27000403E+00 0.27971122E+04</pdfrwt>
<totfact> 0.90023615E-01</totfact>
</mgrwt>
</event>
<event>
 6    1  0.1568961E-005  0.3048944E+04  0.7818608E-02  0.8229891E-01
          2   -1    0    0  501    0  0.00000000000E+00  0.00000000000E+00  0.16356415663E+04  0.16356415663E+04  0.00000000000E+00 0. -1.
         -2   -1    0    0    0  501 -0.00000000000E+00 -0.00000000000E+00 -0.14208586716E+04  0.14208586716E+04  0.00000000000E+00 0.  1.
         23    2    1    2    0    0 -0.68143819028E+03  0.13514318954E+04  0.27848871184E+03  0.15416455894E+04  0.91591404984E+02 0.  0.
         13    1    3    3    0    0 -0.62341985127E+02  0.11937562557E+03  0.51736900687E+02  0.14426978194E+03  0.00000000000E+00 0. -1.
        -13    1    3    3    0    0 -0.61909620515E+03  0.12320562698E+04  0.22675181116E+03  0.13973758074E+04  0.00000000000E+00 0.  1.
         22    1    1    2    0    0  0.68143819028E+03 -0.13514318954E+04 -0.63705817065E+02  0.15148546485E+04  0.00000000000E+00 0.  1.
<mgrwt>
<rscale>  0 0.30489444E+04</rscale>
<asrwt>0</asrwt>
<pdfrwt beam="1">  1        2 0.25163716E+00 0.30489444E+04</pdfrwt>
<pdfrwt beam="2">  1       -2 0.21859364E+00 0.30489444E+04</pdfrwt>
<totfact> 0.91628332E-01</totfact>
</mgrwt>
</event>
<event>
 6    1  0.1822608E-005  0.3548700E+04  0.7818608E-02  0.8102345E-01
          2   -1    0    0  501    0  0.00000000000E+00  0.00000000000E+00  0.25206795895E+04  0.25206795895E+04  0.00000000000E+00 0. -1.
         -2   -1    0    0    0  501 -0.00000000000E+00 -0.00000000000E+00 -0.12489953341E+04  0.12489953341E+04  0.00000000000E+00 0.  1.
         23    2    1    2    0    0  0.90081757857E+03 -0.39506297872E+03 -0.93093960293E+03  0.13573940676E+04  0.91230715766E+02 0.  0.
         13    1    3    3    0    0  0.57314969634E+03 -0.29017847565E+03 -0.57148062366E+03  0.85982220567E+03  0.00000000000E+00 0. -1.
        -13    1    3    3    0    0  0.32766788223E+03 -0.10488450307E+03 -0.35945897926E+03  0.49757186194E+03  0.00000000000E+00 0.  1.
         22    1    1    2    0    0 -0.90081757857E+03  0.39506297872E+03  0.22026238584E+04  0.24122808560E+04  0.00000000000E+00 0. -1.
<mgrwt>
<rscale>  0 0.35486995E+04</rscale>
<asrwt>0</asrwt>
<pdfrwt beam="1">  1        2 0.38779686E+00 0.35486995E+04</pdfrwt>
<pdfrwt beam="2">  1       -2 0.19215313E+00 0.35486995E+04</pdfrwt>
<totfact> 0.41548677E-01</totfact>
</mgrwt>
</event>
<event>
 6    1  0.1568961E-005  0.1325093E+04  0.7818608E-02  0.9009899E-01
         -1   -1    0    0    0  501 -0.00000000000E+00  0.00000000000E+00  0.59658088973E+03  0.59658088973E+03  0.00000000000E+00 0.  1.
          1   -1    0    0  501    0  0.00000000000E+00 -0.00000000000E+00 -0.73580664420E+03  0.73580664420E+03  0.00000000000E+00 0. -1.
         23    2    1    2    0    0  0.57220327207E+03  0.12298041179E+03  0.23535890690E+03  0.63751025355E+03  0.92112659662E+02 0.  0.
         11    1    3    3    0    0  0.11460543590E+03  0.12991684095E+02  0.10192705503E+02  0.11578895042E+03  0.00000000000E+00 0. -1.
        -11    1    3    3    0    0  0.45759783617E+03  0.10998872769E+03  0.22516620140E+03  0.52172130313E+03  0.00000000000E+00 0.  1.
         22    1    1    2    0    0 -0.57220327207E+03 -0.12298041179E+03 -0.37458466137E+03  0.69487728038E+03  0.00000000000E+00 0. -1.
<mgrwt>
<rscale>  0 0.13250935E+04</rscale>
<asrwt>0</asrwt>
<pdfrwt beam="1">  1        1 0.11320102E+00 0.13250935E+04</pdfrwt>
<pdfrwt beam="2">  1       -1 0.91781675E-01 0.13250935E+04</pdfrwt>
<totfact> 0.28632815E+01</totfact>
</mgrwt>
</event>
<event>
 6    1  0.1568961E-005  0.4613738E+04  0.7818608E-02  0.7891022E-01
         -1   -1    0    0    0  501 -0.00000000000E+00  0.00000000000E+00  0.50728614259E+04  0.50728614259E+04  0.00000000000E+00 0.  1.
          1   -1    0    0  501    0  0.00000000000E+00 -0.00000000000E+00 -0.10490418462E+04  0.10490418462E+04  0.00000000000E+00 0. -1.
         23    2    1    2    0    0 -0.99179964965E+03 -0.30742437590E+03 -0.71930402891E+03  0.12664529471E+04  0.91260557305E+02 0.  0.
         11    1    3    3    0    0 -0.69984872212E+03 -0.17366281437E+03 -0.48779997764E+03  0.87057212518E+03  0.00000000000E+00 0. -1.
        -11    1    3    3    0    0 -0.29195092753E+03 -0.13376156153E+03 -0.23150405127E+03  0.39588082194E+03  0.00000000000E+00 0.  1.
         22    1    1    2    0    0  0.99179964965E+03  0.30742437590E+03  0.47431236086E+04  0.48554503250E+04  0.00000000000E+00 0.  1.
<mgrwt>
<rscale>  0 0.46137377E+04</rscale>
<asrwt>0</asrwt>
<pdfrwt beam="1">  1        1 0.16139106E+00 0.46137377E+04</pdfrwt>
<pdfrwt beam="2">  1       -1 0.78044020E+00 0.46137377E+04</pdfrwt>
<totfact> 0.93652281E-04</totfact>
</mgrwt>
</event>
<event>
 6    1  0.1568961E-005  0.2874950E+04  0.7818608E-02  0.8280370E-01
         -1   -1    0    0    0  501 -0.00000000000E+00  0.00000000000E+00  0.90473251625E+03  0.90473251625E+03  0.00000000000E+00 0.  1.
          1   -1    0    0  501    0  0.00000000000E+00 -0.00000000000E+00 -0.22839167877E+04  0.22839167877E+04  0.00000000000E+00 0. -1.
         23    2    1    2    0    0 -0.30422298575E+02  0.12979450626E+04 -0.10035725145E+02  0.13018120975E+04  0.95011155597E+02 0.  0.
         13    1    3    3    0    0  0.82264229221E+01  0.56095152959E+02  0.16600228593E+02  0.59075441674E+02  0.00000000000E+00 0. -1.
        -13    1    3    3    0    0 -0.38648721497E+02  0.12418499096E+04 -0.26635953738E+02  0.12427366558E+04  0.00000000000E+00 0.  1.
         22    1    1    2    0    0  0.30422298575E+02 -0.12979450626E+04 -0.13691485463E+04  0.18868372065E+04  0.00000000000E+00 0. -1.
<mgrwt>
<rscale>  0 0.28749496E+04</rscale>
<asrwt>0</asrwt>
<pdfrwt beam="1">  1        1 0.35137181E+00 0.28749496E+04</pdfrwt>
<pdfrwt beam="2">  1       -1 0.13918962E+00 0.28749496E+04</pdfrwt>
<totfact> 0.69865614E-01</totfact>
</mgrwt>
</event>
<event>
 6    1  0.1568961E-005  0.1421866E+04  0.7818608E-02  0.8938141E-01
         -2   -1    0    0    0  501 -0.00000000000E+00  0.00000000000E+00  0.15071808835E+03  0.15071808835E+03  0.00000000000E+00 0.  1.
          2   -1    0    0  501    0  0.00000000000E+00 -0.00000000000E+00 -0.33534519882E+04  0.33534519882E+04  0.00000000000E+00 0. -1.
         23    2    1    2    0    0  0.54477916227E+03 -0.14104528919E+03 -0.54976640422E+03  0.79217548915E+03  0.92848247986E+02 0.  0.
         13    1    3    3    0    0  0.22150912014E+03 -0.11024496280E+02 -0.20565194154E+03  0.30245751914E+03  0.00000000000E+00 0. -1.
        -13    1    3    3    0    0  0.32327004213E+03 -0.13002079291E+03 -0.34411446268E+03  0.48971797001E+03  0.00000000000E+00 0.  1.
         22    1    1    2    0    0 -0.54477916227E+03  0.14104528919E+03 -0.26529674956E+04  0.27119945874E+04  0.00000000000E+00 0. -1.
<mgrwt>
<rscale>  0 0.14218662E+04</rscale>
<asrwt>0</asrwt>
<pdfrwt beam="1">  1        2 0.51591565E+00 0.14218662E+04</pdfrwt>
<pdfrwt beam="2">  1       -2 0.23187400E-01 0.14218662E+04</pdfrwt>
<totfact> 0.16607526E+01</totfact>
</mgrwt>
</event>
<event>
 6    1  0.1568961E-005  0.2476768E+04  0.7818608E-02  0.8411309E-01
          2   -1    0    0  501    0  0.00000000000E+00  0.00000000000E+00  0.17428947872E+04  0.17428947872E+04  0.00000000000E+00 0. -1.
         -2   -1    0    0    0  501 -0.00000000000E+00 -0.00000000000E+00 -0.87991284638E+03  0.87991284638E+03  0.00000000000E+00 0.  1.
         23    2    1    2    0    0 -0.65472919881E+03  0.99563645688E+03  0.78224800550E+03  0.14284541489E+04  0.92774108925E+02 0.  0.
         13    1    3    3    0    0 -0.19366017650E+03  0.37233819133E+03  0.28845536186E+03  0.50926072740E+03  0.00000000000E+00 0. -1.
        -13    1    3    3    0    0 -0.46106902231E+03  0.62329826555E+03  0.49379264364E+03  0.91919342148E+03  0.00000000000E+00 0.  1.
         22    1    1    2    0    0  0.65472919881E+03 -0.99563645688E+03  0.80733935287E+02  0.11943534847E+04  0.00000000000E+00 0. -1.
<mgrwt>
<rscale>  0 0.24767685E+04</rscale>
<asrwt>0</asrwt>
<pdfrwt beam="1">  1        2 0.26813766E+00 0.24767685E+04</pdfrwt>
<pdfrwt beam="2">  1       -2 0.13537121E+00 0.24767685E+04</pdfrwt>
<totfact> 0.32499498E+00</totfact>
</mgrwt>
</event>
<event>
 6    1  0.1568961E-005  0.2578056E+04  0.7818608E-02  0.8375693E-01
         -2   -1    0    0    0  501 -0.00000000000E+00  0.00000000000E+00  0.49758435799E+03  0.49758435799E+03  0.00000000000E+00 0.  1.
          2   -1    0    0  501    0  0.00000000000E+00 -0.00000000000E+00 -0.33393199668E+04  0.33393199668E+04  0.00000000000E+00 0. -1.
         23    2    1    2    0    0 -0.53376984791E+03 -0.10698751673E+04 -0.21303007493E+04  0.24456161866E+04  0.11538685025E+03 0.  0.
         11    1    3    3    0    0 -0.44626116941E+03 -0.88196367404E+03 -0.16661800146E+04  0.19373086472E+04  0.00000000000E+00 0. -1.
        -11    1    3    3    0    0 -0.87508678496E+02 -0.18791149329E+03 -0.46412073476E+03  0.50830753935E+03  0.00000000000E+00 0.  1.
         22    1    1    2    0    0  0.53376984791E+03  0.10698751673E+04 -0.71143485945E+03  0.13912881382E+04  0.00000000000E+00 0.  1.
<mgrwt>
<rscale>  0 0.25780562E+04</rscale>
<asrwt>0</asrwt>
<pdfrwt beam="1">  1        2 0.51374155E+00 0.25780562E+04</pdfrwt>
<pdfrwt beam="2">  1       -2 0.76551437E-01 0.25780562E+04</pdfrwt>
<totfact> 0.14178988E+00</totfact>
</mgrwt>
</event>
<event>
 6    1  0.1568961E-005  0.5871445E+03  0.7818608E-02  0.9932442E-01
         -2   -1    0    0    0  501 -0.00000000000E+00  0.00000000000E+00  0.72172194232E+02  0.72172194232E+02  0.00000000000E+00 0.  1.
          2   -1    0    0  501    0  0.00000000000E+00 -0.00000000000E+00 -0.11941532797E+04  0.11941532797E+04  0.00000000000E+00 0. -1.
         23    2    1    2    0    0  0.16237584053E+01 -0.20002483136E+03 -0.13014592432E+03  0.25452037578E+03  0.88487797582E+02 0.  0.
         13    1    3    3    0    0  0.40156605727E+02 -0.74124958600E+02 -0.70841334855E+02  0.11011610779E+03  0.00000000000E+00 0.  1.
        -13    1    3    3    0    0 -0.38532847321E+02 -0.12589987276E+03 -0.59304589466E+02  0.14440426799E+03  0.00000000000E+00 0. -1.
         22    1    1    2    0    0 -0.16237584053E+01  0.20002483136E+03 -0.99183516110E+03  0.10118050981E+04  0.00000000000E+00 0. -1.
<mgrwt>
<rscale>  0 0.58714449E+03</rscale>
<asrwt>0</asrwt>
<pdfrwt beam="1">  1        2 0.18371590E+00 0.58714449E+03</pdfrwt>
<pdfrwt beam="2">  1       -2 0.11103414E-01 0.58714449E+03</pdfrwt>
<totfact> 0.11174274E+03</totfact>
</mgrwt>
</event>
<event>
 6    1  0.1568961E-005  0.3347266E+04  0.7818608E-02  0.8150972E-01
          2   -1    0    0  501    0  0.00000000000E+00  0.00000000000E+00  0.19260705845E+04  0.19260705845E+04  0.00000000000E+00 0. -1.
         -2   -1    0    0    0  501 -0.00000000000E+00 -0.00000000000E+00 -0.14542806324E+04  0.14542806324E+04  0.00000000000E+00 0.  1.
         23    2    1    2    0    0  0.12684368466E+04 -0.10756684209E+04  0.58692079112E+02  0.16666871780E+04  0.91688622096E+02 0.  0.
         11    1    3    3    0    0  0.86758556539E+03 -0.75664427718E+03  0.79830012229E+02  0.11539445855E+04  0.00000000000E+00 0. -1.
        -11    1    3    3    0    0  0.40085128126E+03 -0.31902414375E+03 -0.21137933118E+02  0.51274259253E+03  0.00000000000E+00 0.  1.
         22    1    1    2    0    0 -0.12684368466E+04  0.10756684209E+04  0.41309787295E+03  0.17136640389E+04  0.00000000000E+00 0. -1.
<mgrwt>
<rscale>  0 0.33472658E+04</rscale>
<asrwt>0</asrwt>
<pdfrwt beam="1">  1        2 0.29631855E+00 0.33472658E+04</pdfrwt>
<pdfrwt beam="2">  1       -2 0.22373548E+00 0.33472658E+04</pdfrwt>
<totfact> 0.57202512E-01</totfact>
</mgrwt>
</event>
<event>
 6    1  0.1568961E-005  0.3201178E+04  0.7818608E-02  0.8188506E-01
          2   -1    0    0  501    0  0.00000000000E+00  0.00000000000E+00  0.22387981367E+04  0.22387981367E+04  0.00000000000E+00 0. -1.
         -2   -1    0    0    0  501 -0.00000000000E+00 -0.00000000000E+00 -0.11443127975E+04  0.11443127975E+04  0.00000000000E+00 0.  1.
         23    2    1    2    0    0  0.15290451109E+04 -0.32109567657E+03  0.18695448537E+03  0.15762646111E+04  0.92610797310E+02 0.  0.
         13    1    3    3    0    0  0.70795738560E+03 -0.19171096693E+03  0.10678732897E+03  0.74118842968E+03  0.00000000000E+00 0. -1.
        -13    1    3    3    0    0  0.82108772532E+03 -0.12938470964E+03  0.80167156403E+02  0.83507618139E+03  0.00000000000E+00 0.  1.
         22    1    1    2    0    0 -0.15290451109E+04  0.32109567657E+03  0.90753085385E+03  0.18068463231E+04  0.00000000000E+00 0. -1.
<mgrwt>
<rscale>  0 0.32011781E+04</rscale>
<asrwt>0</asrwt>
<pdfrwt beam="1">  1        2 0.34443048E+00 0.32011781E+04</pdfrwt>
<pdfrwt beam="2">  1       -2 0.17604812E+00 0.32011781E+04</pdfrwt>
<totfact> 0.79864561E-01</totfact>
</mgrwt>
</event>
<event>
 6    1  0.1568961E-005  0.3492326E+04  0.7818608E-02  0.8115611E-01
         -1   -1    0    0    0  501 -0.00000000000E+00  0.00000000000E+00  0.10639610148E+04  0.10639610148E+04  0.00000000000E+00 0.  1.
          1   -1    0    0  501    0  0.00000000000E+00 -0.00000000000E+00 -0.28657861101E+04  0.28657861101E+04  0.00000000000E+00 0. -1.
         23    2    1    2    0    0  0.26105079050E+03 -0.16650688170E+04 -0.14103690233E+04  0.21994756037E+04  0.89165402427E+02 0.  0.
         13    1    3    3    0    0  0.18620927358E+03 -0.10552639993E+04 -0.84687821862E+03  0.13658179670E+04  0.00000000000E+00 0. -1.
        -13    1    3    3    0    0  0.74841516913E+02 -0.60980481768E+03 -0.56349080466E+03  0.83365763671E+03  0.00000000000E+00 0.  1.
         22    1    1    2    0    0 -0.26105079050E+03  0.16650688170E+04 -0.39145607209E+03  0.17302715212E+04  0.00000000000E+00 0.  1.
<mgrwt>
<rscale>  0 0.34923257E+04</rscale>
<asrwt>0</asrwt>
<pdfrwt beam="1">  1        1 0.44089016E+00 0.34923257E+04</pdfrwt>
<pdfrwt beam="2">  1       -1 0.16368632E+00 0.34923257E+04</pdfrwt>
<totfact> 0.16722985E-01</totfact>
</mgrwt>
</event>
<event>
 6    1  0.1568961E-005  0.1593863E+04  0.7818608E-02  0.8824327E-01
          2   -1    0    0  501    0  0.00000000000E+00  0.00000000000E+00  0.24293996375E+04  0.24293996375E+04  0.00000000000E+00 0. -1.
         -2   -1    0    0    0  501 -0.00000000000E+00 -0.00000000000E+00 -0.26142251416E+03  0.26142251416E+03  0.00000000000E+00 0.  1.
         23    2    1    2    0    0  0.57381709255E+03 -0.39682614110E+03  0.44420854074E+03  0.83122134280E+03  0.82889390708E+02 0.  0.
         13    1    3    3    0    0  0.86274200570E+02 -0.59459247246E+02  0.33609089007E+02  0.11003731472E+03  0.00000000000E+00 0. -1.
        -13    1    3    3    0    0  0.48754289198E+03 -0.33736689386E+03  0.41059945174E+03  0.72118402808E+03  0.00000000000E+00 0.  1.
         22    1    1    2    0    0 -0.57381709255E+03  0.39682614110E+03  0.17237685825E+04  0.18596008088E+04  0.00000000000E+00 0. -1.
<mgrwt>
<rscale>  0 0.15938629E+04</rscale>
<asrwt>0</asrwt>
<pdfrwt beam="1">  1        2 0.37375378E+00 0.15938629E+04</pdfrwt>
<pdfrwt beam="2">  1       -2 0.40218850E-01 0.15938629E+04</pdfrwt>
<totfact> 0.21504406E+01</totfact>
</mgrwt>
</event>
<event>
 6    1  0.1568961E-005  0.3348134E+04  0.7818608E-02  0.8150755E-01
          2   -1    0    0  501    0  0.00000000000E+00  0.00000000000E+00  0.24603639494E+04  0.24603639494E+04  0.00000000000E+00 0. -1.
         -2   -1    0    0    0  501 -0.00000000000E+00 -0.00000000000E+00 -0.11390593299E+04  0.11390593299E+04  0.00000000000E+00 0.  1.
         23    2    1    2    0    0  0.16611868115E+04  0.13880389357E+03  0.81097227555E+03  0.18560795826E+04  0.92451293258E+02 0.  0.
         11    1    3    3    0    0  0.10101424111E+04  0.12506809951E+03  0.51650839599E+03  0.11414073082E+04  0.00000000000E+00 0. -1.
        -11    1    3    3    0    0  0.65104440048E+03  0.13735794065E+02  0.29446387956E+03  0.71467227441E+03  0.00000000000E+00 0.  1.
         22    1    1    2    0    0 -0.16611868115E+04 -0.13880389357E+03  0.51033234396E+03  0.17433436968E+04  0.00000000000E+00 0. -1.
<mgrwt>
<rscale>  0 0.33481341E+04</rscale>
<asrwt>0</asrwt>
<pdfrwt beam="1">  1        2 0.37851753E+00 0.33481341E+04</pdfrwt>
<pdfrwt beam="2">  1       -2 0.17523990E+00 0.33481341E+04</pdfrwt>
<totfact> 0.59748607E-01</totfact>
</mgrwt>
</event>
<event>
 6    1  0.1568961E-005  0.2856350E+04  0.7818608E-02  0.8285984E-01
         -1   -1    0    0    0  501 -0.00000000000E+00  0.00000000000E+00  0.15837308942E+04  0.15837308942E+04  0.00000000000E+00 0. -1.
          1   -1    0    0  501    0  0.00000000000E+00 -0.00000000000E+00 -0.12878982803E+04  0.12878982803E+04  0.00000000000E+00 0.  1.
         23    2    1    2    0    0  0.28060620133E+03  0.62963848373E+03 -0.11077478333E+04  0.13079084409E+04  0.91294946172E+02 0.  0.
         11    1    3    3    0    0  0.16171399365E+02  0.89657405699E+01 -0.50116262521E+02  0.53418521418E+02  0.00000000000E+00 0.  1.
        -11    1    3    3    0    0  0.26443480196E+03  0.62067274316E+03 -0.10576315708E+04  0.12544899195E+04  0.00000000000E+00 0. -1.
         22    1    1    2    0    0 -0.28060620133E+03 -0.62963848373E+03  0.14035804473E+04  0.15637207336E+04  0.00000000000E+00 0. -1.
<mgrwt>
<rscale>  0 0.28563503E+04</rscale>
<asrwt>0</asrwt>
<pdfrwt beam="1">  1        1 0.19813820E+00 0.28563503E+04</pdfrwt>
<pdfrwt beam="2">  1       -1 0.24365091E+00 0.28563503E+04</pdfrwt>
<totfact> 0.60996297E-01</totfact>
</mgrwt>
</event>
<event>
 6    1  0.1568961E-005  0.5643564E+04  0.7818608E-02  0.7736238E-01
          2   -1    0    0  501    0  0.00000000000E+00  0.00000000000E+00  0.27170672900E+04  0.27170672900E+04  0.00000000000E+00 0. -1.
         -2   -1    0    0    0  501 -0.00000000000E+00 -0.00000000000E+00 -0.29305325063E+04  0.29305325063E+04  0.00000000000E+00 0.  1.
         23    2    1    2    0    0 -0.24596773712E+04 -0.10238139809E+04  0.82105100099E+03  0.27895529734E+04  0.96297494461E+02 0.  0.
         13    1    3    3    0    0 -0.10853271163E+04 -0.42095501869E+03  0.39886195078E+03  0.12305400980E+04  0.00000000000E+00 0. -1.
        -13    1    3    3    0    0 -0.13743502549E+04 -0.60285896218E+03  0.42218905021E+03  0.15590128754E+04  0.00000000000E+00 0.  1.
         22    1    1    2    0    0  0.24596773712E+04  0.10238139809E+04 -0.10345162173E+04  0.28580468228E+04  0.00000000000E+00 0. -1.
<mgrwt>
<rscale>  0 0.56435641E+04</rscale>
<asrwt>0</asrwt>
<pdfrwt beam="1">  1        2 0.41801035E+00 0.56435641E+04</pdfrwt>
<pdfrwt beam="2">  1       -2 0.45085115E+00 0.56435641E+04</pdfrwt>
<totfact> 0.61752268E-03</totfact>
</mgrwt>
</event>
<event>
 6    1  0.1568961E-005  0.7582432E+03  0.7818608E-02  0.9622506E-01
          1   -1    0    0  501    0  0.00000000000E+00  0.00000000000E+00  0.13841760178E+04  0.13841760178E+04  0.00000000000E+00 0. -1.
         -1   -1    0    0    0  501 -0.00000000000E+00 -0.00000000000E+00 -0.10384025254E+03  0.10384025254E+03  0.00000000000E+00 0.  1.
         23    2    1    2    0    0  0.43014934429E+02 -0.35516568371E+03  0.44482883611E+03  0.57913521315E+03  0.97631727472E+02 0.  0.
         13    1    3    3    0    0 -0.10260942408E+02 -0.18131809209E+03  0.16469775801E+03  0.24516706335E+03  0.00000000000E+00 0.  1.
        -13    1    3    3    0    0  0.53275876838E+02 -0.17384759162E+03  0.28013107810E+03  0.33396814980E+03  0.00000000000E+00 0. -1.
         22    1    1    2    0    0 -0.43014934429E+02  0.35516568371E+03  0.83550692913E+03  0.90888105717E+03  0.00000000000E+00 0. -1.
<mgrwt>
<rscale>  0 0.75824320E+03</rscale>
<asrwt>0</asrwt>
<pdfrwt beam="1">  1        1 0.21295014E+00 0.75824320E+03</pdfrwt>
<pdfrwt beam="2">  1       -1 0.15975424E-01 0.75824320E+03</pdfrwt>
<totfact> 0.23761505E+02</totfact>
</mgrwt>
</event>
<event>
 6    1  0.1568961E-005  0.1262667E+04  0.7818608E-02  0.9059706E-01
         -2   -1    0    0    0  501 -0.00000000000E+00  0.00000000000E+00  0.21941649056E+03  0.21941649056E+03  0.00000000000E+00 0.  1.
          2   -1    0    0  501    0  0.00000000000E+00 -0.00000000000E+00 -0.18165537804E+04  0.18165537804E+04  0.00000000000E+00 0. -1.
         23    2    1    2    0    0  0.23197523947E+03 -0.24195115155E+03 -0.16590836458E+04  0.16951034018E+04  0.92000692696E+02 0.  0.
         11    1    3    3    0    0  0.98132791398E+02 -0.16401250832E+03 -0.83544068728E+03  0.85702467269E+03  0.00000000000E+00 0. -1.
        -11    1    3    3    0    0  0.13384244807E+03 -0.77938643228E+02 -0.82364295855E+03  0.83807872911E+03  0.00000000000E+00 0.  1.
         22    1    1    2    0    0 -0.23197523947E+03  0.24195115155E+03  0.61946356002E+02  0.34086686915E+03  0.00000000000E+00 0.  1.
<mgrwt>
<rscale>  0 0.12626668E+04</rscale>
<asrwt>0</asrwt>
<pdfrwt beam="1">  1        2 0.27946981E+00 0.12626668E+04</pdfrwt>
<pdfrwt beam="2">  1       -2 0.33756383E-01 0.12626668E+04</pdfrwt>
<totfact> 0.68159294E+01</totfact>
</mgrwt>
</event>
<event>
 6    1  0.1568961E-005  0.1962348E+04  0.7818608E-02  0.8624429E-01
         -2   -1    0    0    0  501 -0.00000000000E+00  0.00000000000E+00  0.79468492244E+03  0.79468492244E+03  0.00000000000E+00 0.  1.
          2   -1    0    0  501    0  0.00000000000E+00 -0.00000000000E+00 -0.12114266996E+04  0.12114266996E+04  0.00000000000E+00 0. -1.
         23    2    1    2    0    0  0.91661080150E+03  0.33350166597E+03 -0.11996113306E+03  0.98656394126E+03  0.86712248887E+02 0.  0.
         11    1    3    3    0    0  0.34265685872E+03  0.11949186908E+03 -0.86698410381E+02  0.37310674607E+03  0.00000000000E+00 0. -1.
        -11    1    3    3    0    0  0.57395394278E+03  0.21400979689E+03 -0.33262722683E+02  0.61345719518E+03  0.00000000000E+00 0.  1.
         22    1    1    2    0    0 -0.91661080150E+03 -0.33350166597E+03 -0.29678064406E+03  0.10195476808E+04  0.00000000000E+00 0.  1.
<mgrwt>
<rscale>  0 0.19623481E+04</rscale>
<asrwt>0</asrwt>
<pdfrwt beam="1">  1        2 0.18637334E+00 0.19623481E+04</pdfrwt>
<pdfrwt beam="2">  1       -2 0.12225922E+00 0.19623481E+04</pdfrwt>
<totfact> 0.88084617E+00</totfact>
</mgrwt>
</event>
<event>
 6    1  0.1568961E-005  0.1422611E+04  0.7818608E-02  0.8937612E-01
          2   -1    0    0  501    0  0.00000000000E+00  0.00000000000E+00  0.66132360141E+03  0.66132360141E+03  0.00000000000E+00 0. -1.
         -2   -1    0    0    0  501 -0.00000000000E+00 -0.00000000000E+00 -0.76506512801E+03  0.76506512801E+03  0.00000000000E+00 0.  1.
         23    2    1    2    0    0 -0.32456362060E+02 -0.70280284192E+03  0.31411484355E+02  0.70997293784E+03  0.89942431913E+02 0.  0.
         13    1    3    3    0    0 -0.10357546289E+02 -0.24077922493E+03  0.53595592409E+02  0.24688945188E+03  0.00000000000E+00 0. -1.
        -13    1    3    3    0    0 -0.22098815771E+02 -0.46202361699E+03 -0.22184108054E+02  0.46308348596E+03  0.00000000000E+00 0.  1.
         22    1    1    2    0    0  0.32456362060E+02  0.70280284192E+03 -0.13515301095E+03  0.71641579158E+03  0.00000000000E+00 0. -1.
<mgrwt>
<rscale>  0 0.14226112E+04</rscale>
<asrwt>0</asrwt>
<pdfrwt beam="1">  1        2 0.10174209E+00 0.14226112E+04</pdfrwt>
<pdfrwt beam="2">  1       -2 0.11770233E+00 0.14226112E+04</pdfrwt>
<totfact> 0.23817849E+01</totfact>
</mgrwt>
</event>
<event>
 6    1  0.1568961E-005  0.1628545E+04  0.7818608E-02  0.8803201E-01
          2   -1    0    0  501    0  0.00000000000E+00  0.00000000000E+00  0.17183125054E+04  0.17183125054E+04  0.00000000000E+00 0.  1.
         -2   -1    0    0    0  501 -0.00000000000E+00 -0.00000000000E+00 -0.38586660020E+03  0.38586660020E+03  0.00000000000E+00 0. -1.
         23    2    1    2    0    0 -0.59531845643E+03  0.27216104888E+03  0.12884612543E+04  0.14481224384E+04  0.91926555639E+02 0.  0.
         11    1    3    3    0    0 -0.35122171700E+03  0.16689095788E+03  0.66485956435E+03  0.77022563358E+03  0.00000000000E+00 0.  1.
        -11    1    3    3    0    0 -0.24409673943E+03  0.10527009100E+03  0.62360168995E+03  0.67789680481E+03  0.00000000000E+00 0. -1.
         22    1    1    2    0    0  0.59531845643E+03 -0.27216104888E+03  0.43984650916E+02  0.65605666723E+03  0.00000000000E+00 0. -1.
<mgrwt>
<rscale>  0 0.16285446E+04</rscale>
<asrwt>0</asrwt>
<pdfrwt beam="1">  1        2 0.26435577E+00 0.16285446E+04</pdfrwt>
<pdfrwt beam="2">  1       -2 0.59364093E-01 0.16285446E+04</pdfrwt>
<totfact> 0.24277709E+01</totfact>
</mgrwt>
</event>
<event>
 6    1  0.1568961E-005  0.1871431E+04  0.7818608E-02  0.8669209E-01
          1   -1    0    0  501    0  0.00000000000E+00  0.00000000000E+00  0.14574194739E+04  0.14574194739E+04  0.00000000000E+00 0. -1.
         -1   -1    0    0    0  501 -0.00000000000E+00 -0.00000000000E+00 -0.60076264347E+03  0.60076264347E+03  0.00000000000E+00 0.  1.
         23    2    1    2    0    0 -0.49626270243E+03  0.47512971227E+03  0.11243614336E+04  0.13208282893E+04  0.91508595864E+02 0.  0.
         13    1    3    3    0    0 -0.18192654492E+03  0.12095740068E+03  0.32110479837E+03  0.38837643088E+03  0.00000000000E+00 0. -1.
        -13    1    3    3    0    0 -0.31433615751E+03  0.35417231160E+03  0.80325663518E+03  0.93245185838E+03  0.00000000000E+00 0.  1.
         22    1    1    2    0    0  0.49626270243E+03 -0.47512971227E+03 -0.26770460313E+03  0.73735382812E+03  0.00000000000E+00 0.  1.
<mgrwt>
<rscale>  0 0.18714307E+04</rscale>
<asrwt>0</asrwt>
<pdfrwt beam="1">  1        1 0.22421838E+00 0.18714307E+04</pdfrwt>
<pdfrwt beam="2">  1       -1 0.92425022E-01 0.18714307E+04</pdfrwt>
<totfact> 0.74794145E+00</totfact>
</mgrwt>
</event>
<event>
 6    1  0.1568961E-005  0.1090182E+04  0.7818608E-02  0.9214815E-01
         -2   -1    0    0    0  501 -0.00000000000E+00  0.00000000000E+00  0.12835806192E+03  0.12835806192E+03  0.00000000000E+00 0.  1.
          2   -1    0    0  501    0  0.00000000000E+00 -0.00000000000E+00 -0.23148054101E+04  0.23148054101E+04  0.00000000000E+00 0. -1.
         23    2    1    2    0    0 -0.11538149877E+03 -0.46930699784E+03 -0.16464867950E+04  0.17185122819E+04  0.93828290804E+02 0.  0.
         11    1    3    3    0    0 -0.58677267930E+02 -0.23662385047E+03 -0.99404835016E+03  0.10235067127E+04  0.00000000000E+00 0.  1.
        -11    1    3    3    0    0 -0.56704230840E+02 -0.23268314737E+03 -0.65243844488E+03  0.69500556921E+03  0.00000000000E+00 0. -1.
         22    1    1    2    0    0  0.11538149877E+03  0.46930699784E+03 -0.53996055317E+03  0.72465119020E+03  0.00000000000E+00 0.  1.
<mgrwt>
<rscale>  0 0.10901815E+04</rscale>
<asrwt>0</asrwt>
<pdfrwt beam="1">  1        2 0.35612390E+00 0.10901815E+04</pdfrwt>
<pdfrwt beam="2">  1       -2 0.19747395E-01 0.10901815E+04</pdfrwt>
<totfact> 0.97151371E+01</totfact>
</mgrwt>
</event>
<event>
 6    1  0.1568961E-005  0.2418899E+04  0.7818608E-02  0.8432462E-01
          1   -1    0    0  501    0  0.00000000000E+00  0.00000000000E+00  0.93436412099E+03  0.93436412099E+03  0.00000000000E+00 0. -1.
         -1   -1    0    0    0  501 -0.00000000000E+00 -0.00000000000E+00 -0.15655229480E+04  0.15655229480E+04  0.00000000000E+00 0.  1.
         23    2    1    2    0    0 -0.27704934493E+03  0.51783811304E+03 -0.14066317420E+04  0.15271225072E+04  0.92615568134E+02 0.  0.
         11    1    3    3    0    0 -0.10414746654E+03  0.24814562931E+03 -0.74242460525E+03  0.78969439824E+03  0.00000000000E+00 0.  1.
        -11    1    3    3    0    0 -0.17290187839E+03  0.26969248374E+03 -0.66420713680E+03  0.73742810898E+03  0.00000000000E+00 0. -1.
         22    1    1    2    0    0  0.27704934493E+03 -0.51783811304E+03  0.77547291499E+03  0.97276456182E+03  0.00000000000E+00 0. -1.
<mgrwt>
<rscale>  0 0.24188993E+04</rscale>
<asrwt>0</asrwt>
<pdfrwt beam="1">  1        1 0.14374833E+00 0.24188993E+04</pdfrwt>
<pdfrwt beam="2">  1       -1 0.24084968E+00 0.24188993E+04</pdfrwt>
<totfact> 0.12216442E+00</totfact>
</mgrwt>
</event>
<event>
 6    1  0.1568961E-005  0.2038764E+04  0.7818608E-02  0.8588709E-01
         -2   -1    0    0    0  501 -0.00000000000E+00  0.00000000000E+00  0.84015483553E+03  0.84015483553E+03  0.00000000000E+00 0.  1.
          2   -1    0    0  501    0  0.00000000000E+00 -0.00000000000E+00 -0.12368430876E+04  0.12368430876E+04  0.00000000000E+00 0. -1.
         23    2    1    2    0    0 -0.39422307037E+03 -0.69246838114E+03  0.44538216652E+03  0.91768481705E+03  0.94105584891E+02 0.  0.
         13    1    3    3    0    0 -0.14583327201E+03 -0.29827872288E+03  0.13832637974E+03  0.35968281455E+03  0.00000000000E+00 0.  1.
        -13    1    3    3    0    0 -0.24838979835E+03 -0.39418965826E+03  0.30705578678E+03  0.55800200250E+03  0.00000000000E+00 0. -1.
         22    1    1    2    0    0  0.39422307037E+03  0.69246838114E+03 -0.84207041862E+03  0.11593131061E+04  0.00000000000E+00 0. -1.
<mgrwt>
<rscale>  0 0.20387640E+04</rscale>
<asrwt>0</asrwt>
<pdfrwt beam="1">  1        2 0.19028355E+00 0.20387640E+04</pdfrwt>
<pdfrwt beam="2">  1       -2 0.12925459E+00 0.20387640E+04</pdfrwt>
<totfact> 0.73505706E+00</totfact>
</mgrwt>
</event>
<event>
 6    1  0.1568961E-005  0.4439809E+04  0.7818608E-02  0.7921260E-01
         -2   -1    0    0    0  501 -0.00000000000E+00  0.00000000000E+00  0.19663549995E+04  0.19663549995E+04  0.00000000000E+00 0. -1.
          2   -1    0    0  501    0  0.00000000000E+00 -0.00000000000E+00 -0.25061474886E+04  0.25061474886E+04  0.00000000000E+00 0.  1.
         23    2    1    2    0    0  0.81692398307E+03 -0.39375580631E+03  0.17700230762E+04  0.19910399406E+04  0.94074043756E+02 0.  0.
         11    1    3    3    0    0  0.35630231485E+03 -0.13957406336E+03  0.66695136326E+03  0.76893197338E+03  0.00000000000E+00 0.  1.
        -11    1    3    3    0    0  0.46062166822E+03 -0.25418174294E+03  0.11030717129E+04  0.12221079672E+04  0.00000000000E+00 0. -1.
         22    1    1    2    0    0 -0.81692398307E+03  0.39375580631E+03 -0.23098155653E+04  0.24814625475E+04  0.00000000000E+00 0.  1.
<mgrwt>
<rscale>  0 0.44398088E+04</rscale>
<asrwt>0</asrwt>
<pdfrwt beam="1">  1        2 0.38556115E+00 0.44398088E+04</pdfrwt>
<pdfrwt beam="2">  1       -2 0.30251615E+00 0.44398088E+04</pdfrwt>
<totfact> 0.80640773E-02</totfact>
</mgrwt>
</event>
<event>
 6    1  0.1970316E-005  0.4524897E+04  0.7818608E-02  0.7906292E-01
         -2   -1    0    0    0  501 -0.00000000000E+00  0.00000000000E+00  0.24147582206E+04  0.24147582206E+04  0.00000000000E+00 0.  1.
          2   -1    0    0  501    0  0.00000000000E+00 -0.00000000000E+00 -0.21197456725E+04  0.21197456725E+04  0.00000000000E+00 0. -1.
         23    2    1    2    0    0 -0.33867904849E+03 -0.11581347399E+04 -0.17691374300E+04  0.21435428508E+04  0.94599859526E+02 0.  0.
         11    1    3    3    0    0 -0.15943957026E+03 -0.62102612930E+03 -0.86457106931E+03  0.10763724094E+04  0.00000000000E+00 0.  1.
        -11    1    3    3    0    0 -0.17923947824E+03 -0.53710861060E+03 -0.90456636073E+03  0.10671704414E+04  0.00000000000E+00 0. -1.
         22    1    1    2    0    0  0.33867904849E+03  0.11581347399E+04  0.20641499781E+04  0.23909610423E+04  0.00000000000E+00 0.  1.
<mgrwt>
<rscale>  0 0.45248970E+04</rscale>
<asrwt>0</asrwt>
<pdfrwt beam="1">  1        2 0.32611472E+00 0.45248970E+04</pdfrwt>
<pdfrwt beam="2">  1       -2 0.37150127E+00 0.45248970E+04</pdfrwt>
<totfact> 0.49188134E-02</totfact>
</mgrwt>
</event>
<event>
 6    1  0.1568961E-005  0.6229368E+03  0.7818608E-02  0.9858930E-01
          3   -1    0    0  501    0  0.00000000000E+00  0.00000000000E+00  0.40939902302E+03  0.40939902302E+03  0.00000000000E+00 0. -1.
         -3   -1    0    0    0  501 -0.00000000000E+00 -0.00000000000E+00 -0.23696335756E+03  0.23696335756E+03  0.00000000000E+00 0.  1.
         23    2    1    2    0    0  0.17837232284E+03  0.86945550183E+02  0.32805825124E+03  0.39418267590E+03  0.91550813875E+02 0.  0.
         11    1    3    3    0    0  0.72080363127E+02  0.84766799998E+02  0.18609793204E+03  0.21682580437E+03  0.00000000000E+00 0. -1.
        -11    1    3    3    0    0  0.10629195971E+03  0.21787501842E+01  0.14196031919E+03  0.17735687153E+03  0.00000000000E+00 0.  1.
         22    1    1    2    0    0 -0.17837232284E+03 -0.86945550183E+02 -0.15562258578E+03  0.25217970469E+03  0.00000000000E+00 0.  1.
<mgrwt>
<rscale>  0 0.62293681E+03</rscale>
<asrwt>0</asrwt>
<pdfrwt beam="1">  1        3 0.62984465E-01 0.62293681E+03</pdfrwt>
<pdfrwt beam="2">  1       -3 0.36455901E-01 0.62293681E+03</pdfrwt>
<totfact> 0.48049350E+01</totfact>
</mgrwt>
</event>
<event>
 6    1  0.1568961E-005  0.1142567E+04  0.7818608E-02  0.9164668E-01
         -2   -1    0    0    0  501 -0.00000000000E+00  0.00000000000E+00  0.40685904383E+03  0.40685904383E+03  0.00000000000E+00 0.  1.
          2   -1    0    0  501    0  0.00000000000E+00 -0.00000000000E+00 -0.80215719511E+03  0.80215719511E+03  0.00000000000E+00 0. -1.
         23    2    1    2    0    0  0.49583485901E+03 -0.12012433813E+03  0.64126351620E+02  0.52246475661E+03  0.92602207887E+02 0.  0.
         11    1    3    3    0    0  0.26762177313E+03 -0.10096219153E+03  0.55962233090E+01  0.28608756577E+03  0.00000000000E+00 0.  1.
        -11    1    3    3    0    0  0.22821308588E+03 -0.19162146598E+02  0.58530128311E+02  0.23637719084E+03  0.00000000000E+00 0. -1.
         22    1    1    2    0    0 -0.49583485901E+03  0.12012433813E+03 -0.45942450290E+03  0.68655148233E+03  0.00000000000E+00 0. -1.
<mgrwt>
<rscale>  0 0.11425671E+04</rscale>
<asrwt>0</asrwt>
<pdfrwt beam="1">  1        2 0.12340880E+00 0.11425671E+04</pdfrwt>
<pdfrwt beam="2">  1       -2 0.62593699E-01 0.11425671E+04</pdfrwt>
<totfact> 0.80488010E+01</totfact>
</mgrwt>
</event>
<event>
 6    1  0.1568961E-005  0.9949327E+03  0.7818608E-02  0.9314120E-01
          1   -1    0    0  501    0  0.00000000000E+00  0.00000000000E+00  0.16528226303E+04  0.16528226303E+04  0.00000000000E+00 0. -1.
         -1   -1    0    0    0  501 -0.00000000000E+00 -0.00000000000E+00 -0.14972735529E+03  0.14972735529E+03  0.00000000000E+00 0.  1.
         23    2    1    2    0    0  0.16977494409E+03  0.34341494415E+03  0.13205104860E+04  0.13781744907E+04  0.94125594666E+02 0.  0.
         13    1    3    3    0    0  0.95220554727E+02  0.27130947991E+03  0.88752148133E+03  0.93293631496E+03  0.00000000000E+00 0. -1.
        -13    1    3    3    0    0  0.74554389358E+02  0.72105464241E+02  0.43298900466E+03  0.44523817570E+03  0.00000000000E+00 0.  1.
         22    1    1    2    0    0 -0.16977494409E+03 -0.34341494415E+03  0.18258478900E+03  0.42437549491E+03  0.00000000000E+00 0.  1.
<mgrwt>
<rscale>  0 0.99493268E+03</rscale>
<asrwt>0</asrwt>
<pdfrwt beam="1">  1        1 0.25428039E+00 0.99493268E+03</pdfrwt>
<pdfrwt beam="2">  1       -1 0.23034979E-01 0.99493268E+03</pdfrwt>
<totfact> 0.83044364E+01</totfact>
</mgrwt>
</event>
<event>
 6    1  0.1568961E-005  0.1246331E+04  0.7818608E-02  0.9073243E-01
         -1   -1    0    0    0  501 -0.00000000000E+00  0.00000000000E+00  0.50334602914E+03  0.50334602914E+03  0.00000000000E+00 0.  1.
          1   -1    0    0  501    0  0.00000000000E+00 -0.00000000000E+00 -0.77150741377E+03  0.77150741377E+03  0.00000000000E+00 0. -1.
         23    2    1    2    0    0  0.36496804812E+03 -0.13071959286E+02 -0.64703769715E+03  0.74862173306E+03  0.91674235268E+02 0.  0.
         11    1    3    3    0    0  0.33602789701E+03 -0.36876173431E+02 -0.56453469037E+03  0.65800761118E+03  0.00000000000E+00 0. -1.
        -11    1    3    3    0    0  0.28940151111E+02  0.23804214145E+02 -0.82503006777E+02  0.90614121883E+02  0.00000000000E+00 0.  1.
         22    1    1    2    0    0 -0.36496804812E+03  0.13071959286E+02  0.37887631252E+03  0.52623170985E+03  0.00000000000E+00 0.  1.
<mgrwt>
<rscale>  0 0.12463309E+04</rscale>
<asrwt>0</asrwt>
<pdfrwt beam="1">  1        1 0.11869345E+00 0.12463309E+04</pdfrwt>
<pdfrwt beam="2">  1       -1 0.77437851E-01 0.12463309E+04</pdfrwt>
<totfact> 0.38643267E+01</totfact>
</mgrwt>
</event>
<event>
 6    1  0.1568961E-005  0.1857706E+04  0.7818608E-02  0.8676200E-01
         -1   -1    0    0    0  501 -0.00000000000E+00  0.00000000000E+00  0.39490342642E+03  0.39490342642E+03  0.00000000000E+00 0.  1.
          1   -1    0    0  501    0  0.00000000000E+00 -0.00000000000E+00 -0.21847555815E+04  0.21847555815E+04  0.00000000000E+00 0. -1.
         23    2    1    2    0    0  0.44713131373E+03 -0.81002761284E+03 -0.85002074804E+03  0.12608132175E+04  0.10508830571E+03 0.  0.
         13    1    3    3    0    0  0.67022886249E+02 -0.10135814733E+03 -0.68731249894E+02  0.13960489255E+03  0.00000000000E+00 0. -1.
        -13    1    3    3    0    0  0.38010842748E+03 -0.70866946551E+03 -0.78128949814E+03  0.11212083249E+04  0.00000000000E+00 0.  1.
         22    1    1    2    0    0 -0.44713131373E+03  0.81002761284E+03 -0.93983140699E+03  0.13188457904E+04  0.00000000000E+00 0.  1.
<mgrwt>
<rscale>  0 0.18577055E+04</rscale>
<asrwt>0</asrwt>
<pdfrwt beam="1">  1        1 0.33611624E+00 0.18577055E+04</pdfrwt>
<pdfrwt beam="2">  1       -1 0.60754374E-01 0.18577055E+04</pdfrwt>
<totfact> 0.57579803E+00</totfact>
</mgrwt>
</event>
<event>
 6    1  0.1568961E-005  0.2330239E+04  0.7818608E-02  0.8466093E-01
          2   -1    0    0  501    0  0.00000000000E+00  0.00000000000E+00  0.64878876717E+03  0.64878876717E+03  0.00000000000E+00 0.  1.
         -2   -1    0    0    0  501 -0.00000000000E+00 -0.00000000000E+00 -0.20923656319E+04  0.20923656319E+04  0.00000000000E+00 0. -1.
         23    2    1    2    0    0 -0.32802014973E+03  0.83887132381E+03  0.14293087768E+03  0.91678899344E+03  0.93650980518E+02 0.  0.
         13    1    3    3    0    0 -0.52893960972E+02  0.22493112763E+03  0.11851906629E+02  0.23137037618E+03  0.00000000000E+00 0.  1.
        -13    1    3    3    0    0 -0.27512618876E+03  0.61394019618E+03  0.13107897105E+03  0.68541861725E+03  0.00000000000E+00 0. -1.
         22    1    1    2    0    0  0.32802014973E+03 -0.83887132381E+03 -0.15865077425E+04  0.18243654057E+04  0.00000000000E+00 0. -1.
<mgrwt>
<rscale>  0 0.23302389E+04</rscale>
<asrwt>0</asrwt>
<pdfrwt beam="1">  1        2 0.99813656E-01 0.23302389E+04</pdfrwt>
<pdfrwt beam="2">  1       -2 0.32190241E+00 0.23302389E+04</pdfrwt>
<totfact> 0.95043095E-01</totfact>
</mgrwt>
</event>
<event>
 6    1  0.1568961E-005  0.4579142E+04  0.7818608E-02  0.7896926E-01
         -2   -1    0    0    0  501 -0.00000000000E+00  0.00000000000E+00  0.18647494667E+04  0.18647494667E+04  0.00000000000E+00 0. -1.
          2   -1    0    0  501    0  0.00000000000E+00 -0.00000000000E+00 -0.28111741361E+04  0.28111741361E+04  0.00000000000E+00 0.  1.
         23    2    1    2    0    0  0.28606676350E+03  0.47889333444E+03 -0.27399632812E+04  0.27976388078E+04  0.90615108222E+02 0.  0.
         11    1    3    3    0    0  0.15266181915E+03  0.24555961605E+03 -0.16414235441E+04  0.16666962553E+04  0.00000000000E+00 0. -1.
        -11    1    3    3    0    0  0.13340494435E+03  0.23333371839E+03 -0.10985397370E+04  0.11309425525E+04  0.00000000000E+00 0.  1.
         22    1    1    2    0    0 -0.28606676350E+03 -0.47889333444E+03  0.17935386118E+04  0.18782847950E+04  0.00000000000E+00 0. -1.
<mgrwt>
<rscale>  0 0.45791420E+04</rscale>
<asrwt>0</asrwt>
<pdfrwt beam="1">  1        2 0.43248833E+00 0.45791420E+04</pdfrwt>
<pdfrwt beam="2">  1       -2 0.28688453E+00 0.45791420E+04</pdfrwt>
<totfact> 0.65510977E-02</totfact>
</mgrwt>
</event>
<event>
 6    1  0.1568961E-005  0.2853101E+04  0.7818608E-02  0.8286970E-01
          2   -1    0    0  501    0  0.00000000000E+00  0.00000000000E+00  0.99394251316E+03  0.99394251316E+03  0.00000000000E+00 0. -1.
         -2   -1    0    0    0  501 -0.00000000000E+00 -0.00000000000E+00 -0.20474488985E+04  0.20474488985E+04  0.00000000000E+00 0.  1.
         23    2    1    2    0    0 -0.65451617996E+02 -0.12066335308E+04  0.27821304320E+03  0.12431353041E+04  0.87945976905E+02 0.  0.
         13    1    3    3    0    0 -0.84339275871E+02 -0.10789151947E+04  0.24011946440E+03  0.11085253574E+04  0.00000000000E+00 0. -1.
        -13    1    3    3    0    0  0.18887657874E+02 -0.12771833614E+03  0.38093578793E+02  0.13460994671E+03  0.00000000000E+00 0.  1.
         22    1    1    2    0    0  0.65451617996E+02  0.12066335308E+04 -0.13317194285E+04  0.17982561075E+04  0.00000000000E+00 0. -1.
<mgrwt>
<rscale>  0 0.28531011E+04</rscale>
<asrwt>0</asrwt>
<pdfrwt beam="1">  1        2 0.15291423E+00 0.28531011E+04</pdfrwt>
<pdfrwt beam="2">  1       -2 0.31499213E+00 0.28531011E+04</pdfrwt>
<totfact> 0.56611003E-01</totfact>
</mgrwt>
</event>
<event>
 6    1  0.1568961E-005  0.2991138E+04  0.7818608E-02  0.8246266E-01
          2   -1    0    0  501    0  0.00000000000E+00  0.00000000000E+00  0.15731738749E+04  0.15731738749E+04  0.00000000000E+00 0.  1.
         -2   -1    0    0    0  501 -0.00000000000E+00 -0.00000000000E+00 -0.14217922962E+04  0.14217922962E+04  0.00000000000E+00 0. -1.
         23    2    1    2    0    0 -0.10516799158E+04 -0.18223508690E+03 -0.97117993591E+03  0.14459714563E+04  0.91666309456E+02 0.  0.
         13    1    3    3    0    0 -0.77687532872E+03 -0.14565542132E+03 -0.66513791943E+03  0.10330339927E+04  0.00000000000E+00 0.  1.
        -13    1    3    3    0    0 -0.27480458708E+03 -0.36579665580E+02 -0.30604201647E+03  0.41293746362E+03  0.00000000000E+00 0. -1.
         22    1    1    2    0    0  0.10516799158E+04  0.18223508690E+03  0.11225615146E+04  0.15489947147E+04  0.00000000000E+00 0.  1.
<mgrwt>
<rscale>  0 0.29911379E+04</rscale>
<asrwt>0</asrwt>
<pdfrwt beam="1">  1        2 0.24202675E+00 0.29911379E+04</pdfrwt>
<pdfrwt beam="2">  1       -2 0.21873728E+00 0.29911379E+04</pdfrwt>
<totfact> 0.99573914E-01</totfact>
</mgrwt>
</event>
<event>
 6    1  0.1568961E-005  0.2509853E+04  0.7818608E-02  0.8399484E-01
         -2   -1    0    0    0  501 -0.00000000000E+00  0.00000000000E+00  0.11572563627E+04  0.11572563627E+04  0.00000000000E+00 0.  1.
          2   -1    0    0  501    0  0.00000000000E+00 -0.00000000000E+00 -0.13608397209E+04  0.13608397209E+04  0.00000000000E+00 0. -1.
         23    2    1    2    0    0 -0.18438059672E+03  0.79494150609E+03 -0.10561601205E+04  0.13379201060E+04  0.92885990547E+02 0.  0.
         13    1    3    3    0    0 -0.15798811522E+03  0.64095556105E+03 -0.79226147056E+03  0.10312431884E+04  0.00000000000E+00 0. -1.
        -13    1    3    3    0    0 -0.26392481493E+02  0.15398594504E+03 -0.26389864997E+03  0.30667691763E+03  0.00000000000E+00 0.  1.
         22    1    1    2    0    0  0.18438059672E+03 -0.79494150609E+03  0.85257676228E+03  0.11801759776E+04  0.00000000000E+00 0.  1.
<mgrwt>
<rscale>  0 0.25098529E+04</rscale>
<asrwt>0</asrwt>
<pdfrwt beam="1">  1        2 0.20935996E+00 0.25098529E+04</pdfrwt>
<pdfrwt beam="2">  1       -2 0.17803944E+00 0.25098529E+04</pdfrwt>
<totfact> 0.25413466E+00</totfact>
</mgrwt>
</event>
<event>
 6    1  0.1568961E-005  0.1190188E+04  0.7818608E-02  0.9121489E-01
         -2   -1    0    0    0  501 -0.00000000000E+00  0.00000000000E+00  0.40282042107E+03  0.40282042107E+03  0.00000000000E+00 0.  1.
          2   -1    0    0  501    0  0.00000000000E+00 -0.00000000000E+00 -0.87914268768E+03  0.87914268768E+03  0.00000000000E+00 0. -1.
         23    2    1    2    0    0  0.55108231208E+03  0.55404713798E+02 -0.46419294800E+03  0.72796986207E+03  0.87770325891E+02 0.  0.
         13    1    3    3    0    0  0.34254358240E+03  0.65122980510E+02 -0.32800340649E+03  0.47871008252E+03  0.00000000000E+00 0. -1.
        -13    1    3    3    0    0  0.20853872968E+03 -0.97182667120E+01 -0.13618954150E+03  0.24925977955E+03  0.00000000000E+00 0.  1.
         22    1    1    2    0    0 -0.55108231208E+03 -0.55404713798E+02 -0.12129318608E+02  0.55399324668E+03  0.00000000000E+00 0.  1.
<mgrwt>
<rscale>  0 0.11901876E+04</rscale>
<asrwt>0</asrwt>
<pdfrwt beam="1">  1        2 0.13525272E+00 0.11901876E+04</pdfrwt>
<pdfrwt beam="2">  1       -2 0.61972373E-01 0.11901876E+04</pdfrwt>
<totfact> 0.72353437E+01</totfact>
</mgrwt>
</event>
<event>
 6    1  0.1568961E-005  0.1289000E+04  0.7818608E-02  0.9038334E-01
         -2   -1    0    0    0  501 -0.00000000000E+00  0.00000000000E+00  0.25109162062E+03  0.25109162062E+03  0.00000000000E+00 0.  1.
          2   -1    0    0  501    0  0.00000000000E+00 -0.00000000000E+00 -0.16542965356E+04  0.16542965356E+04  0.00000000000E+00 0. -1.
         23    2    1    2    0    0  0.12749842508E+03 -0.49481803389E+03 -0.12779064064E+04  0.13792698698E+04  0.90773648010E+02 0.  0.
         13    1    3    3    0    0  0.10388958494E+03 -0.33321764112E+03 -0.96727107618E+03  0.10283192000E+04  0.00000000000E+00 0. -1.
        -13    1    3    3    0    0  0.23608840143E+02 -0.16160039276E+03 -0.31063533018E+03  0.35095066980E+03  0.00000000000E+00 0.  1.
         22    1    1    2    0    0 -0.12749842508E+03  0.49481803389E+03 -0.12529850859E+03  0.52611828643E+03  0.00000000000E+00 0.  1.
<mgrwt>
<rscale>  0 0.12889996E+04</rscale>
<asrwt>0</asrwt>
<pdfrwt beam="1">  1        2 0.25450717E+00 0.12889996E+04</pdfrwt>
<pdfrwt beam="2">  1       -2 0.38629479E-01 0.12889996E+04</pdfrwt>
<totfact> 0.64568098E+01</totfact>
</mgrwt>
</event>
<event>
 6    1  0.1568961E-005  0.1084081E+04  0.7818608E-02  0.9220848E-01
         -2   -1    0    0    0  501 -0.00000000000E+00  0.00000000000E+00  0.12941942883E+03  0.12941942883E+03  0.00000000000E+00 0.  1.
          2   -1    0    0  501    0  0.00000000000E+00 -0.00000000000E+00 -0.22701979529E+04  0.22701979529E+04  0.00000000000E+00 0. -1.
         23    2    1    2    0    0  0.36555215442E+03 -0.16556104726E+03 -0.28309391381E+03  0.49908299656E+03  0.88897893407E+02 0.  0.
         13    1    3    3    0    0  0.25849243269E+03 -0.75218439939E+02 -0.16413455914E+03  0.31530351246E+03  0.00000000000E+00 0. -1.
        -13    1    3    3    0    0  0.10705972173E+03 -0.90342607319E+02 -0.11895935467E+03  0.18377948411E+03  0.00000000000E+00 0.  1.
         22    1    1    2    0    0 -0.36555215442E+03  0.16556104726E+03 -0.18576846102E+04  0.19005343851E+04  0.00000000000E+00 0. -1.
<mgrwt>
<rscale>  0 0.10840807E+04</rscale>
<asrwt>0</asrwt>
<pdfrwt beam="1">  1        2 0.34926122E+00 0.10840807E+04</pdfrwt>
<pdfrwt beam="2">  1       -2 0.19910681E-01 0.10840807E+04</pdfrwt>
<totfact> 0.10148639E+02</totfact>
</mgrwt>
</event>
<event>
 6    1  0.1568961E-005  0.4191172E+04  0.7818608E-02  0.7967054E-01
         -2   -1    0    0    0  501 -0.00000000000E+00  0.00000000000E+00  0.11256309727E+04  0.11256309727E+04  0.00000000000E+00 0.  1.
          2   -1    0    0  501    0  0.00000000000E+00 -0.00000000000E+00 -0.39013496912E+04  0.39013496912E+04  0.00000000000E+00 0. -1.
         23    2    1    2    0    0 -0.14568979614E+02  0.78280267073E+03  0.94164815085E+03  0.12280586170E+04  0.91839263496E+02 0.  0.
         13    1    3    3    0    0  0.29169745800E+02  0.45614567071E+03  0.50755523276E+03  0.68303152290E+03  0.00000000000E+00 0.  1.
        -13    1    3    3    0    0 -0.43738725415E+02  0.32665700001E+03  0.43409291809E+03  0.54502709409E+03  0.00000000000E+00 0. -1.
         22    1    1    2    0    0  0.14568979614E+02 -0.78280267073E+03 -0.37173668694E+04  0.37989220468E+04  0.00000000000E+00 0. -1.
<mgrwt>
<rscale>  0 0.41911717E+04</rscale>
<asrwt>0</asrwt>
<pdfrwt beam="1">  1        2 0.60020764E+00 0.41911717E+04</pdfrwt>
<pdfrwt beam="2">  1       -2 0.17317400E+00 0.41911717E+04</pdfrwt>
<totfact> 0.64249764E-02</totfact>
</mgrwt>
</event>
<event>
 6    1  0.1568961E-005  0.1768123E+04  0.7818608E-02  0.8723437E-01
          1   -1    0    0  501    0  0.00000000000E+00  0.00000000000E+00  0.64158765320E+03  0.64158765320E+03  0.00000000000E+00 0. -1.
         -1   -1    0    0    0  501 -0.00000000000E+00 -0.00000000000E+00 -0.12181735968E+04  0.12181735968E+04  0.00000000000E+00 0.  1.
         23    2    1    2    0    0 -0.31173023485E+03 -0.20341675406E+03  0.55168617804E+03  0.67167367090E+03  0.90740101340E+02 0.  0.
         11    1    3    3    0    0 -0.15002306568E+03 -0.15024035564E+03  0.28766955480E+03  0.35753721129E+03  0.00000000000E+00 0.  1.
        -11    1    3    3    0    0 -0.16170716917E+03 -0.53176398418E+02  0.26401662324E+03  0.31413645961E+03  0.00000000000E+00 0. -1.
         22    1    1    2    0    0  0.31173023485E+03  0.20341675406E+03 -0.11282721216E+04  0.11880875791E+04  0.00000000000E+00 0.  1.
<mgrwt>
<rscale>  0 0.17681235E+04</rscale>
<asrwt>0</asrwt>
<pdfrwt beam="1">  1        1 0.98705794E-01 0.17681235E+04</pdfrwt>
<pdfrwt beam="2">  1       -1 0.18741132E+00 0.17681235E+04</pdfrwt>
<totfact> 0.54130313E+00</totfact>
</mgrwt>
</event>
<event>
 6    1  0.1568961E-005  0.1427161E+04  0.7818608E-02  0.8934389E-01
          2   -1    0    0  501    0  0.00000000000E+00  0.00000000000E+00  0.17270913763E+04  0.17270913763E+04  0.00000000000E+00 0. -1.
         -2   -1    0    0    0  501 -0.00000000000E+00 -0.00000000000E+00 -0.29482925113E+03  0.29482925113E+03  0.00000000000E+00 0.  1.
         23    2    1    2    0    0 -0.17432868494E+03 -0.68907998565E+03  0.70989024775E+03  0.10084894032E+04  0.88797496840E+02 0.  0.
         13    1    3    3    0    0 -0.35587993499E+02 -0.23873041772E+03  0.29017443871E+03  0.37743863410E+03  0.00000000000E+00 0. -1.
        -13    1    3    3    0    0 -0.13874069144E+03 -0.45034956793E+03  0.41971580903E+03  0.63105076907E+03  0.00000000000E+00 0.  1.
         22    1    1    2    0    0  0.17432868494E+03  0.68907998565E+03  0.72237187741E+03  0.10134312243E+04  0.00000000000E+00 0. -1.
<mgrwt>
<rscale>  0 0.14271609E+04</rscale>
<asrwt>0</asrwt>
<pdfrwt beam="1">  1        2 0.26570636E+00 0.14271609E+04</pdfrwt>
<pdfrwt beam="2">  1       -2 0.45358347E-01 0.14271609E+04</pdfrwt>
<totfact> 0.42408313E+01</totfact>
</mgrwt>
</event>
<event>
 6    1  0.1568961E-005  0.1685262E+04  0.7818608E-02  0.8769815E-01
          1   -1    0    0  501    0  0.00000000000E+00  0.00000000000E+00  0.39313485537E+03  0.39313485537E+03  0.00000000000E+00 0. -1.
         -1   -1    0    0    0  501 -0.00000000000E+00 -0.00000000000E+00 -0.18060651594E+04  0.18060651594E+04  0.00000000000E+00 0.  1.
         23    2    1    2    0    0  0.38503497556E+03 -0.58551276131E+03 -0.13132481310E+04  0.14913768295E+04  0.92233766459E+02 0.  0.
         13    1    3    3    0    0  0.24826923990E+03 -0.44989445788E+03 -0.93384098037E+03  0.10658806759E+04  0.00000000000E+00 0. -1.
        -13    1    3    3    0    0  0.13676573566E+03 -0.13561830343E+03 -0.37940715068E+03  0.42549615352E+03  0.00000000000E+00 0.  1.
         22    1    1    2    0    0 -0.38503497556E+03  0.58551276131E+03 -0.99682172980E+02  0.70782318531E+03  0.00000000000E+00 0. -1.
<mgrwt>
<rscale>  0 0.16852622E+04</rscale>
<asrwt>0</asrwt>
<pdfrwt beam="1">  1        1 0.60482286E-01 0.16852622E+04</pdfrwt>
<pdfrwt beam="2">  1       -1 0.27785618E+00 0.16852622E+04</pdfrwt>
<totfact> 0.26906177E+00</totfact>
</mgrwt>
</event>
<event>
 6    1  0.1568961E-005  0.1071781E+04  0.7818608E-02  0.9233141E-01
         -2   -1    0    0    0  501 -0.00000000000E+00  0.00000000000E+00  0.40236745151E+03  0.40236745151E+03  0.00000000000E+00 0. -1.
          2   -1    0    0  501    0  0.00000000000E+00 -0.00000000000E+00 -0.71372215282E+03  0.71372215282E+03  0.00000000000E+00 0.  1.
         23    2    1    2    0    0 -0.25710995622E+03 -0.35693182056E+03 -0.46838776784E+03  0.64900798608E+03  0.91205322324E+02 0.  0.
         13    1    3    3    0    0 -0.17923135885E+03 -0.27994604277E+03 -0.39919923513E+03  0.51947444228E+03  0.00000000000E+00 0.  1.
        -13    1    3    3    0    0 -0.77878597368E+02 -0.76985777794E+02 -0.69188532709E+02  0.12953354380E+03  0.00000000000E+00 0. -1.
         22    1    1    2    0    0  0.25710995622E+03  0.35693182056E+03  0.15703306653E+03  0.46708161824E+03  0.00000000000E+00 0. -1.
<mgrwt>
<rscale>  0 0.10717809E+04</rscale>
<asrwt>0</asrwt>
<pdfrwt beam="1">  1        2 0.10980341E+00 0.10717809E+04</pdfrwt>
<pdfrwt beam="2">  1       -2 0.61902685E-01 0.10717809E+04</pdfrwt>
<totfact> 0.96400098E+01</totfact>
</mgrwt>
</event>
<event>
 6    1  0.1568961E-005  0.1946583E+04  0.7818608E-02  0.8632010E-01
          1   -1    0    0  501    0  0.00000000000E+00  0.00000000000E+00  0.20201761114E+04  0.20201761114E+04  0.00000000000E+00 0.  1.
         -1   -1    0    0    0  501 -0.00000000000E+00 -0.00000000000E+00 -0.46891770883E+03  0.46891770883E+03  0.00000000000E+00 0. -1.
         23    2    1    2    0    0  0.53756803715E+03  0.17136229711E+03 -0.23358330466E+03  0.61719522488E+03  0.89578758428E+02 0.  0.
         11    1    3    3    0    0  0.25789513596E+03  0.93146985871E+02 -0.16055872881E+03  0.31775047997E+03  0.00000000000E+00 0.  1.
        -11    1    3    3    0    0  0.27967290119E+03  0.78215311235E+02 -0.73024575857E+02  0.29944474490E+03  0.00000000000E+00 0. -1.
         22    1    1    2    0    0 -0.53756803715E+03 -0.17136229711E+03  0.17848417072E+04  0.18718985953E+04  0.00000000000E+00 0.  1.
<mgrwt>
<rscale>  0 0.19465830E+04</rscale>
<asrwt>0</asrwt>
<pdfrwt beam="1">  1        1 0.31079632E+00 0.19465830E+04</pdfrwt>
<pdfrwt beam="2">  1       -1 0.72141187E-01 0.19465830E+04</pdfrwt>
<totfact> 0.52167834E+00</totfact>
</mgrwt>
</event>
<event>
 6    1  0.1568961E-005  0.8623078E+03  0.7818608E-02  0.9473965E-01
         -2   -1    0    0    0  501 -0.00000000000E+00  0.00000000000E+00  0.20507884792E+03  0.20507884792E+03  0.00000000000E+00 0.  1.
          2   -1    0    0  501    0  0.00000000000E+00 -0.00000000000E+00 -0.90644978128E+03  0.90644978128E+03  0.00000000000E+00 0. -1.
         23    2    1    2    0    0  0.68702602580E+01  0.26508043331E+03  0.75715657576E+02  0.29044495111E+03  0.91162339936E+02 0.  0.
         13    1    3    3    0    0  0.16724787136E+02  0.15423773889E+03 -0.12412561340E+01  0.15514683149E+03  0.00000000000E+00 0.  1.
        -13    1    3    3    0    0 -0.98545268784E+01  0.11084269442E+03  0.76956913710E+02  0.13529811963E+03  0.00000000000E+00 0. -1.
         22    1    1    2    0    0 -0.68702602580E+01 -0.26508043331E+03 -0.77708659094E+03  0.82108367809E+03  0.00000000000E+00 0. -1.
<mgrwt>
<rscale>  0 0.86230778E+03</rscale>
<asrwt>0</asrwt>
<pdfrwt beam="1">  1        2 0.13945381E+00 0.86230778E+03</pdfrwt>
<pdfrwt beam="2">  1       -2 0.31550593E-01 0.86230778E+03</pdfrwt>
<totfact> 0.27153392E+02</totfact>
</mgrwt>
</event>
<event>
 6    1  0.1568961E-005  0.2886691E+04  0.7818608E-02  0.8276848E-01
          2   -1    0    0  501    0  0.00000000000E+00  0.00000000000E+00  0.15971201336E+04  0.15971201336E+04  0.00000000000E+00 0. -1.
         -2   -1    0    0    0  501 -0.00000000000E+00 -0.00000000000E+00 -0.13043765168E+04  0.13043765168E+04  0.00000000000E+00 0.  1.
         23    2    1    2    0    0  0.76931029937E+01  0.68996186932E+03 -0.11261479060E+04  0.13237261606E+04  0.89080172032E+02 0.  0.
         11    1    3    3    0    0  0.37083851712E+02  0.20123705224E+03 -0.29332642033E+03  0.35764780457E+03  0.00000000000E+00 0. -1.
        -11    1    3    3    0    0 -0.29390748718E+02  0.48872481709E+03 -0.83282148568E+03  0.96607835601E+03  0.00000000000E+00 0.  1.
         22    1    1    2    0    0 -0.76931029937E+01 -0.68996186932E+03  0.14188915228E+04  0.15777704898E+04  0.00000000000E+00 0. -1.
<mgrwt>
<rscale>  0 0.28866908E+04</rscale>
<asrwt>0</asrwt>
<pdfrwt beam="1">  1        2 0.24571079E+00 0.28866908E+04</pdfrwt>
<pdfrwt beam="2">  1       -2 0.20067331E+00 0.28866908E+04</pdfrwt>
<totfact> 0.12733766E+00</totfact>
</mgrwt>
</event>
<event>
 6    1  0.1568961E-005  0.5890326E+03  0.7818608E-02  0.9928425E-01
         -1   -1    0    0    0  501 -0.00000000000E+00  0.00000000000E+00  0.12382318828E+03  0.12382318828E+03  0.00000000000E+00 0.  1.
          1   -1    0    0  501    0  0.00000000000E+00 -0.00000000000E+00 -0.70051370983E+03  0.70051370983E+03  0.00000000000E+00 0. -1.
         23    2    1    2    0    0 -0.26447338027E+03 -0.11650425061E+02 -0.13891737260E+03  0.31274406076E+03  0.91809094628E+02 0.  0.
         13    1    3    3    0    0 -0.92783415788E+02 -0.84438829076E+01 -0.99988982228E+02  0.13666696006E+03  0.00000000000E+00 0. -1.
        -13    1    3    3    0    0 -0.17168996448E+03 -0.32065421539E+01 -0.38928390375E+02  0.17607710071E+03  0.00000000000E+00 0.  1.
         22    1    1    2    0    0  0.26447338027E+03  0.11650425061E+02 -0.43777314895E+03  0.51159283734E+03  0.00000000000E+00 0. -1.
<mgrwt>
<rscale>  0 0.58903257E+03</rscale>
<asrwt>0</asrwt>
<pdfrwt beam="1">  1        1 0.10777134E+00 0.58903257E+03</pdfrwt>
<pdfrwt beam="2">  1       -1 0.19049721E-01 0.58903257E+03</pdfrwt>
<totfact> 0.60974347E+02</totfact>
</mgrwt>
</event>
<event>
 6    1  0.1568961E-005  0.2385388E+04  0.7818608E-02  0.8444995E-01
         -2   -1    0    0    0  501 -0.00000000000E+00  0.00000000000E+00  0.96088315823E+03  0.96088315823E+03  0.00000000000E+00 0.  1.
          2   -1    0    0  501    0  0.00000000000E+00 -0.00000000000E+00 -0.14804281844E+04  0.14804281844E+04  0.00000000000E+00 0. -1.
         23    2    1    2    0    0  0.51295882732E+03 -0.56008476259E+03  0.67877789463E+03  0.10225796829E+04  0.90044865666E+02 0.  0.
         13    1    3    3    0    0  0.21823358241E+03 -0.18531222335E+03  0.22175731257E+03  0.36213646916E+03  0.00000000000E+00 0.  1.
        -13    1    3    3    0    0  0.29472524491E+03 -0.37477253924E+03  0.45702058206E+03  0.66044321374E+03  0.00000000000E+00 0. -1.
         22    1    1    2    0    0 -0.51295882732E+03  0.56008476259E+03 -0.11983229208E+04  0.14187316597E+04  0.00000000000E+00 0. -1.
<mgrwt>
<rscale>  0 0.23853876E+04</rscale>
<asrwt>0</asrwt>
<pdfrwt beam="1">  1        2 0.22775818E+00 0.23853876E+04</pdfrwt>
<pdfrwt beam="2">  1       -2 0.14782818E+00 0.23853876E+04</pdfrwt>
<totfact> 0.36515246E+00</totfact>
</mgrwt>
</event>
<event>
 6    1  0.1568961E-005  0.4337684E+04  0.7818608E-02  0.7939687E-01
          2   -1    0    0  501    0  0.00000000000E+00  0.00000000000E+00  0.38976171998E+04  0.38976171998E+04  0.00000000000E+00 0. -1.
         -2   -1    0    0    0  501 -0.00000000000E+00 -0.00000000000E+00 -0.12068591374E+04  0.12068591374E+04  0.00000000000E+00 0.  1.
         23    2    1    2    0    0 -0.99482461500E+03 -0.13661932522E+03 -0.91326130611E+03  0.13631802431E+04  0.12598931439E+03 0.  0.
         11    1    3    3    0    0 -0.55663851121E+03 -0.13910775633E+03 -0.50907789679E+03  0.76704478685E+03  0.00000000000E+00 0. -1.
        -11    1    3    3    0    0 -0.43818610379E+03  0.24884311098E+01 -0.40418340931E+03  0.59613545626E+03  0.00000000000E+00 0.  1.
         22    1    1    2    0    0  0.99482461500E+03  0.13661932522E+03  0.36040193685E+04  0.37412960940E+04  0.00000000000E+00 0. -1.
<mgrwt>
<rscale>  0 0.43376837E+04</rscale>
<asrwt>0</asrwt>
<pdfrwt beam="1">  1        2 0.59963341E+00 0.43376837E+04</pdfrwt>
<pdfrwt beam="2">  1       -2 0.18567064E+00 0.43376837E+04</pdfrwt>
<totfact> 0.52364022E-02</totfact>
</mgrwt>
</event>
<event>
 6    1  0.1568961E-005  0.2676131E+04  0.7818608E-02  0.8342791E-01
          2   -1    0    0  501    0  0.00000000000E+00  0.00000000000E+00  0.23449277181E+04  0.23449277181E+04  0.00000000000E+00 0. -1.
         -2   -1    0    0    0  501 -0.00000000000E+00 -0.00000000000E+00 -0.76352878044E+03  0.76352878044E+03  0.00000000000E+00 0.  1.
         23    2    1    2    0    0 -0.64935853842E+03 -0.61949079133E+03  0.19419373014E+04  0.21412836785E+04  0.92411888424E+02 0.  0.
         11    1    3    3    0    0 -0.30495128248E+03 -0.24920290523E+03  0.93282472361E+03  0.10125509062E+04  0.00000000000E+00 0.  1.
        -11    1    3    3    0    0 -0.34440725593E+03 -0.37028788610E+03  0.10091125778E+04  0.11287327723E+04  0.00000000000E+00 0. -1.
         22    1    1    2    0    0  0.64935853842E+03  0.61949079133E+03 -0.36053836382E+03  0.96717282000E+03  0.00000000000E+00 0.  1.
<mgrwt>
<rscale>  0 0.26761314E+04</rscale>
<asrwt>0</asrwt>
<pdfrwt beam="1">  1        2 0.36075811E+00 0.26761314E+04</pdfrwt>
<pdfrwt beam="2">  1       -2 0.11746597E+00 0.26761314E+04</pdfrwt>
<totfact> 0.21029799E+00</totfact>
</mgrwt>
</event>
<event>
 6    1  0.1568961E-005  0.6205862E+04  0.7818608E-02  0.7665389E-01
         -2   -1    0    0    0  501 -0.00000000000E+00  0.00000000000E+00  0.33163667507E+04  0.33163667507E+04  0.00000000000E+00 0.  1.
          2   -1    0    0  501    0  0.00000000000E+00 -0.00000000000E+00 -0.29032312656E+04  0.29032312656E+04  0.00000000000E+00 0. -1.
         23    2    1    2    0    0  0.21916270905E+04  0.14693478696E+03 -0.19889916969E+04  0.29645966132E+04  0.89027936717E+02 0.  0.
         13    1    3    3    0    0  0.14116138332E+04  0.52542219596E+02 -0.12680055224E+04  0.18982234599E+04  0.00000000000E+00 0.  1.
        -13    1    3    3    0    0  0.78001325727E+03  0.94392567365E+02 -0.72098617452E+03  0.10663731533E+04  0.00000000000E+00 0. -1.
         22    1    1    2    0    0 -0.21916270905E+04 -0.14693478696E+03  0.24021271820E+04  0.32550014031E+04  0.00000000000E+00 0.  1.
<mgrwt>
<rscale>  0 0.62058616E+04</rscale>
<asrwt>0</asrwt>
<pdfrwt beam="1">  1        2 0.44665097E+00 0.62058616E+04</pdfrwt>
<pdfrwt beam="2">  1       -2 0.51021027E+00 0.62058616E+04</pdfrwt>
<totfact> 0.19185671E-03</totfact>
</mgrwt>
</event>
<event>
 6    1  0.1568961E-005  0.3072311E+04  0.7818608E-02  0.8223378E-01
          1   -1    0    0  501    0  0.00000000000E+00  0.00000000000E+00  0.12392755847E+04  0.12392755847E+04  0.00000000000E+00 0. -1.
         -1   -1    0    0    0  501 -0.00000000000E+00 -0.00000000000E+00 -0.19041554023E+04  0.19041554023E+04  0.00000000000E+00 0.  1.
         23    2    1    2    0    0  0.12800426911E+04 -0.80749182849E+03 -0.72118535967E+02  0.15180331030E+04  0.93118605406E+02 0.  0.
         11    1    3    3    0    0  0.29209187623E+03 -0.23146723289E+03 -0.14370493542E+02  0.37296280665E+03  0.00000000000E+00 0.  1.
        -11    1    3    3    0    0  0.98795081483E+03 -0.57602459560E+03 -0.57748042425E+02  0.11450702964E+04  0.00000000000E+00 0. -1.
         22    1    1    2    0    0 -0.12800426911E+04  0.80749182849E+03 -0.59276128167E+03  0.16253978839E+04  0.00000000000E+00 0.  1.
<mgrwt>
<rscale>  0 0.30723107E+04</rscale>
<asrwt>0</asrwt>
<pdfrwt beam="1">  1        1 0.19065778E+00 0.30723107E+04</pdfrwt>
<pdfrwt beam="2">  1       -1 0.29294698E+00 0.30723107E+04</pdfrwt>
<totfact> 0.31043511E-01</totfact>
</mgrwt>
</event>
<event>
 6    1  0.1568961E-005  0.3569788E+04  0.7818608E-02  0.8097447E-01
          2   -1    0    0  501    0  0.00000000000E+00  0.00000000000E+00  0.10679488144E+04  0.10679488144E+04  0.00000000000E+00 0. -1.
         -2   -1    0    0    0  501 -0.00000000000E+00 -0.00000000000E+00 -0.29831453060E+04  0.29831453060E+04  0.00000000000E+00 0.  1.
         23    2    1    2    0    0 -0.96908383308E+03 -0.95940103025E+03  0.34644966116E+03  0.14101440768E+04  0.94367034655E+02 0.  0.
         13    1    3    3    0    0 -0.28630380887E+03 -0.34505761113E+03  0.10677138244E+03  0.46090644829E+03  0.00000000000E+00 0.  1.
        -13    1    3    3    0    0 -0.68278002421E+03 -0.61434341913E+03  0.23967827872E+03  0.94923762851E+03  0.00000000000E+00 0. -1.
         22    1    1    2    0    0  0.96908383308E+03  0.95940103025E+03 -0.22616461527E+04  0.26409500435E+04  0.00000000000E+00 0.  1.
<mgrwt>
<rscale>  0 0.35697879E+04</rscale>
<asrwt>0</asrwt>
<pdfrwt beam="1">  1        2 0.16429982E+00 0.35697879E+04</pdfrwt>
<pdfrwt beam="2">  1       -2 0.45894542E+00 0.35697879E+04</pdfrwt>
<totfact> 0.56407043E-02</totfact>
</mgrwt>
</event>
<event>
 6    1  0.1568961E-005  0.2992105E+04  0.7818608E-02  0.8245989E-01
         -1   -1    0    0    0  501 -0.00000000000E+00  0.00000000000E+00  0.14551926282E+04  0.14551926282E+04  0.00000000000E+00 0.  1.
          1   -1    0    0  501    0  0.00000000000E+00 -0.00000000000E+00 -0.15380598447E+04  0.15380598447E+04  0.00000000000E+00 0. -1.
         23    2    1    2    0    0 -0.10633874097E+04  0.62701474325E+03 -0.88447121600E+03  0.15213458035E+04  0.90903521963E+02 0.  0.
         13    1    3    3    0    0 -0.67954653765E+03  0.44724011178E+03 -0.60091284842E+03  0.10113869021E+04  0.00000000000E+00 0.  1.
        -13    1    3    3    0    0 -0.38384087209E+03  0.17977463147E+03 -0.28355836758E+03  0.50995890132E+03  0.00000000000E+00 0. -1.
         22    1    1    2    0    0  0.10633874097E+04 -0.62701474325E+03  0.80160399956E+03  0.14719066694E+04  0.00000000000E+00 0.  1.
<mgrwt>
<rscale>  0 0.29921052E+04</rscale>
<asrwt>0</asrwt>
<pdfrwt beam="1">  1        1 0.23662459E+00 0.29921052E+04</pdfrwt>
<pdfrwt beam="2">  1       -1 0.22387579E+00 0.29921052E+04</pdfrwt>
<totfact> 0.54358724E-01</totfact>
</mgrwt>
</event>
<event>
 6    1  0.1568961E-005  0.4604273E+03  0.7818608E-02  0.1024657E+00
         -1   -1    0    0    0  501 -0.00000000000E+00  0.00000000000E+00  0.36341078442E+03  0.36341078442E+03  0.00000000000E+00 0.  1.
          1   -1    0    0  501    0  0.00000000000E+00 -0.00000000000E+00 -0.14583585296E+03  0.14583585296E+03  0.00000000000E+00 0. -1.
         23    2    1    2    0    0 -0.11401005707E+03  0.45015728753E+02  0.31656555856E+03  0.35169076411E+03  0.91912631062E+02 0.  0.
         11    1    3    3    0    0 -0.11864714620E+03  0.17996082182E+02  0.28847313000E+03  0.31243839554E+03  0.00000000000E+00 0.  1.
        -11    1    3    3    0    0  0.46370891284E+01  0.27019646571E+02  0.28092428561E+02  0.39252368576E+02  0.00000000000E+00 0. -1.
         22    1    1    2    0    0  0.11401005707E+03 -0.45015728753E+02 -0.98990627095E+02  0.15755587327E+03  0.00000000000E+00 0. -1.
<mgrwt>
<rscale>  0 0.46042729E+03</rscale>
<asrwt>0</asrwt>
<pdfrwt beam="1">  1        1 0.22436285E-01 0.46042729E+03</pdfrwt>
<pdfrwt beam="2">  1       -1 0.55909351E-01 0.46042729E+03</pdfrwt>
<totfact> 0.73401250E+02</totfact>
</mgrwt>
</event>
<event>
 6    1  0.1568961E-005  0.9970664E+03  0.7818608E-02  0.9311768E-01
         -2   -1    0    0    0  501 -0.00000000000E+00  0.00000000000E+00  0.23033241968E+03  0.23033241968E+03  0.00000000000E+00 0.  1.
          2   -1    0    0  501    0  0.00000000000E+00 -0.00000000000E+00 -0.10790289922E+04  0.10790289922E+04  0.00000000000E+00 0. -1.
         23    2    1    2    0    0 -0.38719793689E+02  0.30574739875E+03 -0.93591203216E+03  0.98906899751E+03  0.85705633591E+02 0.  0.
         11    1    3    3    0    0 -0.43196657896E+02  0.29406058337E+03 -0.92758036796E+03  0.97403435102E+03  0.00000000000E+00 0. -1.
        -11    1    3    3    0    0  0.44768642073E+01  0.11686815376E+02 -0.83316642081E+01  0.15034646496E+02  0.00000000000E+00 0.  1.
         22    1    1    2    0    0  0.38719793689E+02 -0.30574739875E+03  0.87215459695E+02  0.32029241432E+03  0.00000000000E+00 0.  1.
<mgrwt>
<rscale>  0 0.99706641E+03</rscale>
<asrwt>0</asrwt>
<pdfrwt beam="1">  1        2 0.16600446E+00 0.99706641E+03</pdfrwt>
<pdfrwt beam="2">  1       -2 0.35435757E-01 0.99706641E+03</pdfrwt>
<totfact> 0.16748641E+02</totfact>
</mgrwt>
</event>
<event>
 6    1  0.1568961E-005  0.1846126E+04  0.7818608E-02  0.8682148E-01
         -2   -1    0    0    0  501 -0.00000000000E+00  0.00000000000E+00  0.30197941998E+03  0.30197941998E+03  0.00000000000E+00 0. -1.
          2   -1    0    0  501    0  0.00000000000E+00 -0.00000000000E+00 -0.28215335091E+04  0.28215335091E+04  0.00000000000E+00 0.  1.
         23    2    1    2    0    0  0.15226466500E+03 -0.54498940285E+03 -0.24918744527E+04  0.25569759579E+04  0.92140022892E+02 0.  0.
         11    1    3    3    0    0  0.13737843104E+03 -0.48664044688E+03 -0.20722214688E+04  0.21330245131E+04  0.00000000000E+00 0.  1.
        -11    1    3    3    0    0  0.14886233956E+02 -0.58348955973E+02 -0.41965298393E+03  0.42395144479E+03  0.00000000000E+00 0. -1.
         22    1    1    2    0    0 -0.15226466500E+03  0.54498940285E+03 -0.27679636394E+02  0.56653697117E+03  0.00000000000E+00 0. -1.
<mgrwt>
<rscale>  0 0.18461257E+04</rscale>
<asrwt>0</asrwt>
<pdfrwt beam="1">  1        2 0.43408208E+00 0.18461257E+04</pdfrwt>
<pdfrwt beam="2">  1       -2 0.46458373E-01 0.18461257E+04</pdfrwt>
<totfact> 0.92931436E+00</totfact>
</mgrwt>
</event>
<event>
 6    1  0.1568961E-005  0.8023365E+03  0.7818608E-02  0.9556641E-01
         -2   -1    0    0    0  501 -0.00000000000E+00  0.00000000000E+00  0.68119785736E+03  0.68119785736E+03  0.00000000000E+00 0.  1.
          2   -1    0    0  501    0  0.00000000000E+00 -0.00000000000E+00 -0.23625433719E+03  0.23625433719E+03  0.00000000000E+00 0. -1.
         23    2    1    2    0    0  0.84607328105E+02  0.21426736235E+03  0.59375152111E+03  0.64320281226E+03  0.90000479699E+02 0.  0.
         11    1    3    3    0    0  0.64220817769E+01  0.13138760405E+03  0.27878798776E+03  0.30826399036E+03  0.00000000000E+00 0. -1.
        -11    1    3    3    0    0  0.78185246328E+02  0.82879758299E+02  0.31496353335E+03  0.33493882190E+03  0.00000000000E+00 0.  1.
         22    1    1    2    0    0 -0.84607328105E+02 -0.21426736235E+03 -0.14880800094E+03  0.27424938228E+03  0.00000000000E+00 0. -1.
<mgrwt>
<rscale>  0 0.80233646E+03</rscale>
<asrwt>0</asrwt>
<pdfrwt beam="1">  1        2 0.36346821E-01 0.80233646E+03</pdfrwt>
<pdfrwt beam="2">  1       -2 0.10479967E+00 0.80233646E+03</pdfrwt>
<totfact> 0.10663091E+02</totfact>
</mgrwt>
</event>
<event>
 6    1  0.1568961E-005  0.3837801E+04  0.7818608E-02  0.8038091E-01
          2   -1    0    0  501    0  0.00000000000E+00  0.00000000000E+00  0.33440016755E+04  0.33440016755E+04  0.00000000000E+00 0. -1.
         -2   -1    0    0    0  501 -0.00000000000E+00 -0.00000000000E+00 -0.11011297057E+04  0.11011297057E+04  0.00000000000E+00 0.  1.
         23    2    1    2    0    0 -0.19136951258E+04  0.15050895690E+01  0.97085194086E+03  0.21472483873E+04  0.76751844795E+02 0.  0.
         13    1    3    3    0    0 -0.14641625764E+04  0.22368703970E+02  0.71471928585E+03  0.16294465523E+04  0.00000000000E+00 0.  1.
        -13    1    3    3    0    0 -0.44953254937E+03 -0.20863614401E+02  0.25613265501E+03  0.51780183498E+03  0.00000000000E+00 0. -1.
         22    1    1    2    0    0  0.19136951258E+04 -0.15050895690E+01  0.12720200289E+04  0.22978829939E+04  0.00000000000E+00 0. -1.
<mgrwt>
<rscale>  0 0.38378012E+04</rscale>
<asrwt>0</asrwt>
<pdfrwt beam="1">  1        2 0.51446179E+00 0.38378012E+04</pdfrwt>
<pdfrwt beam="2">  1       -2 0.16940457E+00 0.38378012E+04</pdfrwt>
<totfact> 0.17878291E-01</totfact>
</mgrwt>
</event>
<event>
 6    1  0.1568961E-005  0.2528387E+04  0.7818608E-02  0.8392942E-01
         -1   -1    0    0    0  501 -0.00000000000E+00  0.00000000000E+00  0.99433789851E+03  0.99433789851E+03  0.00000000000E+00 0.  1.
          1   -1    0    0  501    0  0.00000000000E+00 -0.00000000000E+00 -0.16072857442E+04  0.16072857442E+04  0.00000000000E+00 0. -1.
         23    2    1    2    0    0  0.95277279932E+03  0.82791480384E+03 -0.33546035773E+03  0.13092544093E+04  0.91621651886E+02 0.  0.
         11    1    3    3    0    0  0.48608581319E+03  0.38451359653E+03 -0.12753794309E+03  0.63276856008E+03  0.00000000000E+00 0.  1.
        -11    1    3    3    0    0  0.46668698613E+03  0.44340120731E+03 -0.20792241464E+03  0.67648584921E+03  0.00000000000E+00 0. -1.
         22    1    1    2    0    0 -0.95277279932E+03 -0.82791480384E+03 -0.27748748798E+03  0.12923692334E+04  0.00000000000E+00 0.  1.
<mgrwt>
<rscale>  0 0.25283869E+04</rscale>
<asrwt>0</asrwt>
<pdfrwt beam="1">  1        1 0.24727473E+00 0.25283869E+04</pdfrwt>
<pdfrwt beam="2">  1       -1 0.15297506E+00 0.25283869E+04</pdfrwt>
<totfact> 0.16171833E+00</totfact>
</mgrwt>
</event>
<event>
 6    1  0.1568961E-005  0.2930504E+04  0.7818608E-02  0.8263859E-01
          2   -1    0    0  501    0  0.00000000000E+00  0.00000000000E+00  0.18884280950E+04  0.18884280950E+04  0.00000000000E+00 0. -1.
         -2   -1    0    0    0  501 -0.00000000000E+00 -0.00000000000E+00 -0.11369048009E+04  0.11369048009E+04  0.00000000000E+00 0.  1.
         23    2    1    2    0    0 -0.13039766740E+04 -0.15468656189E+03 -0.29189336770E+03  0.13481324223E+04  0.89309523992E+02 0.  0.
         13    1    3    3    0    0 -0.97619275678E+03 -0.79426594089E+02 -0.20235084273E+03  0.10001033676E+04  0.00000000000E+00 0.  1.
        -13    1    3    3    0    0 -0.32778391721E+03 -0.75259967805E+02 -0.89542524968E+02  0.34802905470E+03  0.00000000000E+00 0. -1.
         22    1    1    2    0    0  0.13039766740E+04  0.15468656189E+03  0.10434166618E+04  0.16772004736E+04  0.00000000000E+00 0. -1.
<mgrwt>
<rscale>  0 0.29305037E+04</rscale>
<asrwt>0</asrwt>
<pdfrwt beam="1">  1        2 0.29052740E+00 0.29305037E+04</pdfrwt>
<pdfrwt beam="2">  1       -2 0.17490843E+00 0.29305037E+04</pdfrwt>
<totfact> 0.13056647E+00</totfact>
</mgrwt>
</event>
<event>
 6    1  0.1568961E-005  0.1513078E+04  0.7818608E-02  0.8875802E-01
         -2   -1    0    0    0  501 -0.00000000000E+00  0.00000000000E+00  0.23096272414E+03  0.23096272414E+03  0.00000000000E+00 0. -1.
          2   -1    0    0  501    0  0.00000000000E+00 -0.00000000000E+00 -0.24781116813E+04  0.24781116813E+04  0.00000000000E+00 0.  1.
         23    2    1    2    0    0 -0.76181037609E+02  0.11247331056E+03 -0.24551838761E+04  0.24606145021E+04  0.90785828435E+02 0.  0.
         11    1    3    3    0    0  0.15024239374E+02  0.50932719424E+02 -0.86569630492E+03  0.86732344718E+03  0.00000000000E+00 0. -1.
        -11    1    3    3    0    0 -0.91205276983E+02  0.61540591135E+02 -0.15894875711E+04  0.15932910549E+04  0.00000000000E+00 0.  1.
         22    1    1    2    0    0  0.76181037609E+02 -0.11247331056E+03  0.20803491890E+03  0.24845990333E+03  0.00000000000E+00 0. -1.
<mgrwt>
<rscale>  0 0.15130782E+04</rscale>
<asrwt>0</asrwt>
<pdfrwt beam="1">  1        2 0.38124796E+00 0.15130782E+04</pdfrwt>
<pdfrwt beam="2">  1       -2 0.35532726E-01 0.15130782E+04</pdfrwt>
<totfact> 0.25812781E+01</totfact>
</mgrwt>
</event>
<event>
 6    1  0.1568961E-005  0.3785701E+03  0.7818608E-02  0.1051464E+00
          2   -1    0    0  501    0  0.00000000000E+00  0.00000000000E+00  0.33911194831E+02  0.33911194831E+02  0.00000000000E+00 0. -1.
         -2   -1    0    0    0  501 -0.00000000000E+00 -0.00000000000E+00 -0.10565490184E+04  0.10565490184E+04  0.00000000000E+00 0.  1.
         23    2    1    2    0    0  0.30066476234E+02 -0.17301536205E+03 -0.62763851895E+03  0.65818395995E+03  0.91856987619E+02 0.  0.
         11    1    3    3    0    0 -0.23433743417E+02 -0.81756038212E+02 -0.37049521485E+03  0.38013141720E+03  0.00000000000E+00 0.  1.
        -11    1    3    3    0    0  0.53500219651E+02 -0.91259323835E+02 -0.25714330409E+03  0.27805254275E+03  0.00000000000E+00 0. -1.
         22    1    1    2    0    0 -0.30066476234E+02  0.17301536205E+03 -0.39499930461E+03  0.43227625327E+03  0.00000000000E+00 0.  1.
<mgrwt>
<rscale>  0 0.37857015E+03</rscale>
<asrwt>0</asrwt>
<pdfrwt beam="1">  1        2 0.52171072E-02 0.37857015E+03</pdfrwt>
<pdfrwt beam="2">  1       -2 0.16254599E+00 0.37857015E+03</pdfrwt>
<totfact> 0.38264649E+02</totfact>
</mgrwt>
</event>
<event>
 6    1  0.1568961E-005  0.1506753E+04  0.7818608E-02  0.8879975E-01
         -2   -1    0    0    0  501 -0.00000000000E+00  0.00000000000E+00  0.39768882618E+03  0.39768882618E+03  0.00000000000E+00 0.  1.
          2   -1    0    0  501    0  0.00000000000E+00 -0.00000000000E+00 -0.14271859432E+04  0.14271859432E+04  0.00000000000E+00 0. -1.
         23    2    1    2    0    0  0.57408968707E+03  0.14701428962E+03 -0.10744943948E+04  0.12305542118E+04  0.92375827887E+02 0.  0.
         13    1    3    3    0    0  0.22767172329E+03  0.10497013959E+03 -0.43784872968E+03  0.50454400588E+03  0.00000000000E+00 0.  1.
        -13    1    3    3    0    0  0.34641796379E+03  0.42044150023E+02 -0.63664566516E+03  0.72601020596E+03  0.00000000000E+00 0. -1.
         22    1    1    2    0    0 -0.57408968707E+03 -0.14701428962E+03  0.44997277786E+02  0.59432055758E+03  0.00000000000E+00 0.  1.
<mgrwt>
<rscale>  0 0.15067527E+04</rscale>
<asrwt>0</asrwt>
<pdfrwt beam="1">  1        2 0.21956707E+00 0.15067527E+04</pdfrwt>
<pdfrwt beam="2">  1       -2 0.61182896E-01 0.15067527E+04</pdfrwt>
<totfact> 0.33499868E+01</totfact>
</mgrwt>
</event>
<event>
 6    1  0.1568961E-005  0.1093706E+04  0.7818608E-02  0.9211348E-01
         -2   -1    0    0    0  501 -0.00000000000E+00  0.00000000000E+00  0.60494616067E+03  0.60494616067E+03  0.00000000000E+00 0.  1.
          2   -1    0    0  501    0  0.00000000000E+00 -0.00000000000E+00 -0.49433845749E+03  0.49433845749E+03  0.00000000000E+00 0. -1.
         23    2    1    2    0    0 -0.26408204214E+03  0.25960868973E+02 -0.42044918790E+03  0.50562249771E+03  0.91996189533E+02 0.  0.
         13    1    3    3    0    0 -0.20937596619E+03 -0.18726334708E+02 -0.31442430223E+03  0.37822164489E+03  0.00000000000E+00 0.  1.
        -13    1    3    3    0    0 -0.54706075944E+02  0.44687203681E+02 -0.10602488567E+03  0.12740085282E+03  0.00000000000E+00 0. -1.
         22    1    1    2    0    0  0.26408204214E+03 -0.25960868973E+02  0.53105689108E+03  0.59366212045E+03  0.00000000000E+00 0.  1.
<mgrwt>
<rscale>  0 0.10937059E+04</rscale>
<asrwt>0</asrwt>
<pdfrwt beam="1">  1        2 0.76052070E-01 0.10937059E+04</pdfrwt>
<pdfrwt beam="2">  1       -2 0.93068641E-01 0.10937059E+04</pdfrwt>
<totfact> 0.60626839E+01</totfact>
</mgrwt>
</event>
<event>
 6    1  0.1568961E-005  0.1197392E+04  0.7818608E-02  0.9115142E-01
         -2   -1    0    0    0  501 -0.00000000000E+00  0.00000000000E+00  0.62094522106E+03  0.62094522106E+03  0.00000000000E+00 0.  1.
          2   -1    0    0  501    0  0.00000000000E+00 -0.00000000000E+00 -0.57724434620E+03  0.57724434620E+03  0.00000000000E+00 0. -1.
         23    2    1    2    0    0  0.51320833566E+03 -0.28668972332E+03 -0.76342928317E+02  0.59820264413E+03  0.80276817951E+02 0.  0.
         13    1    3    3    0    0  0.74194678393E+02 -0.41702498518E+02  0.17194787662E+02  0.86830924257E+02  0.00000000000E+00 0. -1.
        -13    1    3    3    0    0  0.43901365727E+03 -0.24498722480E+03 -0.93537715979E+02  0.51137171988E+03  0.00000000000E+00 0.  1.
         22    1    1    2    0    0 -0.51320833566E+03  0.28668972332E+03  0.12004380318E+03  0.59998692313E+03  0.00000000000E+00 0.  1.
<mgrwt>
<rscale>  0 0.11973924E+04</rscale>
<asrwt>0</asrwt>
<pdfrwt beam="1">  1        2 0.88806823E-01 0.11973924E+04</pdfrwt>
<pdfrwt beam="2">  1       -2 0.95530034E-01 0.11973924E+04</pdfrwt>
<totfact> 0.47194562E+01</totfact>
</mgrwt>
</event>
<event>
 6    1  0.1568961E-005  0.1708220E+04  0.7818608E-02  0.8756690E-01
          1   -1    0    0  501    0  0.00000000000E+00  0.00000000000E+00  0.88252641730E+03  0.88252641730E+03  0.00000000000E+00 0. -1.
         -1   -1    0    0    0  501 -0.00000000000E+00 -0.00000000000E+00 -0.82660872487E+03  0.82660872487E+03  0.00000000000E+00 0.  1.
         23    2    1    2    0    0  0.37489358003E+03 -0.63480542749E+03 -0.39858341347E+03  0.84305524841E+03  0.91379906236E+02 0.  0.
         13    1    3    3    0    0  0.49923846269E+02 -0.87234300832E+02 -0.20677743944E+02  0.10261472975E+03  0.00000000000E+00 0.  1.
        -13    1    3    3    0    0  0.32496973376E+03 -0.54757112666E+03 -0.37790566953E+03  0.74044051866E+03  0.00000000000E+00 0. -1.
         22    1    1    2    0    0 -0.37489358003E+03  0.63480542749E+03  0.45450110591E+03  0.86607989376E+03  0.00000000000E+00 0. -1.
<mgrwt>
<rscale>  0 0.17082202E+04</rscale>
<asrwt>0</asrwt>
<pdfrwt beam="1">  1        1 0.13577329E+00 0.17082202E+04</pdfrwt>
<pdfrwt beam="2">  1       -1 0.12717057E+00 0.17082202E+04</pdfrwt>
<totfact> 0.95909567E+00</totfact>
</mgrwt>
</event>
<event>
 6    1  0.1568961E-005  0.4917449E+04  0.7818608E-02  0.7841369E-01
         -2   -1    0    0    0  501 -0.00000000000E+00  0.00000000000E+00  0.20536530462E+04  0.20536530462E+04  0.00000000000E+00 0.  1.
          2   -1    0    0  501    0  0.00000000000E+00 -0.00000000000E+00 -0.29436937890E+04  0.29436937890E+04  0.00000000000E+00 0. -1.
         23    2    1    2    0    0 -0.82556644564E+03  0.23077921276E+04 -0.25863585020E+03  0.24663121458E+04  0.91316138235E+02 0.  0.
         11    1    3    3    0    0 -0.15469782534E+03  0.51911424873E+03 -0.81449406244E+02  0.54776365905E+03  0.00000000000E+00 0.  1.
        -11    1    3    3    0    0 -0.67086862030E+03  0.17886778789E+04 -0.17718644395E+03  0.19185484867E+04  0.00000000000E+00 0. -1.
         22    1    1    2    0    0  0.82556644564E+03 -0.23077921276E+04 -0.63140489263E+03  0.25310346894E+04  0.00000000000E+00 0.  1.
<mgrwt>
<rscale>  0 0.49174488E+04</rscale>
<asrwt>0</asrwt>
<pdfrwt beam="1">  1        2 0.45287596E+00 0.49174488E+04</pdfrwt>
<pdfrwt beam="2">  1       -2 0.31594662E+00 0.49174488E+04</pdfrwt>
<totfact> 0.35075971E-02</totfact>
</mgrwt>
</event>
<event>
 6    1  0.1568961E-005  0.2428963E+04  0.7818608E-02  0.8428739E-01
          2   -1    0    0  501    0  0.00000000000E+00  0.00000000000E+00  0.15434678191E+04  0.15434678191E+04  0.00000000000E+00 0. -1.
         -2   -1    0    0    0  501 -0.00000000000E+00 -0.00000000000E+00 -0.95561755334E+03  0.95561755334E+03  0.00000000000E+00 0.  1.
         23    2    1    2    0    0 -0.73544081173E+03  0.84324322444E+03 -0.18532965428E+03  0.11390340823E+04  0.10544779162E+03 0.  0.
         13    1    3    3    0    0 -0.36204656988E+02  0.82987871298E+02 -0.67511879185E+01  0.90792854942E+02  0.00000000000E+00 0. -1.
        -13    1    3    3    0    0 -0.69923615475E+03  0.76025535314E+03 -0.17857846636E+03  0.10482412274E+04  0.00000000000E+00 0.  1.
         22    1    1    2    0    0  0.73544081173E+03 -0.84324322444E+03  0.77317992009E+03  0.13600512902E+04  0.00000000000E+00 0. -1.
<mgrwt>
<rscale>  0 0.24289627E+04</rscale>
<asrwt>0</asrwt>
<pdfrwt beam="1">  1        2 0.23745659E+00 0.24289627E+04</pdfrwt>
<pdfrwt beam="2">  1       -2 0.14701809E+00 0.24289627E+04</pdfrwt>
<totfact> 0.34012269E+00</totfact>
</mgrwt>
</event>
<event>
 6    1  0.1568961E-005  0.2170380E+04  0.7818608E-02  0.8530859E-01
          1   -1    0    0  501    0  0.00000000000E+00  0.00000000000E+00  0.89780082913E+03  0.89780082913E+03  0.00000000000E+00 0. -1.
         -1   -1    0    0    0  501 -0.00000000000E+00 -0.00000000000E+00 -0.13116908784E+04  0.13116908784E+04  0.00000000000E+00 0.  1.
         23    2    1    2    0    0 -0.53916361573E+03 -0.80536908871E+03  0.28524589471E+03  0.10144570462E+04  0.91875484218E+02 0.  0.
         11    1    3    3    0    0 -0.40058409856E+03 -0.56119891273E+03  0.24001751959E+03  0.73008235794E+03  0.00000000000E+00 0. -1.
        -11    1    3    3    0    0 -0.13857951717E+03 -0.24417017598E+03  0.45228375123E+02  0.28437468828E+03  0.00000000000E+00 0.  1.
         22    1    1    2    0    0  0.53916361573E+03  0.80536908871E+03 -0.69913594395E+03  0.11950346613E+04  0.00000000000E+00 0.  1.
<mgrwt>
<rscale>  0 0.21703798E+04</rscale>
<asrwt>0</asrwt>
<pdfrwt beam="1">  1        1 0.13812321E+00 0.21703798E+04</pdfrwt>
<pdfrwt beam="2">  1       -1 0.20179860E+00 0.21703798E+04</pdfrwt>
<totfact> 0.24428851E+00</totfact>
</mgrwt>
</event>
<event>
 6    1  0.1568961E-005  0.2227867E+04  0.7818608E-02  0.8506918E-01
         -1   -1    0    0    0  501 -0.00000000000E+00  0.00000000000E+00  0.83388288805E+03  0.83388288805E+03  0.00000000000E+00 0.  1.
          1   -1    0    0  501    0  0.00000000000E+00 -0.00000000000E+00 -0.14880359224E+04  0.14880359224E+04  0.00000000000E+00 0. -1.
         23    2    1    2    0    0  0.10801571925E+04 -0.96264920652E+01 -0.60340265064E+03  0.12405271925E+04  0.89334913282E+02 0.  0.
         13    1    3    3    0    0  0.86392163738E+03  0.28089942637E+02 -0.47911579229E+03  0.98828213727E+03  0.00000000000E+00 0. -1.
        -13    1    3    3    0    0  0.21623555510E+03 -0.37716434702E+02 -0.12428685835E+03  0.25224505524E+03  0.00000000000E+00 0.  1.
         22    1    1    2    0    0 -0.10801571925E+04  0.96264920652E+01 -0.50750383658E+02  0.10813916179E+04  0.00000000000E+00 0.  1.
<mgrwt>
<rscale>  0 0.22278669E+04</rscale>
<asrwt>0</asrwt>
<pdfrwt beam="1">  1        1 0.22892860E+00 0.22278669E+04</pdfrwt>
<pdfrwt beam="2">  1       -1 0.12828968E+00 0.22278669E+04</pdfrwt>
<totfact> 0.31802117E+00</totfact>
</mgrwt>
</event>
<event>
 6    1  0.1568961E-005  0.3959523E+04  0.7818608E-02  0.8012762E-01
         -1   -1    0    0    0  501 -0.00000000000E+00  0.00000000000E+00  0.30937281691E+04  0.30937281691E+04  0.00000000000E+00 0.  1.
          1   -1    0    0  501    0  0.00000000000E+00 -0.00000000000E+00 -0.12669037810E+04  0.12669037810E+04  0.00000000000E+00 0. -1.
         23    2    1    2    0    0  0.23434658196E+03  0.47851713455E+03 -0.11847609486E+04  0.13022756582E+04  0.91468115062E+02 0.  0.
         13    1    3    3    0    0  0.16699914262E+02  0.92944239750E+02 -0.15718144373E+03  0.18336718652E+03  0.00000000000E+00 0. -1.
        -13    1    3    3    0    0  0.21764666770E+03  0.38557289480E+03 -0.10275795049E+04  0.11189084717E+04  0.00000000000E+00 0.  1.
         22    1    1    2    0    0 -0.23434658196E+03 -0.47851713455E+03  0.30115853367E+04  0.30583562920E+04  0.00000000000E+00 0.  1.
<mgrwt>
<rscale>  0 0.39595232E+04</rscale>
<asrwt>0</asrwt>
<pdfrwt beam="1">  1        1 0.19490828E+00 0.39595232E+04</pdfrwt>
<pdfrwt beam="2">  1       -1 0.47595818E+00 0.39595232E+04</pdfrwt>
<totfact> 0.16137932E-02</totfact>
</mgrwt>
</event>
<event>
 6    1  0.1568961E-005  0.3846171E+04  0.7818608E-02  0.8036319E-01
          2   -1    0    0  501    0  0.00000000000E+00  0.00000000000E+00  0.26211024255E+04  0.26211024255E+04  0.00000000000E+00 0.  1.
         -2   -1    0    0    0  501 -0.00000000000E+00 -0.00000000000E+00 -0.14109548709E+04  0.14109548709E+04  0.00000000000E+00 0. -1.
         23    2    1    2    0    0 -0.19246348692E+03  0.29438699255E+03  0.25863205361E+04  0.26116496189E+04  0.89184760599E+02 0.  0.
         11    1    3    3    0    0 -0.48697618929E+02  0.80407476312E+02  0.10126604384E+04  0.10170142495E+04  0.00000000000E+00 0.  1.
        -11    1    3    3    0    0 -0.14376586799E+03  0.21397951624E+03  0.15736600977E+04  0.15946353694E+04  0.00000000000E+00 0. -1.
         22    1    1    2    0    0  0.19246348692E+03 -0.29438699255E+03 -0.13761729815E+04  0.14204076774E+04  0.00000000000E+00 0. -1.
<mgrwt>
<rscale>  0 0.38461707E+04</rscale>
<asrwt>0</asrwt>
<pdfrwt beam="1">  1        2 0.40324653E+00 0.38461707E+04</pdfrwt>
<pdfrwt beam="2">  1       -2 0.21706998E+00 0.38461707E+04</pdfrwt>
<totfact> 0.24368422E-01</totfact>
</mgrwt>
</event>
<event>
 6    1  0.1568961E-005  0.1564418E+04  0.7818608E-02  0.8842711E-01
          2   -1    0    0  501    0  0.00000000000E+00  0.00000000000E+00  0.11786243029E+04  0.11786243029E+04  0.00000000000E+00 0. -1.
         -2   -1    0    0    0  501 -0.00000000000E+00 -0.00000000000E+00 -0.51912268556E+03  0.51912268556E+03  0.00000000000E+00 0.  1.
         23    2    1    2    0    0  0.35198432347E+03 -0.25432298010E+03  0.10332775507E+04  0.11247883595E+04  0.94409823513E+02 0.  0.
         13    1    3    3    0    0  0.21916519200E+03 -0.19333191192E+03  0.59728590933E+03  0.66495192836E+03  0.00000000000E+00 0.  1.
        -13    1    3    3    0    0  0.13281913147E+03 -0.60991068176E+02  0.43599164135E+03  0.45983643114E+03  0.00000000000E+00 0. -1.
         22    1    1    2    0    0 -0.35198432347E+03  0.25432298010E+03 -0.37377593333E+03  0.57295862897E+03  0.00000000000E+00 0.  1.
<mgrwt>
<rscale>  0 0.15644176E+04</rscale>
<asrwt>0</asrwt>
<pdfrwt beam="1">  1        2 0.18132681E+00 0.15644176E+04</pdfrwt>
<pdfrwt beam="2">  1       -2 0.79865029E-01 0.15644176E+04</pdfrwt>
<totfact> 0.26032115E+01</totfact>
</mgrwt>
</event>
<event>
 6    1  0.1568961E-005  0.1858542E+04  0.7818608E-02  0.8675772E-01
         -2   -1    0    0    0  501 -0.00000000000E+00  0.00000000000E+00  0.11217265507E+04  0.11217265507E+04  0.00000000000E+00 0.  1.
          2   -1    0    0  501    0  0.00000000000E+00 -0.00000000000E+00 -0.76983523822E+03  0.76983523822E+03  0.00000000000E+00 0. -1.
         23    2    1    2    0    0  0.51057803362E+01  0.72276451245E+03 -0.41449586653E+03  0.83810845934E+03  0.90577904539E+02 0.  0.
         13    1    3    3    0    0  0.95429693606E+01  0.68625508480E+03 -0.36777870031E+03  0.77865157938E+03  0.00000000000E+00 0. -1.
        -13    1    3    3    0    0 -0.44371890244E+01  0.36509427655E+02 -0.46717166226E+02  0.59456879958E+02  0.00000000000E+00 0.  1.
         22    1    1    2    0    0 -0.51057803362E+01 -0.72276451245E+03  0.76638717904E+03  0.10534533296E+04  0.00000000000E+00 0.  1.
<mgrwt>
<rscale>  0 0.18585420E+04</rscale>
<asrwt>0</asrwt>
<pdfrwt beam="1">  1        2 0.11843619E+00 0.18585420E+04</pdfrwt>
<pdfrwt beam="2">  1       -2 0.17257331E+00 0.18585420E+04</pdfrwt>
<totfact> 0.69560766E+00</totfact>
</mgrwt>
</event>
<event>
 6    1  0.1568961E-005  0.2543851E+04  0.7818608E-02  0.8387528E-01
         -2   -1    0    0    0  501 -0.00000000000E+00  0.00000000000E+00  0.10969627893E+04  0.10969627893E+04  0.00000000000E+00 0. -1.
          2   -1    0    0  501    0  0.00000000000E+00 -0.00000000000E+00 -0.14747945650E+04  0.14747945650E+04  0.00000000000E+00 0.  1.
         23    2    1    2    0    0  0.73694520465E+03 -0.10053175783E+04 -0.43704822525E+03  0.13238558134E+04  0.88495172798E+02 0.  0.
         11    1    3    3    0    0  0.45931317660E+03 -0.60174097604E+03 -0.30820566729E+03  0.81734419298E+03  0.00000000000E+00 0.  1.
        -11    1    3    3    0    0  0.27763202804E+03 -0.40357660228E+03 -0.12884255796E+03  0.50651162044E+03  0.00000000000E+00 0. -1.
         22    1    1    2    0    0 -0.73694520465E+03  0.10053175783E+04  0.59216449546E+02  0.12479015409E+04  0.00000000000E+00 0. -1.
<mgrwt>
<rscale>  0 0.25438512E+04</rscale>
<asrwt>0</asrwt>
<pdfrwt beam="1">  1        2 0.22689147E+00 0.25438512E+04</pdfrwt>
<pdfrwt beam="2">  1       -2 0.16876351E+00 0.25438512E+04</pdfrwt>
<totfact> 0.25359450E+00</totfact>
</mgrwt>
</event>
<event>
 6    1  0.1568961E-005  0.1233875E+04  0.7818608E-02  0.9083712E-01
          1   -1    0    0  501    0  0.00000000000E+00  0.00000000000E+00  0.41361464634E+03  0.41361464634E+03  0.00000000000E+00 0. -1.
         -1   -1    0    0    0  501 -0.00000000000E+00 -0.00000000000E+00 -0.92020885117E+03  0.92020885117E+03  0.00000000000E+00 0.  1.
         23    2    1    2    0    0  0.50529215718E+03  0.97257096315E+02  0.10747143656E+03  0.53266451278E+03  0.86036426040E+02 0.  0.
         11    1    3    3    0    0  0.42325393751E+03  0.10513467396E+03  0.68366553709E+02  0.44144216037E+03  0.00000000000E+00 0.  1.
        -11    1    3    3    0    0  0.82038219665E+02 -0.78775776405E+01  0.39104882852E+02  0.91222352404E+02  0.00000000000E+00 0. -1.
         22    1    1    2    0    0 -0.50529215718E+03 -0.97257096315E+02 -0.61406564139E+03  0.80115898473E+03  0.00000000000E+00 0.  1.
<mgrwt>
<rscale>  0 0.12338750E+04</rscale>
<asrwt>0</asrwt>
<pdfrwt beam="1">  1        1 0.63633023E-01 0.12338750E+04</pdfrwt>
<pdfrwt beam="2">  1       -1 0.14157059E+00 0.12338750E+04</pdfrwt>
<totfact> 0.23060176E+01</totfact>
</mgrwt>
</event>
<event>
 6    1  0.1568961E-005  0.3150913E+04  0.7818608E-02  0.8201902E-01
         -1   -1    0    0    0  501 -0.00000000000E+00  0.00000000000E+00  0.69789979385E+03  0.69789979385E+03  0.00000000000E+00 0.  1.
          1   -1    0    0  501    0  0.00000000000E+00 -0.00000000000E+00 -0.35564758757E+04  0.35564758757E+04  0.00000000000E+00 0. -1.
         23    2    1    2    0    0  0.10671187509E+04 -0.52122891565E+03 -0.35531076411E+02  0.11916962685E+04  0.91953944703E+02 0.  0.
         11    1    3    3    0    0  0.72522099885E+03 -0.36920062305E+03  0.16270273708E+02  0.81395289731E+03  0.00000000000E+00 0. -1.
        -11    1    3    3    0    0  0.34189775202E+03 -0.15202829260E+03 -0.51801350119E+02  0.37774337117E+03  0.00000000000E+00 0.  1.
         22    1    1    2    0    0 -0.10671187509E+04  0.52122891565E+03 -0.28230450054E+04  0.30626794010E+04  0.00000000000E+00 0. -1.
<mgrwt>
<rscale>  0 0.31509134E+04</rscale>
<asrwt>0</asrwt>
<pdfrwt beam="1">  1        1 0.54715012E+00 0.31509134E+04</pdfrwt>
<pdfrwt beam="2">  1       -1 0.10736920E+00 0.31509134E+04</pdfrwt>
<totfact> 0.15283260E-01</totfact>
</mgrwt>
</event>
<event>
 6    1  0.1568961E-005  0.2498902E+04  0.7818608E-02  0.8403377E-01
          2   -1    0    0  501    0  0.00000000000E+00  0.00000000000E+00  0.15624149225E+04  0.15624149225E+04  0.00000000000E+00 0. -1.
         -2   -1    0    0    0  501 -0.00000000000E+00 -0.00000000000E+00 -0.99917595185E+03  0.99917595185E+03  0.00000000000E+00 0.  1.
         23    2    1    2    0    0 -0.63479786960E+03  0.47153753961E+03  0.12714034304E+04  0.15000764428E+04  0.91905738776E+02 0.  0.
         11    1    3    3    0    0 -0.47162803606E+03  0.39793271768E+03  0.98903397737E+03  0.11657493987E+04  0.00000000000E+00 0. -1.
        -11    1    3    3    0    0 -0.16316983354E+03  0.73604821936E+02  0.28236945302E+03  0.33432704406E+03  0.00000000000E+00 0.  1.
         22    1    1    2    0    0  0.63479786960E+03 -0.47153753961E+03 -0.70816445972E+03  0.10615144316E+04  0.00000000000E+00 0.  1.
<mgrwt>
<rscale>  0 0.24989017E+04</rscale>
<asrwt>0</asrwt>
<pdfrwt beam="1">  1        2 0.24037153E+00 0.24989017E+04</pdfrwt>
<pdfrwt beam="2">  1       -2 0.15371938E+00 0.24989017E+04</pdfrwt>
<totfact> 0.29314083E+00</totfact>
</mgrwt>
</event>
<event>
 6    1  0.1568961E-005  0.3010506E+04  0.7818608E-02  0.8240737E-01
          2   -1    0    0  501    0  0.00000000000E+00  0.00000000000E+00  0.35662282909E+04  0.35662282909E+04  0.00000000000E+00 0.  1.
         -2   -1    0    0    0  501 -0.00000000000E+00 -0.00000000000E+00 -0.63534516631E+03  0.63534516631E+03  0.00000000000E+00 0. -1.
         23    2    1    2    0    0  0.38775834949E+03 -0.19025636284E+02  0.34945067916E+04  0.35171831077E+04  0.90998813507E+02 0.  0.
         11    1    3    3    0    0  0.35694226663E+03 -0.91314301051E+01  0.29173067936E+04  0.29390764013E+04  0.00000000000E+00 0.  1.
        -11    1    3    3    0    0  0.30816082865E+02 -0.98942061786E+01  0.57719999802E+03  0.57810670640E+03  0.00000000000E+00 0. -1.
         22    1    1    2    0    0 -0.38775834949E+03  0.19025636284E+02 -0.56362366704E+03  0.68439034950E+03  0.00000000000E+00 0. -1.
<mgrwt>
<rscale>  0 0.30105055E+04</rscale>
<asrwt>0</asrwt>
<pdfrwt beam="1">  1        2 0.54865049E+00 0.30105055E+04</pdfrwt>
<pdfrwt beam="2">  1       -2 0.97745412E-01 0.30105055E+04</pdfrwt>
<totfact> 0.54375947E-01</totfact>
</mgrwt>
</event>
<event>
 6    1  0.1568961E-005  0.1960359E+04  0.7818608E-02  0.8625381E-01
          2   -1    0    0  501    0  0.00000000000E+00  0.00000000000E+00  0.29002326528E+04  0.29002326528E+04  0.00000000000E+00 0. -1.
         -2   -1    0    0    0  501 -0.00000000000E+00 -0.00000000000E+00 -0.33126729451E+03  0.33126729451E+03  0.00000000000E+00 0.  1.
         23    2    1    2    0    0 -0.83350473562E+03 -0.88676883009E+01  0.44387602411E+03  0.94877932086E+03  0.91364625022E+02 0.  0.
         13    1    3    3    0    0 -0.24774536799E+03 -0.41612767797E+02  0.15039478546E+03  0.29279341062E+03  0.00000000000E+00 0.  1.
        -13    1    3    3    0    0 -0.58575936763E+03  0.32745079496E+02  0.29348123865E+03  0.65598591024E+03  0.00000000000E+00 0. -1.
         22    1    1    2    0    0  0.83350473562E+03  0.88676883009E+01  0.21250893342E+04  0.22827206264E+04  0.00000000000E+00 0. -1.
<mgrwt>
<rscale>  0 0.19603594E+04</rscale>
<asrwt>0</asrwt>
<pdfrwt beam="1">  1        2 0.44618962E+00 0.19603594E+04</pdfrwt>
<pdfrwt beam="2">  1       -2 0.50964201E-01 0.19603594E+04</pdfrwt>
<totfact> 0.68267923E+00</totfact>
</mgrwt>
</event>
<event>
 6    1  0.1568961E-005  0.2920118E+04  0.7818608E-02  0.8266917E-01
         -2   -1    0    0    0  501 -0.00000000000E+00  0.00000000000E+00  0.74945773316E+03  0.74945773316E+03  0.00000000000E+00 0.  1.
          2   -1    0    0  501    0  0.00000000000E+00 -0.00000000000E+00 -0.28444198339E+04  0.28444198339E+04  0.00000000000E+00 0. -1.
         23    2    1    2    0    0 -0.64567012593E+03  0.77698948980E+03 -0.23434835561E+04  0.25535096068E+04  0.88845685075E+02 0.  0.
         13    1    3    3    0    0 -0.33707442151E+03  0.47381010224E+03 -0.13579212650E+04  0.14771815530E+04  0.00000000000E+00 0.  1.
        -13    1    3    3    0    0 -0.30859570441E+03  0.30317938756E+03 -0.98556229112E+03  0.10763280539E+04  0.00000000000E+00 0. -1.
         22    1    1    2    0    0  0.64567012593E+03 -0.77698948980E+03  0.24852145539E+03  0.10403679602E+04  0.00000000000E+00 0.  1.
<mgrwt>
<rscale>  0 0.29201181E+04</rscale>
<asrwt>0</asrwt>
<pdfrwt beam="1">  1        2 0.43760306E+00 0.29201181E+04</pdfrwt>
<pdfrwt beam="2">  1       -2 0.11530119E+00 0.29201181E+04</pdfrwt>
<totfact> 0.10965094E+00</totfact>
</mgrwt>
</event>
<event>
 6    1  0.1568961E-005  0.1060109E+04  0.7818608E-02  0.9244969E-01
          2   -1    0    0  501    0  0.00000000000E+00  0.00000000000E+00  0.10300163371E+04  0.10300163371E+04  0.00000000000E+00 0. -1.
         -2   -1    0    0    0  501 -0.00000000000E+00 -0.00000000000E+00 -0.27277005076E+03  0.27277005076E+03  0.00000000000E+00 0.  1.
         23    2    1    2    0    0  0.20003105637E+03 -0.30636255185E+03 -0.83573904882E+02  0.38580818166E+03  0.89403125063E+02 0.  0.
         11    1    3    3    0    0  0.93097320508E+02 -0.87293859954E+02 -0.59615772019E+02  0.14085939566E+03  0.00000000000E+00 0. -1.
        -11    1    3    3    0    0  0.10693373586E+03 -0.21906869190E+03 -0.23958132862E+02  0.24494878600E+03  0.00000000000E+00 0.  1.
         22    1    1    2    0    0 -0.20003105637E+03  0.30636255185E+03  0.84082019119E+03  0.91697820617E+03  0.00000000000E+00 0. -1.
<mgrwt>
<rscale>  0 0.10601087E+04</rscale>
<asrwt>0</asrwt>
<pdfrwt beam="1">  1        2 0.15846405E+00 0.10601087E+04</pdfrwt>
<pdfrwt beam="2">  1       -2 0.41964624E-01 0.10601087E+04</pdfrwt>
<totfact> 0.12897308E+02</totfact>
</mgrwt>
</event>
<event>
 6    1  0.1568961E-005  0.3888484E+04  0.7818608E-02  0.8027429E-01
          2   -1    0    0  501    0  0.00000000000E+00  0.00000000000E+00  0.24489506170E+04  0.24489506170E+04  0.00000000000E+00 0. -1.
         -2   -1    0    0    0  501 -0.00000000000E+00 -0.00000000000E+00 -0.15435496692E+04  0.15435496692E+04  0.00000000000E+00 0.  1.
         23    2    1    2    0    0  0.97228685913E+03 -0.16701192305E+04  0.66164299621E+03  0.20446661250E+04  0.90819203275E+02 0.  0.
         13    1    3    3    0    0  0.45933611874E+03 -0.69961386926E+03  0.28750720099E+03  0.88493481492E+03  0.00000000000E+00 0.  1.
        -13    1    3    3    0    0  0.51295074039E+03 -0.97050536125E+03  0.37413579522E+03  0.11597313101E+04  0.00000000000E+00 0. -1.
         22    1    1    2    0    0 -0.97228685913E+03  0.16701192305E+04  0.24375795165E+03  0.19478341612E+04  0.00000000000E+00 0.  1.
<mgrwt>
<rscale>  0 0.38884840E+04</rscale>
<asrwt>0</asrwt>
<pdfrwt beam="1">  1        2 0.37676163E+00 0.38884840E+04</pdfrwt>
<pdfrwt beam="2">  1       -2 0.23746918E+00 0.38884840E+04</pdfrwt>
<totfact> 0.22779835E-01</totfact>
</mgrwt>
</event>
<event>
 6    1  0.1568961E-005  0.1146843E+04  0.7818608E-02  0.9160701E-01
          1   -1    0    0  501    0  0.00000000000E+00  0.00000000000E+00  0.16994751340E+04  0.16994751340E+04  0.00000000000E+00 0. -1.
         -1   -1    0    0    0  501 -0.00000000000E+00 -0.00000000000E+00 -0.19347851987E+03  0.19347851987E+03  0.00000000000E+00 0.  1.
         23    2    1    2    0    0  0.55647275193E+03 -0.10224547563E+01  0.96037241152E+03  0.11136149987E+04  0.90333976859E+02 0.  0.
         11    1    3    3    0    0  0.17795799049E+03  0.40491136638E+02  0.33265836924E+03  0.37943401159E+03  0.00000000000E+00 0. -1.
        -11    1    3    3    0    0  0.37851476144E+03 -0.41513591395E+02  0.62771404228E+03  0.73418098707E+03  0.00000000000E+00 0.  1.
         22    1    1    2    0    0 -0.55647275193E+03  0.10224547563E+01  0.54562420264E+03  0.77933865525E+03  0.00000000000E+00 0. -1.
<mgrwt>
<rscale>  0 0.11468425E+04</rscale>
<asrwt>0</asrwt>
<pdfrwt beam="1">  1        1 0.26145770E+00 0.11468425E+04</pdfrwt>
<pdfrwt beam="2">  1       -1 0.29765927E-01 0.11468425E+04</pdfrwt>
<totfact> 0.49043162E+01</totfact>
</mgrwt>
</event>
<event>
 6    1  0.1981170E-005  0.2861928E+04  0.7818608E-02  0.8284296E-01
         -2   -1    0    0    0  501 -0.00000000000E+00  0.00000000000E+00  0.17303722182E+04  0.17303722182E+04  0.00000000000E+00 0.  1.
          2   -1    0    0  501    0  0.00000000000E+00 -0.00000000000E+00 -0.11833623673E+04  0.11833623673E+04  0.00000000000E+00 0. -1.
         23    2    1    2    0    0 -0.50030365649E+03 -0.59685759190E+02  0.16356354164E+04  0.17141630951E+04  0.95842383554E+02 0.  0.
         11    1    3    3    0    0 -0.22962146235E+03  0.11210710110E+02  0.83352945183E+03  0.86465197800E+03  0.00000000000E+00 0. -1.
        -11    1    3    3    0    0 -0.27068219413E+03 -0.70896469301E+02  0.80210596459E+03  0.84951111706E+03  0.00000000000E+00 0.  1.
         22    1    1    2    0    0  0.50030365649E+03  0.59685759190E+02 -0.10886255655E+04  0.11995714904E+04  0.00000000000E+00 0. -1.
<mgrwt>
<rscale>  0 0.28619276E+04</rscale>
<asrwt>0</asrwt>
<pdfrwt beam="1">  1        2 0.18205575E+00 0.28619276E+04</pdfrwt>
<pdfrwt beam="2">  1       -2 0.26621111E+00 0.28619276E+04</pdfrwt>
<totfact> 0.85776633E-01</totfact>
</mgrwt>
</event>
<event>
 6    1  0.1568961E-005  0.1060677E+04  0.7818608E-02  0.9244390E-01
         -2   -1    0    0    0  501 -0.00000000000E+00  0.00000000000E+00  0.10527558618E+03  0.10527558618E+03  0.00000000000E+00 0.  1.
          2   -1    0    0  501    0  0.00000000000E+00 -0.00000000000E+00 -0.26716432650E+04  0.26716432650E+04  0.00000000000E+00 0. -1.
         23    2    1    2    0    0 -0.45683527926E+03  0.20045942692E+03 -0.17332881953E+04  0.18058864727E+04  0.89752604757E+02 0.  0.
         11    1    3    3    0    0 -0.22994674906E+03  0.59569394763E+02 -0.90175930052E+03  0.93252016400E+03  0.00000000000E+00 0. -1.
        -11    1    3    3    0    0 -0.22688853020E+03  0.14089003216E+03 -0.83152889480E+03  0.87336630870E+03  0.00000000000E+00 0.  1.
         22    1    1    2    0    0  0.45683527926E+03 -0.20045942692E+03 -0.83307948350E+03  0.97103237848E+03  0.00000000000E+00 0.  1.
<mgrwt>
<rscale>  0 0.10606768E+04</rscale>
<asrwt>0</asrwt>
<pdfrwt beam="1">  1        2 0.41102202E+00 0.10606768E+04</pdfrwt>
<pdfrwt beam="2">  1       -2 0.16196245E-01 0.10606768E+04</pdfrwt>
<totfact> 0.85792798E+01</totfact>
</mgrwt>
</event>
<event>
 6    1  0.1568961E-005  0.1988179E+04  0.7818608E-02  0.8612167E-01
         -1   -1    0    0    0  501 -0.00000000000E+00  0.00000000000E+00  0.82281167461E+03  0.82281167461E+03  0.00000000000E+00 0.  1.
          1   -1    0    0  501    0  0.00000000000E+00 -0.00000000000E+00 -0.12010208369E+04  0.12010208369E+04  0.00000000000E+00 0. -1.
         23    2    1    2    0    0 -0.58818935468E+03  0.43567528697E+03  0.49193608863E+03  0.88676064470E+03  0.92540007858E+02 0.  0.
         11    1    3    3    0    0 -0.26390009259E+03  0.17109892024E+03  0.26128399906E+03  0.40888559224E+03  0.00000000000E+00 0. -1.
        -11    1    3    3    0    0 -0.32428926209E+03  0.26457636673E+03  0.23065208957E+03  0.47787505246E+03  0.00000000000E+00 0.  1.
         22    1    1    2    0    0  0.58818935468E+03 -0.43567528697E+03 -0.87014525095E+03  0.11370718669E+04  0.00000000000E+00 0. -1.
<mgrwt>
<rscale>  0 0.19881790E+04</rscale>
<asrwt>0</asrwt>
<pdfrwt beam="1">  1        1 0.18477244E+00 0.19881790E+04</pdfrwt>
<pdfrwt beam="2">  1       -1 0.12658641E+00 0.19881790E+04</pdfrwt>
<totfact> 0.53720050E+00</totfact>
</mgrwt>
</event>
<event>
 6    1  0.1568961E-005  0.3169305E+04  0.7818608E-02  0.8196971E-01
          2   -1    0    0  501    0  0.00000000000E+00  0.00000000000E+00  0.17037864249E+04  0.17037864249E+04  0.00000000000E+00 0. -1.
         -2   -1    0    0    0  501 -0.00000000000E+00 -0.00000000000E+00 -0.14738489253E+04  0.14738489253E+04  0.00000000000E+00 0.  1.
         23    2    1    2    0    0 -0.13781153624E+04  0.77899900600E+03  0.11988481293E+03  0.15907664214E+04  0.10061826691E+03 0.  0.
         13    1    3    3    0    0 -0.63162545788E+03  0.33179550438E+03  0.99141226517E+02  0.72032489792E+03  0.00000000000E+00 0. -1.
        -13    1    3    3    0    0 -0.74648990450E+03  0.44720350162E+03  0.20743586413E+02  0.87044152345E+03  0.00000000000E+00 0.  1.
         22    1    1    2    0    0  0.13781153624E+04 -0.77899900600E+03  0.11005268676E+03  0.15868689288E+04  0.00000000000E+00 0. -1.
<mgrwt>
<rscale>  0 0.31693052E+04</rscale>
<asrwt>0</asrwt>
<pdfrwt beam="1">  1        2 0.26212099E+00 0.31693052E+04</pdfrwt>
<pdfrwt beam="2">  1       -2 0.22674599E+00 0.31693052E+04</pdfrwt>
<totfact> 0.73834508E-01</totfact>
</mgrwt>
</event>
<event>
 6    1  0.1568961E-005  0.1750522E+04  0.7818608E-02  0.8733063E-01
         -1   -1    0    0    0  501 -0.00000000000E+00  0.00000000000E+00  0.12874912469E+04  0.12874912469E+04  0.00000000000E+00 0.  1.
          1   -1    0    0  501    0  0.00000000000E+00 -0.00000000000E+00 -0.59501927992E+03  0.59501927992E+03  0.00000000000E+00 0. -1.
         23    2    1    2    0    0  0.40900078899E+03 -0.38619758235E+03  0.10649899104E+04  0.12078255366E+04  0.90602426116E+02 0.  0.
         13    1    3    3    0    0  0.33751424955E+03 -0.28409369707E+03  0.76710390250E+03  0.88491439958E+03  0.00000000000E+00 0. -1.
        -13    1    3    3    0    0  0.71486539445E+02 -0.10210388528E+03  0.29788600788E+03  0.32291113700E+03  0.00000000000E+00 0.  1.
         22    1    1    2    0    0 -0.40900078899E+03  0.38619758235E+03 -0.37251794335E+03  0.67468499029E+03  0.00000000000E+00 0. -1.
<mgrwt>
<rscale>  0 0.17505223E+04</rscale>
<asrwt>0</asrwt>
<pdfrwt beam="1">  1        1 0.91541428E-01 0.17505223E+04</pdfrwt>
<pdfrwt beam="2">  1       -1 0.19807558E+00 0.17505223E+04</pdfrwt>
<totfact> 0.50965348E+00</totfact>
</mgrwt>
</event>
<event>
 6    1  0.1568961E-005  0.2398808E+04  0.7818608E-02  0.8439950E-01
         -2   -1    0    0    0  501 -0.00000000000E+00  0.00000000000E+00  0.44139397676E+04  0.44139397676E+04  0.00000000000E+00 0.  1.
          2   -1    0    0  501    0  0.00000000000E+00 -0.00000000000E+00 -0.32591507244E+03  0.32591507244E+03  0.00000000000E+00 0. -1.
         23    2    1    2    0    0  0.50645973515E+02  0.29235713729E+03  0.43396833176E+04  0.43507921554E+04  0.92213728037E+02 0.  0.
         11    1    3    3    0    0  0.34117179090E+02  0.28208491981E+03  0.37335885448E+04  0.37443850371E+04  0.00000000000E+00 0. -1.
        -11    1    3    3    0    0  0.16528794425E+02  0.10272217475E+02  0.60609477280E+03  0.60640711829E+03  0.00000000000E+00 0.  1.
         22    1    1    2    0    0 -0.50645973515E+02 -0.29235713729E+03 -0.25165862245E+03  0.38906268468E+03  0.00000000000E+00 0. -1.
<mgrwt>
<rscale>  0 0.23988076E+04</rscale>
<asrwt>0</asrwt>
<pdfrwt beam="1">  1        2 0.50140783E-01 0.23988076E+04</pdfrwt>
<pdfrwt beam="2">  1       -2 0.67906761E+00 0.23988076E+04</pdfrwt>
<totfact> 0.23875330E-02</totfact>
</mgrwt>
</event>
<event>
 6    1  0.1568961E-005  0.3725241E+04  0.7818608E-02  0.8062391E-01
         -1   -1    0    0    0  501 -0.00000000000E+00  0.00000000000E+00  0.11935356898E+04  0.11935356898E+04  0.00000000000E+00 0.  1.
          1   -1    0    0  501    0  0.00000000000E+00 -0.00000000000E+00 -0.29067878782E+04  0.29067878782E+04  0.00000000000E+00 0. -1.
         23    2    1    2    0    0 -0.45417600017E+02  0.13215002646E+04  0.58497757224E+03  0.14488549673E+04  0.92499991184E+02 0.  0.
         11    1    3    3    0    0 -0.58528305082E+02  0.98234369145E+03  0.39962696575E+03  0.10621329495E+04  0.00000000000E+00 0.  1.
        -11    1    3    3    0    0  0.13110705066E+02  0.33915657319E+03  0.18535060649E+03  0.38672201780E+03  0.00000000000E+00 0. -1.
         22    1    1    2    0    0  0.45417600017E+02 -0.13215002646E+04 -0.22982297606E+04  0.26514686007E+04  0.00000000000E+00 0. -1.
<mgrwt>
<rscale>  0 0.37252410E+04</rscale>
<asrwt>0</asrwt>
<pdfrwt beam="1">  1        1 0.44719813E+00 0.37252410E+04</pdfrwt>
<pdfrwt beam="2">  1       -1 0.18362088E+00 0.37252410E+04</pdfrwt>
<totfact> 0.10959463E-01</totfact>
</mgrwt>
</event>
<event>
 6    1  0.1568961E-005  0.1473831E+04  0.7818608E-02  0.8902044E-01
         -2   -1    0    0    0  501 -0.00000000000E+00  0.00000000000E+00  0.85547273652E+03  0.85547273652E+03  0.00000000000E+00 0.  1.
          2   -1    0    0  501    0  0.00000000000E+00 -0.00000000000E+00 -0.63478839086E+03  0.63478839086E+03  0.00000000000E+00 0. -1.
         23    2    1    2    0    0  0.22631068939E+02  0.73363549654E+03  0.10605962234E+03  0.74738022558E+03  0.92711116013E+02 0.  0.
         11    1    3    3    0    0  0.57678734805E+02  0.51634039299E+03  0.81623031751E+02  0.52592447860E+03  0.00000000000E+00 0. -1.
        -11    1    3    3    0    0 -0.35047665866E+02  0.21729510355E+03  0.24436590586E+02  0.22145574698E+03  0.00000000000E+00 0.  1.
         22    1    1    2    0    0 -0.22631068939E+02 -0.73363549654E+03  0.11462472333E+03  0.74288090180E+03  0.00000000000E+00 0. -1.
<mgrwt>
<rscale>  0 0.14738306E+04</rscale>
<asrwt>0</asrwt>
<pdfrwt beam="1">  1        2 0.97659753E-01 0.14738306E+04</pdfrwt>
<pdfrwt beam="2">  1       -2 0.13161119E+00 0.14738306E+04</pdfrwt>
<totfact> 0.18858312E+01</totfact>
</mgrwt>
</event>
<event>
 6    1  0.1568961E-005  0.3838527E+04  0.7818608E-02  0.8037937E-01
          2   -1    0    0  501    0  0.00000000000E+00  0.00000000000E+00  0.25106098976E+04  0.25106098976E+04  0.00000000000E+00 0.  1.
         -2   -1    0    0    0  501 -0.00000000000E+00 -0.00000000000E+00 -0.14672019590E+04  0.14672019590E+04  0.00000000000E+00 0. -1.
         23    2    1    2    0    0  0.92914007157E+03 -0.14962469890E+04  0.13095320919E+04  0.21965543262E+04  0.88995974446E+02 0.  0.
         13    1    3    3    0    0  0.51704273796E+03 -0.91269208447E+03  0.76508386988E+03  0.12983425441E+04  0.00000000000E+00 0. -1.
        -13    1    3    3    0    0  0.41209733361E+03 -0.58355490453E+03  0.54444822199E+03  0.89821178204E+03  0.00000000000E+00 0.  1.
         22    1    1    2    0    0 -0.92914007157E+03  0.14962469890E+04 -0.26612415332E+03  0.17812575304E+04  0.00000000000E+00 0. -1.
<mgrwt>
<rscale>  0 0.38385267E+04</rscale>
<asrwt>0</asrwt>
<pdfrwt beam="1">  1        2 0.38624768E+00 0.38385267E+04</pdfrwt>
<pdfrwt beam="2">  1       -2 0.22572338E+00 0.38385267E+04</pdfrwt>
<totfact> 0.24947889E-01</totfact>
</mgrwt>
</event>
<event>
 6    1  0.1568961E-005  0.7245875E+03  0.7818608E-02  0.9676084E-01
         -2   -1    0    0    0  501 -0.00000000000E+00  0.00000000000E+00  0.52320292087E+03  0.52320292087E+03  0.00000000000E+00 0.  1.
          2   -1    0    0  501    0  0.00000000000E+00 -0.00000000000E+00 -0.25087159152E+03  0.25087159152E+03  0.00000000000E+00 0. -1.
         23    2    1    2    0    0  0.18224147085E+03 -0.21455701021E+03  0.37101755663E+03  0.47576991004E+03  0.97243589234E+02 0.  0.
         11    1    3    3    0    0  0.11961254209E+03 -0.72134674034E+02  0.14457420425E+03  0.20102803774E+03  0.00000000000E+00 0.  1.
        -11    1    3    3    0    0  0.62628928760E+02 -0.14242233617E+03  0.22644335239E+03  0.27474187231E+03  0.00000000000E+00 0. -1.
         22    1    1    2    0    0 -0.18224147085E+03  0.21455701021E+03 -0.98686227285E+02  0.29830460235E+03  0.00000000000E+00 0. -1.
<mgrwt>
<rscale>  0 0.72458747E+03</rscale>
<asrwt>0</asrwt>
<pdfrwt beam="1">  1        2 0.38595630E-01 0.72458747E+03</pdfrwt>
<pdfrwt beam="2">  1       -2 0.80492757E-01 0.72458747E+03</pdfrwt>
<totfact> 0.18448871E+02</totfact>
</mgrwt>
</event>
<event>
 6    1  0.1568961E-005  0.2835533E+04  0.7818608E-02  0.8292321E-01
         -2   -1    0    0    0  501 -0.00000000000E+00  0.00000000000E+00  0.85032018647E+03  0.85032018647E+03  0.00000000000E+00 0.  1.
          2   -1    0    0  501    0  0.00000000000E+00 -0.00000000000E+00 -0.23638875328E+04  0.23638875328E+04  0.00000000000E+00 0. -1.
         23    2    1    2    0    0 -0.13234174239E+04 -0.49136682022E+03 -0.62864152000E+03  0.15480838499E+04  0.92186852341E+02 0.  0.
         11    1    3    3    0    0 -0.63725996929E+03 -0.25357204919E+03 -0.35269459008E+03  0.77122793418E+03  0.00000000000E+00 0. -1.
        -11    1    3    3    0    0 -0.68615745464E+03 -0.23779477104E+03 -0.27594692992E+03  0.77685591574E+03  0.00000000000E+00 0.  1.
         22    1    1    2    0    0  0.13234174239E+04  0.49136682022E+03 -0.88492582636E+03  0.16661238694E+04  0.00000000000E+00 0. -1.
<mgrwt>
<rscale>  0 0.28355326E+04</rscale>
<asrwt>0</asrwt>
<pdfrwt beam="1">  1        2 0.36367500E+00 0.28355326E+04</pdfrwt>
<pdfrwt beam="2">  1       -2 0.13081849E+00 0.28355326E+04</pdfrwt>
<totfact> 0.15460027E+00</totfact>
</mgrwt>
</event>
<event>
 6    1  0.1568961E-005  0.1611640E+04  0.7818608E-02  0.8813429E-01
         -1   -1    0    0    0  501 -0.00000000000E+00  0.00000000000E+00  0.99577939589E+03  0.99577939589E+03  0.00000000000E+00 0.  1.
          1   -1    0    0  501    0  0.00000000000E+00 -0.00000000000E+00 -0.65209852055E+03  0.65209852055E+03  0.00000000000E+00 0. -1.
         23    2    1    2    0    0 -0.66241545335E+02  0.61529674317E+03  0.69607775883E+03  0.93572513228E+03  0.89884661459E+02 0.  0.
         11    1    3    3    0    0 -0.64458591213E+01  0.97408801560E+02  0.16372075658E+03  0.19061613221E+03  0.00000000000E+00 0. -1.
        -11    1    3    3    0    0 -0.59795686214E+02  0.51788794161E+03  0.53235700224E+03  0.74510900007E+03  0.00000000000E+00 0.  1.
         22    1    1    2    0    0  0.66241545335E+02 -0.61529674317E+03 -0.35239688349E+03  0.71215278415E+03  0.00000000000E+00 0. -1.
<mgrwt>
<rscale>  0 0.16116405E+04</rscale>
<asrwt>0</asrwt>
<pdfrwt beam="1">  1        1 0.10032285E+00 0.16116405E+04</pdfrwt>
<pdfrwt beam="2">  1       -1 0.15319683E+00 0.16116405E+04</pdfrwt>
<totfact> 0.95745940E+00</totfact>
</mgrwt>
</event>
<event>
 6    1  0.1568961E-005  0.2456234E+04  0.7818608E-02  0.8418745E-01
          1   -1    0    0  501    0  0.00000000000E+00  0.00000000000E+00  0.28963673204E+04  0.28963673204E+04  0.00000000000E+00 0. -1.
         -1   -1    0    0    0  501 -0.00000000000E+00 -0.00000000000E+00 -0.52074580743E+03  0.52074580743E+03  0.00000000000E+00 0.  1.
         23    2    1    2    0    0  0.16496528496E+03 -0.67488416471E+03 -0.21655699971E+03  0.73344555850E+03  0.91450927574E+02 0.  0.
         11    1    3    3    0    0  0.15784856920E+03 -0.47148728960E+03 -0.15593350334E+03  0.52108702969E+03  0.00000000000E+00 0. -1.
        -11    1    3    3    0    0  0.71167157610E+01 -0.20339687511E+03 -0.60623496369E+02  0.21235852881E+03  0.00000000000E+00 0.  1.
         22    1    1    2    0    0 -0.16496528496E+03  0.67488416471E+03  0.25921785126E+04  0.26836675693E+04  0.00000000000E+00 0. -1.
<mgrwt>
<rscale>  0 0.24562338E+04</rscale>
<asrwt>0</asrwt>
<pdfrwt beam="1">  1        1 0.44559496E+00 0.24562338E+04</pdfrwt>
<pdfrwt beam="2">  1       -1 0.80114741E-01 0.24562338E+04</pdfrwt>
<totfact> 0.98567318E-01</totfact>
</mgrwt>
</event>
<event>
 6    1  0.1568961E-005  0.1706323E+04  0.7818608E-02  0.8757766E-01
         -2   -1    0    0    0  501 -0.00000000000E+00  0.00000000000E+00  0.71147139051E+03  0.71147139051E+03  0.00000000000E+00 0.  1.
          2   -1    0    0  501    0  0.00000000000E+00 -0.00000000000E+00 -0.10230694375E+04  0.10230694375E+04  0.00000000000E+00 0. -1.
         23    2    1    2    0    0  0.74726694389E+03 -0.35303168244E+03  0.48897853905E+02  0.83287761548E+03  0.90856304153E+02 0.  0.
         11    1    3    3    0    0  0.51588690036E+03 -0.26572814871E+03 -0.24161284201E+01  0.58030731570E+03  0.00000000000E+00 0. -1.
        -11    1    3    3    0    0  0.23138004353E+03 -0.87303533736E+02  0.51313982325E+02  0.25257029977E+03  0.00000000000E+00 0.  1.
         22    1    1    2    0    0 -0.74726694389E+03  0.35303168244E+03 -0.36049590087E+03  0.90166321250E+03  0.00000000000E+00 0. -1.
<mgrwt>
<rscale>  0 0.17063231E+04</rscale>
<asrwt>0</asrwt>
<pdfrwt beam="1">  1        2 0.15739530E+00 0.17063231E+04</pdfrwt>
<pdfrwt beam="2">  1       -2 0.10945714E+00 0.17063231E+04</pdfrwt>
<totfact> 0.15398986E+01</totfact>
</mgrwt>
</event>
<event>
 6    1  0.1568961E-005  0.1876533E+04  0.7818608E-02  0.8666626E-01
         -4   -1    0    0    0  501 -0.00000000000E+00  0.00000000000E+00  0.13521251156E+04  0.13521251156E+04  0.00000000000E+00 0.  1.
          4   -1    0    0  501    0  0.00000000000E+00 -0.00000000000E+00 -0.65108178925E+03  0.65108178925E+03  0.00000000000E+00 0. -1.
         23    2    1    2    0    0 -0.48304474399E+03  0.43346686998E+03  0.10713130121E+04  0.12559951595E+04  0.92663470731E+02 0.  0.
         11    1    3    3    0    0 -0.24802341151E+03  0.16350323335E+03  0.51274907455E+03  0.59258799636E+03  0.00000000000E+00 0. -1.
        -11    1    3    3    0    0 -0.23502133248E+03  0.26996363663E+03  0.55856393756E+03  0.66340716318E+03  0.00000000000E+00 0.  1.
         22    1    1    2    0    0  0.48304474399E+03 -0.43346686998E+03 -0.37026968579E+03  0.74721174528E+03  0.00000000000E+00 0. -1.
<mgrwt>
<rscale>  0 0.18765330E+04</rscale>
<asrwt>0</asrwt>
<pdfrwt beam="1">  1        4 0.10016643E+00 0.18765330E+04</pdfrwt>
<pdfrwt beam="2">  1       -4 0.20801925E+00 0.18765330E+04</pdfrwt>
<totfact> 0.17996827E-01</totfact>
</mgrwt>
</event>
<event>
 6    1  0.1568961E-005  0.1494442E+04  0.7818608E-02  0.8888157E-01
         -1   -1    0    0    0  501 -0.00000000000E+00  0.00000000000E+00  0.53560028147E+03  0.53560028147E+03  0.00000000000E+00 0.  1.
          1   -1    0    0  501    0  0.00000000000E+00 -0.00000000000E+00 -0.10424548775E+04  0.10424548775E+04  0.00000000000E+00 0. -1.
         23    2    1    2    0    0 -0.23196199178E+03  0.46127274029E+03  0.31199556765E+03  0.61001874586E+03  0.90568921287E+02 0.  0.
         11    1    3    3    0    0 -0.14236503809E+03  0.23500545232E+03  0.11903155843E+03  0.29943927363E+03  0.00000000000E+00 0. -1.
        -11    1    3    3    0    0 -0.89596953690E+02  0.22626728797E+03  0.19296400922E+03  0.31057947223E+03  0.00000000000E+00 0.  1.
         22    1    1    2    0    0  0.23196199178E+03 -0.46127274029E+03 -0.81885016370E+03  0.96803641313E+03  0.00000000000E+00 0. -1.
<mgrwt>
<rscale>  0 0.14944419E+04</rscale>
<asrwt>0</asrwt>
<pdfrwt beam="1">  1        1 0.16037767E+00 0.14944419E+04</pdfrwt>
<pdfrwt beam="2">  1       -1 0.82400044E-01 0.14944419E+04</pdfrwt>
<totfact> 0.19878158E+01</totfact>
</mgrwt>
</event>
<event>
 6    1  0.1568961E-005  0.4958991E+03  0.7818608E-02  0.1014855E+00
         -1   -1    0    0    0  501 -0.00000000000E+00  0.00000000000E+00  0.13622982026E+03  0.13622982026E+03  0.00000000000E+00 0.  1.
          1   -1    0    0  501    0  0.00000000000E+00 -0.00000000000E+00 -0.45128874913E+03  0.45128874913E+03  0.00000000000E+00 0. -1.
         23    2    1    2    0    0  0.18878071295E+03  0.11348624065E+03 -0.27437548003E+03  0.36352654407E+03  0.91391245775E+02 0.  0.
         11    1    3    3    0    0  0.46169287720E+02  0.68256175513E+02 -0.13987913992E+03  0.16234741270E+03  0.00000000000E+00 0. -1.
        -11    1    3    3    0    0  0.14261142522E+03  0.45230065135E+02 -0.13449634011E+03  0.20117913137E+03  0.00000000000E+00 0.  1.
         22    1    1    2    0    0 -0.18878071295E+03 -0.11348624065E+03 -0.40683448836E+02  0.22399202532E+03  0.00000000000E+00 0.  1.
<mgrwt>
<rscale>  0 0.49589912E+03</rscale>
<asrwt>0</asrwt>
<pdfrwt beam="1">  1        1 0.69429039E-01 0.49589912E+03</pdfrwt>
<pdfrwt beam="2">  1       -1 0.20958434E-01 0.49589912E+03</pdfrwt>
<totfact> 0.96778824E+02</totfact>
</mgrwt>
</event>
<event>
 6    1  0.1568961E-005  0.1795356E+04  0.7818608E-02  0.8708773E-01
         -2   -1    0    0    0  501 -0.00000000000E+00  0.00000000000E+00  0.20455428914E+04  0.20455428914E+04  0.00000000000E+00 0.  1.
          2   -1    0    0  501    0  0.00000000000E+00 -0.00000000000E+00 -0.39394242501E+03  0.39394242501E+03  0.00000000000E+00 0. -1.
         23    2    1    2    0    0 -0.18209287976E+03 -0.21440097429E+03  0.19829147787E+04  0.20048650590E+04  0.91691279276E+02 0.  0.
         11    1    3    3    0    0 -0.11460819572E+02 -0.45321911325E+02  0.54721205595E+03  0.54920529878E+03  0.00000000000E+00 0. -1.
        -11    1    3    3    0    0 -0.17063206019E+03 -0.16907906297E+03  0.14357027228E+04  0.14556597603E+04  0.00000000000E+00 0.  1.
         22    1    1    2    0    0  0.18209287976E+03  0.21440097429E+03 -0.33131431228E+03  0.43462025742E+03  0.00000000000E+00 0. -1.
<mgrwt>
<rscale>  0 0.17953564E+04</rscale>
<asrwt>0</asrwt>
<pdfrwt beam="1">  1        2 0.60606528E-01 0.17953564E+04</pdfrwt>
<pdfrwt beam="2">  1       -2 0.31469890E+00 0.17953564E+04</pdfrwt>
<totfact> 0.19772177E+00</totfact>
</mgrwt>
</event>
<event>
 6    1  0.1568961E-005  0.2294604E+04  0.7818608E-02  0.8480052E-01
          1   -1    0    0  501    0  0.00000000000E+00  0.00000000000E+00  0.79038443183E+03  0.79038443183E+03  0.00000000000E+00 0. -1.
         -1   -1    0    0    0  501 -0.00000000000E+00 -0.00000000000E+00 -0.16653941402E+04  0.16653941402E+04  0.00000000000E+00 0.  1.
         23    2    1    2    0    0  0.76645737884E+03  0.83129306916E+03 -0.63423805897E+03  0.12997179908E+04  0.92216374444E+02 0.  0.
         11    1    3    3    0    0  0.15327740672E+03  0.22318234463E+03 -0.15967924260E+03  0.31432750895E+03  0.00000000000E+00 0. -1.
        -11    1    3    3    0    0  0.61317997213E+03  0.60811072453E+03 -0.47455881638E+03  0.98539048184E+03  0.00000000000E+00 0.  1.
         22    1    1    2    0    0 -0.76645737884E+03 -0.83129306916E+03 -0.24077164944E+03  0.11560605813E+04  0.00000000000E+00 0. -1.
<mgrwt>
<rscale>  0 0.22946038E+04</rscale>
<asrwt>0</asrwt>
<pdfrwt beam="1">  1        1 0.12159761E+00 0.22946038E+04</pdfrwt>
<pdfrwt beam="2">  1       -1 0.25621448E+00 0.22946038E+04</pdfrwt>
<totfact> 0.12945171E+00</totfact>
</mgrwt>
</event>
<event>
 6    1  0.1568961E-005  0.3585993E+04  0.7818608E-02  0.8093708E-01
          2   -1    0    0  501    0  0.00000000000E+00  0.00000000000E+00  0.15609345289E+04  0.15609345289E+04  0.00000000000E+00 0. -1.
         -2   -1    0    0    0  501 -0.00000000000E+00 -0.00000000000E+00 -0.20595585109E+04  0.20595585109E+04  0.00000000000E+00 0.  1.
         23    2    1    2    0    0 -0.15176808200E+04  0.35429415150E+03  0.64351315016E+03  0.16883034409E+04  0.85906443053E+02 0.  0.
         11    1    3    3    0    0 -0.10897765947E+04  0.23529853452E+03  0.49667133275E+03  0.12205166281E+04  0.00000000000E+00 0. -1.
        -11    1    3    3    0    0 -0.42790422527E+03  0.11899561698E+03  0.14684181741E+03  0.46778681278E+03  0.00000000000E+00 0.  1.
         22    1    1    2    0    0  0.15176808200E+04 -0.35429415150E+03 -0.11421371322E+04  0.19321895988E+04  0.00000000000E+00 0.  1.
<mgrwt>
<rscale>  0 0.35859927E+04</rscale>
<asrwt>0</asrwt>
<pdfrwt beam="1">  1        2 0.24014377E+00 0.35859927E+04</pdfrwt>
<pdfrwt beam="2">  1       -2 0.31685516E+00 0.35859927E+04</pdfrwt>
<totfact> 0.23959071E-01</totfact>
</mgrwt>
</event>
<event>
 6    1  0.1568961E-005  0.1925759E+04  0.7818608E-02  0.8642140E-01
         -2   -1    0    0    0  501 -0.00000000000E+00  0.00000000000E+00  0.95048721026E+03  0.95048721026E+03  0.00000000000E+00 0.  1.
          2   -1    0    0  501    0  0.00000000000E+00 -0.00000000000E+00 -0.97543366814E+03  0.97543366814E+03  0.00000000000E+00 0. -1.
         23    2    1    2    0    0 -0.28154256261E+03 -0.31934500034E+03 -0.87379546680E+03  0.97629353898E+03  0.91559339453E+02 0.  0.
         13    1    3    3    0    0 -0.19664683137E+03 -0.16376153122E+03 -0.46589356917E+03  0.53154927635E+03  0.00000000000E+00 0. -1.
        -13    1    3    3    0    0 -0.84895731240E+02 -0.15558346913E+03 -0.40790189764E+03  0.44474426263E+03  0.00000000000E+00 0.  1.
         22    1    1    2    0    0  0.28154256261E+03  0.31934500034E+03  0.84884900892E+03  0.94962733941E+03  0.00000000000E+00 0.  1.
<mgrwt>
<rscale>  0 0.19257593E+04</rscale>
<asrwt>0</asrwt>
<pdfrwt beam="1">  1        2 0.15006672E+00 0.19257593E+04</pdfrwt>
<pdfrwt beam="2">  1       -2 0.14622880E+00 0.19257593E+04</pdfrwt>
<totfact> 0.78252662E+00</totfact>
</mgrwt>
</event>
<event>
 6    1  0.1568961E-005  0.1419445E+04  0.7818608E-02  0.8939862E-01
          2   -1    0    0  501    0  0.00000000000E+00  0.00000000000E+00  0.84867159868E+03  0.84867159868E+03  0.00000000000E+00 0. -1.
         -2   -1    0    0    0  501 -0.00000000000E+00 -0.00000000000E+00 -0.59352313207E+03  0.59352313207E+03  0.00000000000E+00 0.  1.
         23    2    1    2    0    0 -0.33684071209E+03 -0.19114768398E+03  0.72914048928E+03  0.83009380772E+03  0.86085853074E+02 0.  0.
         13    1    3    3    0    0 -0.32832745298E+03 -0.19323243244E+03  0.67363349047E+03  0.77389906888E+03  0.00000000000E+00 0. -1.
        -13    1    3    3    0    0 -0.85132591066E+01  0.20847484617E+01  0.55506998808E+02  0.56194738841E+02  0.00000000000E+00 0.  1.
         22    1    1    2    0    0  0.33684071209E+03  0.19114768398E+03 -0.47399202267E+03  0.61210092303E+03  0.00000000000E+00 0.  1.
<mgrwt>
<rscale>  0 0.14194453E+04</rscale>
<asrwt>0</asrwt>
<pdfrwt beam="1">  1        2 0.13056486E+00 0.14194453E+04</pdfrwt>
<pdfrwt beam="2">  1       -2 0.91311251E-01 0.14194453E+04</pdfrwt>
<totfact> 0.31604779E+01</totfact>
</mgrwt>
</event>
<event>
 6    1  0.1568961E-005  0.2115920E+04  0.7818608E-02  0.8554263E-01
         -1   -1    0    0    0  501 -0.00000000000E+00  0.00000000000E+00  0.49766617011E+03  0.49766617011E+03  0.00000000000E+00 0.  1.
          1   -1    0    0  501    0  0.00000000000E+00 -0.00000000000E+00 -0.22490566029E+04  0.22490566029E+04  0.00000000000E+00 0. -1.
         23    2    1    2    0    0 -0.24861694335E+03 -0.86806493836E+03 -0.15881167563E+04  0.18291142426E+04  0.90537058504E+02 0.  0.
         13    1    3    3    0    0 -0.18225595396E+03 -0.54180218502E+03 -0.93157962693E+03  0.10929809887E+04  0.00000000000E+00 0.  1.
        -13    1    3    3    0    0 -0.66360989387E+02 -0.32626275335E+03 -0.65653712940E+03  0.73613325384E+03  0.00000000000E+00 0. -1.
         22    1    1    2    0    0  0.24861694335E+03  0.86806493836E+03 -0.16327367650E+03  0.91760853046E+03  0.00000000000E+00 0.  1.
<mgrwt>
<rscale>  0 0.21159200E+04</rscale>
<asrwt>0</asrwt>
<pdfrwt beam="1">  1        1 0.34600871E+00 0.21159200E+04</pdfrwt>
<pdfrwt beam="2">  1       -1 0.76564025E-01 0.21159200E+04</pdfrwt>
<totfact> 0.31709480E+00</totfact>
</mgrwt>
</event>
<event>
 6    1  0.1568961E-005  0.2319634E+04  0.7818608E-02  0.8470220E-01
         -2   -1    0    0    0  501 -0.00000000000E+00  0.00000000000E+00  0.57499865352E+03  0.57499865352E+03  0.00000000000E+00 0. -1.
          2   -1    0    0  501    0  0.00000000000E+00 -0.00000000000E+00 -0.23394407387E+04  0.23394407387E+04  0.00000000000E+00 0.  1.
         23    2    1    2    0    0 -0.98575345370E+02  0.10251648564E+04 -0.21822856711E+03  0.10566298420E+04  0.90348403887E+02 0.  0.
         11    1    3    3    0    0 -0.18005666377E+02  0.24840946728E+03 -0.14054855055E+02  0.24945742403E+03  0.00000000000E+00 0.  1.
        -11    1    3    3    0    0 -0.80569678994E+02  0.77675538909E+03 -0.20417371206E+03  0.80717241798E+03  0.00000000000E+00 0. -1.
         22    1    1    2    0    0  0.98575345370E+02 -0.10251648564E+04 -0.15462135181E+04  0.18578095502E+04  0.00000000000E+00 0.  1.
<mgrwt>
<rscale>  0 0.23196338E+04</rscale>
<asrwt>0</asrwt>
<pdfrwt beam="1">  1        2 0.35991396E+00 0.23196338E+04</pdfrwt>
<pdfrwt beam="2">  1       -2 0.88461330E-01 0.23196338E+04</pdfrwt>
<totfact> 0.42849056E+00</totfact>
</mgrwt>
</event>
<event>
 6    1  0.1568961E-005  0.1860267E+04  0.7818608E-02  0.8674891E-01
         -2   -1    0    0    0  501 -0.00000000000E+00  0.00000000000E+00  0.70241819566E+03  0.70241819566E+03  0.00000000000E+00 0.  1.
          2   -1    0    0  501    0  0.00000000000E+00 -0.00000000000E+00 -0.12316707093E+04  0.12316707093E+04  0.00000000000E+00 0. -1.
         23    2    1    2    0    0 -0.20904942553E+03  0.79805880200E+03  0.17599727324E+03  0.84874251984E+03  0.93751325488E+02 0.  0.
         13    1    3    3    0    0  0.24562489369E+01  0.11927441896E+03  0.23148561764E+02  0.12152479619E+03  0.00000000000E+00 0. -1.
        -13    1    3    3    0    0 -0.21150567446E+03  0.67878438304E+03  0.15284871148E+03  0.72721772365E+03  0.00000000000E+00 0.  1.
         22    1    1    2    0    0  0.20904942553E+03 -0.79805880200E+03 -0.70524978684E+03  0.10853463851E+04  0.00000000000E+00 0. -1.
<mgrwt>
<rscale>  0 0.18602666E+04</rscale>
<asrwt>0</asrwt>
<pdfrwt beam="1">  1        2 0.18948780E+00 0.18602666E+04</pdfrwt>
<pdfrwt beam="2">  1       -2 0.10806434E+00 0.18602666E+04</pdfrwt>
<totfact> 0.11688315E+01</totfact>
</mgrwt>
</event>
<event>
 6    1  0.1568961E-005  0.3527583E+04  0.7818608E-02  0.8107284E-01
         -2   -1    0    0    0  501 -0.00000000000E+00  0.00000000000E+00  0.10975231569E+04  0.10975231569E+04  0.00000000000E+00 0.  1.
          2   -1    0    0  501    0  0.00000000000E+00 -0.00000000000E+00 -0.28345283099E+04  0.28345283099E+04  0.00000000000E+00 0. -1.
         23    2    1    2    0    0  0.11761013947E+04 -0.24591296380E+03  0.56849868333E+03  0.13322369319E+04  0.89313008293E+02 0.  0.
         11    1    3    3    0    0  0.67341501233E+03 -0.17910326314E+03  0.30329629561E+03  0.75996999982E+03  0.00000000000E+00 0. -1.
        -11    1    3    3    0    0  0.50268638233E+03 -0.66809700654E+02  0.26520238772E+03  0.57226693207E+03  0.00000000000E+00 0.  1.
         22    1    1    2    0    0 -0.11761013947E+04  0.24591296380E+03 -0.23055038364E+04  0.25998145349E+04  0.00000000000E+00 0. -1.
<mgrwt>
<rscale>  0 0.35275830E+04</rscale>
<asrwt>0</asrwt>
<pdfrwt beam="1">  1        2 0.43608128E+00 0.35275830E+04</pdfrwt>
<pdfrwt beam="2">  1       -2 0.16884972E+00 0.35275830E+04</pdfrwt>
<totfact> 0.39218890E-01</totfact>
</mgrwt>
</event>
<event>
 6    1  0.1568961E-005  0.1568968E+04  0.7818608E-02  0.8839842E-01
          1   -1    0    0  501    0  0.00000000000E+00  0.00000000000E+00  0.85576017187E+03  0.85576017187E+03  0.00000000000E+00 0. -1.
         -1   -1    0    0    0  501 -0.00000000000E+00 -0.00000000000E+00 -0.71914480359E+03  0.71914480359E+03  0.00000000000E+00 0.  1.
         23    2    1    2    0    0  0.16549171486E+03 -0.64197871857E+03 -0.34718046494E+03  0.75418420015E+03  0.93463092960E+02 0.  0.
         13    1    3    3    0    0  0.10527233935E+03 -0.53554022755E+03 -0.26400975199E+03  0.60628932854E+03  0.00000000000E+00 0. -1.
        -13    1    3    3    0    0  0.60219375511E+02 -0.10643849102E+03 -0.83170712954E+02  0.14789487162E+03  0.00000000000E+00 0.  1.
         22    1    1    2    0    0 -0.16549171486E+03  0.64197871857E+03  0.48379583322E+03  0.82072077531E+03  0.00000000000E+00 0. -1.
<mgrwt>
<rscale>  0 0.15689684E+04</rscale>
<asrwt>0</asrwt>
<pdfrwt beam="1">  1        1 0.13165541E+00 0.15689684E+04</pdfrwt>
<pdfrwt beam="2">  1       -1 0.11063766E+00 0.15689684E+04</pdfrwt>
<totfact> 0.14346320E+01</totfact>
</mgrwt>
</event>
<event>
 6    1  0.1568961E-005  0.3428072E+03  0.7818608E-02  0.1065607E+00
          2   -1    0    0  501    0  0.00000000000E+00  0.00000000000E+00  0.19777597984E+04  0.19777597984E+04  0.00000000000E+00 0. -1.
         -2   -1    0    0    0  501 -0.00000000000E+00 -0.00000000000E+00 -0.14854785183E+02  0.14854785183E+02  0.00000000000E+00 0.  1.
         23    2    1    2    0    0 -0.24694327283E+02 -0.85424890543E+02  0.18185484648E+04  0.18230680272E+04  0.92473191341E+02 0.  0.
         13    1    3    3    0    0  0.33279233665E+02 -0.49707290563E+02  0.78098264317E+03  0.78327020310E+03  0.00000000000E+00 0.  1.
        -13    1    3    3    0    0 -0.57973560949E+02 -0.35717599980E+02  0.10375658216E+04  0.10397978241E+04  0.00000000000E+00 0. -1.
         22    1    1    2    0    0  0.24694327283E+02  0.85424890543E+02  0.14435654845E+03  0.16954655645E+03  0.00000000000E+00 0.  1.
<mgrwt>
<rscale>  0 0.34280722E+03</rscale>
<asrwt>0</asrwt>
<pdfrwt beam="1">  1        2 0.30427053E+00 0.34280722E+03</pdfrwt>
<pdfrwt beam="2">  1       -2 0.22853531E-02 0.34280722E+03</pdfrwt>
<totfact> 0.48426613E+03</totfact>
</mgrwt>
</event>
<event>
 6    1  0.1568961E-005  0.6201708E+03  0.7818608E-02  0.9864420E-01
          1   -1    0    0  501    0  0.00000000000E+00  0.00000000000E+00  0.86293264836E+03  0.86293264836E+03  0.00000000000E+00 0. -1.
         -1   -1    0    0    0  501 -0.00000000000E+00 -0.00000000000E+00 -0.11142580904E+03  0.11142580904E+03  0.00000000000E+00 0.  1.
         23    2    1    2    0    0 -0.64606560855E+02 -0.45247612681E+02  0.84397242105E+03  0.85282147553E+03  0.93774556573E+02 0.  0.
         11    1    3    3    0    0 -0.19842267432E+00 -0.56852901406E+02  0.41890927974E+03  0.42274966165E+03  0.00000000000E+00 0.  1.
        -11    1    3    3    0    0 -0.64408138181E+02  0.11605288725E+02  0.42506314131E+03  0.43007181388E+03  0.00000000000E+00 0. -1.
         22    1    1    2    0    0  0.64606560855E+02  0.45247612681E+02 -0.92465581728E+02  0.12153698187E+03  0.00000000000E+00 0.  1.
<mgrwt>
<rscale>  0 0.62017084E+03</rscale>
<asrwt>0</asrwt>
<pdfrwt beam="1">  1        1 0.13275886E+00 0.62017084E+03</pdfrwt>
<pdfrwt beam="2">  1       -1 0.17142433E-01 0.62017084E+03</pdfrwt>
<totfact> 0.52239401E+02</totfact>
</mgrwt>
</event>
<event>
 6    1  0.1568961E-005  0.1439869E+04  0.7818608E-02  0.8925454E-01
          4   -1    0    0  501    0  0.00000000000E+00  0.00000000000E+00  0.54641100931E+03  0.54641100931E+03  0.00000000000E+00 0. -1.
         -4   -1    0    0    0  501 -0.00000000000E+00 -0.00000000000E+00 -0.94856439689E+03  0.94856439689E+03  0.00000000000E+00 0.  1.
         23    2    1    2    0    0 -0.69187118126E+03  0.90279211035E+02 -0.37376038084E+03  0.79666155825E+03  0.90203928384E+02 0.  0.
         13    1    3    3    0    0 -0.39343543825E+03  0.46638018994E+02 -0.16146624995E+03  0.42782928693E+03  0.00000000000E+00 0. -1.
        -13    1    3    3    0    0 -0.29843574301E+03  0.43641192041E+02 -0.21229413089E+03  0.36883227131E+03  0.00000000000E+00 0.  1.
         22    1    1    2    0    0  0.69187118126E+03 -0.90279211035E+02 -0.28393006745E+02  0.69831384795E+03  0.00000000000E+00 0. -1.
<mgrwt>
<rscale>  0 0.14398695E+04</rscale>
<asrwt>0</asrwt>
<pdfrwt beam="1">  1        4 0.84063233E-01 0.14398695E+04</pdfrwt>
<pdfrwt beam="2">  1       -4 0.14593298E+00 0.14398695E+04</pdfrwt>
<totfact> 0.77016958E-01</totfact>
</mgrwt>
</event>
<event>
 6    1  0.1568961E-005  0.1352877E+04  0.7818608E-02  0.8988653E-01
          2   -1    0    0  501    0  0.00000000000E+00  0.00000000000E+00  0.60339787024E+03  0.60339787024E+03  0.00000000000E+00 0.  1.
         -2   -1    0    0    0  501 -0.00000000000E+00 -0.00000000000E+00 -0.75832012037E+03  0.75832012037E+03  0.00000000000E+00 0. -1.
         23    2    1    2    0    0  0.29466749372E+03 -0.82877888429E+02 -0.68103582059E+03  0.75303649323E+03  0.97757326906E+02 0.  0.
         13    1    3    3    0    0  0.13651411677E+03 -0.68321306890E+02 -0.24167380321E+03  0.28584984207E+03  0.00000000000E+00 0. -1.
        -13    1    3    3    0    0  0.15815337695E+03 -0.14556581539E+02 -0.43936201738E+03  0.46718665116E+03  0.00000000000E+00 0.  1.
         22    1    1    2    0    0 -0.29466749372E+03  0.82877888429E+02  0.52611357046E+03  0.60868149739E+03  0.00000000000E+00 0.  1.
<mgrwt>
<rscale>  0 0.13528766E+04</rscale>
<asrwt>0</asrwt>
<pdfrwt beam="1">  1        2 0.92830442E-01 0.13528766E+04</pdfrwt>
<pdfrwt beam="2">  1       -2 0.11666463E+00 0.13528766E+04</pdfrwt>
<totfact> 0.27380571E+01</totfact>
</mgrwt>
</event>
<event>
 6    1  0.1568961E-005  0.4948152E+04  0.7818608E-02  0.7836555E-01
          2   -1    0    0  501    0  0.00000000000E+00  0.00000000000E+00  0.18827341387E+04  0.18827341387E+04  0.00000000000E+00 0. -1.
         -2   -1    0    0    0  501 -0.00000000000E+00 -0.00000000000E+00 -0.32511505850E+04  0.32511505850E+04  0.00000000000E+00 0.  1.
         23    2    1    2    0    0 -0.55022993772E+03 -0.47350398996E+03  0.17686133006E+04  0.19139600901E+04  0.91056061748E+02 0.  0.
         13    1    3    3    0    0 -0.41947508143E+03 -0.35039948588E+03  0.12237140637E+04  0.13402295525E+04  0.00000000000E+00 0. -1.
        -13    1    3    3    0    0 -0.13075485629E+03 -0.12310450408E+03  0.54489923688E+03  0.57373053755E+03  0.00000000000E+00 0.  1.
         22    1    1    2    0    0  0.55022993772E+03  0.47350398996E+03 -0.31370297470E+04  0.32199246336E+04  0.00000000000E+00 0.  1.
<mgrwt>
<rscale>  0 0.49481521E+04</rscale>
<asrwt>0</asrwt>
<pdfrwt beam="1">  1        2 0.28965141E+00 0.49481521E+04</pdfrwt>
<pdfrwt beam="2">  1       -2 0.50017701E+00 0.49481521E+04</pdfrwt>
<totfact> 0.93981632E-03</totfact>
</mgrwt>
</event>
<event>
 6    1  0.1568961E-005  0.8040904E+03  0.7818608E-02  0.9554115E-01
         -1   -1    0    0    0  501 -0.00000000000E+00  0.00000000000E+00  0.25745824629E+03  0.25745824629E+03  0.00000000000E+00 0.  1.
          1   -1    0    0  501    0  0.00000000000E+00 -0.00000000000E+00 -0.62783135481E+03  0.62783135481E+03  0.00000000000E+00 0. -1.
         23    2    1    2    0    0 -0.51483955521E+02  0.12056479942E+03 -0.60052440283E+03  0.62041965791E+03  0.84288344295E+02 0.  0.
         13    1    3    3    0    0 -0.21813823725E+02  0.99308085464E+02 -0.54194266913E+03  0.55139803714E+03  0.00000000000E+00 0. -1.
        -13    1    3    3    0    0 -0.29670131796E+02  0.21256713955E+02 -0.58581733708E+02  0.69021620766E+02  0.00000000000E+00 0.  1.
         22    1    1    2    0    0  0.51483955521E+02 -0.12056479942E+03  0.23015129431E+03  0.26486994320E+03  0.00000000000E+00 0.  1.
<mgrwt>
<rscale>  0 0.80409044E+03</rscale>
<asrwt>0</asrwt>
<pdfrwt beam="1">  1        1 0.96589437E-01 0.80409044E+03</pdfrwt>
<pdfrwt beam="2">  1       -1 0.39608962E-01 0.80409044E+03</pdfrwt>
<totfact> 0.20088201E+02</totfact>
</mgrwt>
</event>
<event>
 6    1  0.1568961E-005  0.2767441E+04  0.7818608E-02  0.8313448E-01
         -1   -1    0    0    0  501 -0.00000000000E+00  0.00000000000E+00  0.60911280675E+03  0.60911280675E+03  0.00000000000E+00 0.  1.
          1   -1    0    0  501    0  0.00000000000E+00 -0.00000000000E+00 -0.31433960586E+04  0.31433960586E+04  0.00000000000E+00 0. -1.
         23    2    1    2    0    0  0.10890369177E+04 -0.60176912452E+03 -0.20848076708E+04  0.24295743298E+04  0.90999518484E+02 0.  0.
         13    1    3    3    0    0  0.18493976351E+03 -0.66514750117E+02 -0.35028739047E+03  0.40165679882E+03  0.00000000000E+00 0. -1.
        -13    1    3    3    0    0  0.90409715422E+03 -0.53525437440E+03 -0.17345202804E+04  0.20279175310E+04  0.00000000000E+00 0.  1.
         22    1    1    2    0    0 -0.10890369177E+04  0.60176912452E+03 -0.44947558104E+03  0.13229345356E+04  0.00000000000E+00 0.  1.
<mgrwt>
<rscale>  0 0.27674413E+04</rscale>
<asrwt>0</asrwt>
<pdfrwt beam="1">  1        1 0.48359940E+00 0.27674413E+04</pdfrwt>
<pdfrwt beam="2">  1       -1 0.93709662E-01 0.27674413E+04</pdfrwt>
<totfact> 0.44892845E-01</totfact>
</mgrwt>
</event>
<event>
 6    1  0.1568961E-005  0.9689932E+03  0.7818608E-02  0.9343222E-01
         -1   -1    0    0    0  501 -0.00000000000E+00  0.00000000000E+00  0.10091392533E+04  0.10091392533E+04  0.00000000000E+00 0.  1.
          1   -1    0    0  501    0  0.00000000000E+00 -0.00000000000E+00 -0.23261105685E+03  0.23261105685E+03  0.00000000000E+00 0. -1.
         23    2    1    2    0    0  0.20698931263E+03  0.36786196498E+03  0.98739642241E+02  0.44327405813E+03  0.92603308993E+02 0.  0.
         11    1    3    3    0    0  0.17906005769E+03  0.26983098014E+03  0.41822288057E+02  0.32652774137E+03  0.00000000000E+00 0. -1.
        -11    1    3    3    0    0  0.27929254944E+02  0.98030984842E+02  0.56917354183E+02  0.11674631676E+03  0.00000000000E+00 0.  1.
         22    1    1    2    0    0 -0.20698931263E+03 -0.36786196498E+03  0.67778855422E+03  0.79847625203E+03  0.00000000000E+00 0.  1.
<mgrwt>
<rscale>  0 0.96899319E+03</rscale>
<asrwt>0</asrwt>
<pdfrwt beam="1">  1        1 0.35786317E-01 0.96899319E+03</pdfrwt>
<pdfrwt beam="2">  1       -1 0.15525219E+00 0.96899319E+03</pdfrwt>
<totfact> 0.39003290E+01</totfact>
</mgrwt>
</event>
<event>
 6    1  0.1568961E-005  0.1785030E+04  0.7818608E-02  0.8714301E-01
         -1   -1    0    0    0  501 -0.00000000000E+00  0.00000000000E+00  0.71595414379E+03  0.71595414379E+03  0.00000000000E+00 0.  1.
          1   -1    0    0  501    0  0.00000000000E+00 -0.00000000000E+00 -0.11126172010E+04  0.11126172010E+04  0.00000000000E+00 0. -1.
         23    2    1    2    0    0 -0.69619172891E+03 -0.49471774145E+01 -0.76732065204E+03  0.10398417013E+04  0.88217814497E+02 0.  0.
         13    1    3    3    0    0 -0.28973931652E+03 -0.81934777845E+01 -0.25660088891E+03  0.38711758007E+03  0.00000000000E+00 0.  1.
        -13    1    3    3    0    0 -0.40645241240E+03  0.32463003700E+01 -0.51071976313E+03  0.65272412125E+03  0.00000000000E+00 0. -1.
         22    1    1    2    0    0  0.69619172891E+03  0.49471774145E+01  0.37065759479E+03  0.78872964351E+03  0.00000000000E+00 0.  1.
<mgrwt>
<rscale>  0 0.17850299E+04</rscale>
<asrwt>0</asrwt>
<pdfrwt beam="1">  1        1 0.17117188E+00 0.17850299E+04</pdfrwt>
<pdfrwt beam="2">  1       -1 0.11014679E+00 0.17850299E+04</pdfrwt>
<totfact> 0.89175466E+00</totfact>
</mgrwt>
</event>
<event>
 6    1  0.1568961E-005  0.1674630E+04  0.7818608E-02  0.8775967E-01
         -1   -1    0    0    0  501 -0.00000000000E+00  0.00000000000E+00  0.28558529597E+03  0.28558529597E+03  0.00000000000E+00 0.  1.
          1   -1    0    0  501    0  0.00000000000E+00 -0.00000000000E+00 -0.24549470397E+04  0.24549470397E+04  0.00000000000E+00 0. -1.
         23    2    1    2    0    0  0.79628959210E+03  0.14602978709E+03 -0.14216733445E+04  0.16385161128E+04  0.90433070088E+02 0.  0.
         13    1    3    3    0    0  0.48715961665E+03  0.45298672246E+02 -0.87246869056E+03  0.10002889971E+04  0.00000000000E+00 0. -1.
        -13    1    3    3    0    0  0.30912997545E+03  0.10073111484E+03 -0.54920465395E+03  0.63822711564E+03  0.00000000000E+00 0.  1.
         22    1    1    2    0    0 -0.79628959210E+03 -0.14602978709E+03 -0.74768839927E+03  0.11020162229E+04  0.00000000000E+00 0. -1.
<mgrwt>
<rscale>  0 0.16746304E+04</rscale>
<asrwt>0</asrwt>
<pdfrwt beam="1">  1        1 0.37768416E+00 0.16746304E+04</pdfrwt>
<pdfrwt beam="2">  1       -1 0.43936200E-01 0.16746304E+04</pdfrwt>
<totfact> 0.71198535E+00</totfact>
</mgrwt>
</event>
<event>
 6    1  0.1568961E-005  0.4680338E+03  0.7818608E-02  0.1022477E+00
          2   -1    0    0  501    0  0.00000000000E+00  0.00000000000E+00  0.13794759287E+04  0.13794759287E+04  0.00000000000E+00 0. -1.
         -2   -1    0    0    0  501 -0.00000000000E+00 -0.00000000000E+00 -0.39699072718E+02  0.39699072718E+02  0.00000000000E+00 0.  1.
         23    2    1    2    0    0  0.15822513667E+03  0.50155688199E+02  0.11571115455E+04  0.11723604909E+04  0.89281605278E+02 0.  0.
         11    1    3    3    0    0  0.16210149288E+03  0.35132904355E+02  0.92665853114E+03  0.94138581267E+03  0.00000000000E+00 0.  1.
        -11    1    3    3    0    0 -0.38763562048E+01  0.15022783844E+02  0.23045301436E+03  0.23097467827E+03  0.00000000000E+00 0. -1.
         22    1    1    2    0    0 -0.15822513667E+03 -0.50155688199E+02  0.18266531050E+03  0.24681451050E+03  0.00000000000E+00 0.  1.
<mgrwt>
<rscale>  0 0.46803382E+03</rscale>
<asrwt>0</asrwt>
<pdfrwt beam="1">  1        2 0.21222703E+00 0.46803382E+03</pdfrwt>
<pdfrwt beam="2">  1       -2 0.61075507E-02 0.46803382E+03</pdfrwt>
<totfact> 0.22783800E+03</totfact>
</mgrwt>
</event>
<event>
 6    1  0.1568961E-005  0.2132571E+04  0.7818608E-02  0.8547030E-01
         -2   -1    0    0    0  501 -0.00000000000E+00  0.00000000000E+00  0.47892746594E+03  0.47892746594E+03  0.00000000000E+00 0.  1.
          2   -1    0    0  501    0  0.00000000000E+00 -0.00000000000E+00 -0.23739813575E+04  0.23739813575E+04  0.00000000000E+00 0. -1.
         23    2    1    2    0    0  0.76233669384E+03 -0.33425951103E+03 -0.18366608304E+04  0.20184650536E+04  0.89395251882E+02 0.  0.
         13    1    3    3    0    0  0.74980578514E+03 -0.31656361043E+03 -0.18058770830E+04  0.19808112666E+04  0.00000000000E+00 0.  1.
        -13    1    3    3    0    0  0.12530908694E+02 -0.17695900599E+02 -0.30783747379E+02  0.37653786973E+02  0.00000000000E+00 0. -1.
         22    1    1    2    0    0 -0.76233669384E+03  0.33425951103E+03 -0.58393061154E+02  0.83444376987E+03  0.00000000000E+00 0.  1.
<mgrwt>
<rscale>  0 0.21325711E+04</rscale>
<asrwt>0</asrwt>
<pdfrwt beam="1">  1        2 0.36522790E+00 0.21325711E+04</pdfrwt>
<pdfrwt beam="2">  1       -2 0.73681148E-01 0.21325711E+04</pdfrwt>
<totfact> 0.62806031E+00</totfact>
</mgrwt>
</event>
<event>
 6    1  0.1568961E-005  0.1950204E+04  0.7818608E-02  0.8630262E-01
         -2   -1    0    0    0  501 -0.00000000000E+00  0.00000000000E+00  0.44896594834E+03  0.44896594834E+03  0.00000000000E+00 0.  1.
          2   -1    0    0  501    0  0.00000000000E+00 -0.00000000000E+00 -0.21178088652E+04  0.21178088652E+04  0.00000000000E+00 0. -1.
         23    2    1    2    0    0  0.11739819149E+03 -0.71073334917E+03  0.24490548388E+02  0.72658393933E+03  0.91652631947E+02 0.  0.
         13    1    3    3    0    0  0.12840906528E+03 -0.54291977458E+03  0.13776972851E+02  0.55806861106E+03  0.00000000000E+00 0. -1.
        -13    1    3    3    0    0 -0.11010873796E+02 -0.16781357459E+03  0.10713575536E+02  0.16851532826E+03  0.00000000000E+00 0.  1.
         22    1    1    2    0    0 -0.11739819149E+03  0.71073334917E+03 -0.16933334653E+04  0.18401908742E+04  0.00000000000E+00 0. -1.
<mgrwt>
<rscale>  0 0.19502042E+04</rscale>
<asrwt>0</asrwt>
<pdfrwt beam="1">  1        2 0.32581675E+00 0.19502042E+04</pdfrwt>
<pdfrwt beam="2">  1       -2 0.69071684E-01 0.19502042E+04</pdfrwt>
<totfact> 0.10252117E+01</totfact>
</mgrwt>
</event>
<event>
 6    1  0.1568961E-005  0.8675593E+03  0.7818608E-02  0.9467068E-01
          2   -1    0    0  501    0  0.00000000000E+00  0.00000000000E+00  0.35179783597E+03  0.35179783597E+03  0.00000000000E+00 0. -1.
         -2   -1    0    0    0  501 -0.00000000000E+00 -0.00000000000E+00 -0.53486623472E+03  0.53486623472E+03  0.00000000000E+00 0.  1.
         23    2    1    2    0    0  0.25583713054E+03 -0.29064904381E+03 -0.28123436555E+03  0.48720686264E+03  0.91368783523E+02 0.  0.
         13    1    3    3    0    0  0.15790002214E+03 -0.13914332547E+03 -0.19634779594E+03  0.28782935740E+03  0.00000000000E+00 0. -1.
        -13    1    3    3    0    0  0.97937108395E+02 -0.15150571834E+03 -0.84886569615E+02  0.19937750523E+03  0.00000000000E+00 0.  1.
         22    1    1    2    0    0 -0.25583713054E+03  0.29064904381E+03  0.98165966805E+02  0.39945720806E+03  0.00000000000E+00 0. -1.
<mgrwt>
<rscale>  0 0.86755930E+03</rscale>
<asrwt>0</asrwt>
<pdfrwt beam="1">  1        2 0.54122744E-01 0.86755930E+03</pdfrwt>
<pdfrwt beam="2">  1       -2 0.82287112E-01 0.86755930E+03</pdfrwt>
<totfact> 0.11979637E+02</totfact>
</mgrwt>
</event>
<event>
 6    1  0.1568961E-005  0.1193044E+04  0.7818608E-02  0.9118967E-01
         -2   -1    0    0    0  501 -0.00000000000E+00  0.00000000000E+00  0.44703471295E+03  0.44703471295E+03  0.00000000000E+00 0.  1.
          2   -1    0    0  501    0  0.00000000000E+00 -0.00000000000E+00 -0.79599728537E+03  0.79599728537E+03  0.00000000000E+00 0. -1.
         23    2    1    2    0    0  0.92437276455E+02  0.15691733726E+03  0.41206726253E+03  0.46051419629E+03  0.95426386941E+02 0.  0.
         13    1    3    3    0    0 -0.11372058880E+02  0.47083481182E+02  0.58155375828E+02  0.75685042519E+02  0.00000000000E+00 0. -1.
        -13    1    3    3    0    0  0.10380933533E+03  0.10983385608E+03  0.35391188670E+03  0.38482915377E+03  0.00000000000E+00 0.  1.
         22    1    1    2    0    0 -0.92437276455E+02 -0.15691733726E+03 -0.76102983495E+03  0.78251780203E+03  0.00000000000E+00 0. -1.
<mgrwt>
<rscale>  0 0.11930439E+04</rscale>
<asrwt>0</asrwt>
<pdfrwt beam="1">  1        2 0.12246112E+00 0.11930439E+04</pdfrwt>
<pdfrwt beam="2">  1       -2 0.68774571E-01 0.11930439E+04</pdfrwt>
<totfact> 0.66165666E+01</totfact>
</mgrwt>
</event>
<event>
 6    1  0.1568961E-005  0.4025773E+04  0.7818608E-02  0.7999367E-01
          1   -1    0    0  501    0  0.00000000000E+00  0.00000000000E+00  0.93865356897E+03  0.93865356897E+03  0.00000000000E+00 0. -1.
         -1   -1    0    0    0  501 -0.00000000000E+00 -0.00000000000E+00 -0.43165148090E+04  0.43165148090E+04  0.00000000000E+00 0.  1.
         23    2    1    2    0    0 -0.12923897262E+04 -0.15323985022E+04 -0.14672774858E+04  0.24859001251E+04  0.90993614971E+02 0.  0.
         11    1    3    3    0    0 -0.82798807517E+03 -0.93791603040E+03 -0.95703595090E+03  0.15751725442E+04  0.00000000000E+00 0.  1.
        -11    1    3    3    0    0 -0.46440165104E+03 -0.59448247182E+03 -0.51024153486E+03  0.91072758094E+03  0.00000000000E+00 0. -1.
         22    1    1    2    0    0  0.12923897262E+04  0.15323985022E+04 -0.19105837543E+04  0.27692682528E+04  0.00000000000E+00 0.  1.
<mgrwt>
<rscale>  0 0.40257730E+04</rscale>
<asrwt>0</asrwt>
<pdfrwt beam="1">  1        1 0.14440824E+00 0.40257730E+04</pdfrwt>
<pdfrwt beam="2">  1       -1 0.66407919E+00 0.40257730E+04</pdfrwt>
<totfact> 0.34833705E-03</totfact>
</mgrwt>
</event>
<event>
 6    1  0.1568961E-005  0.1959435E+04  0.7818608E-02  0.8625825E-01
         -2   -1    0    0    0  501 -0.00000000000E+00  0.00000000000E+00  0.10281366562E+04  0.10281366562E+04  0.00000000000E+00 0. -1.
          2   -1    0    0  501    0  0.00000000000E+00 -0.00000000000E+00 -0.93357856347E+03  0.93357856347E+03  0.00000000000E+00 0.  1.
         23    2    1    2    0    0 -0.95568247392E+03  0.58436508300E+01  0.25402319877E+03  0.99280229308E+03  0.88121895186E+02 0.  0.
         13    1    3    3    0    0 -0.49672340715E+03  0.90022006587E+01  0.17712061835E+03  0.52743425778E+03  0.00000000000E+00 0. -1.
        -13    1    3    3    0    0 -0.45895906676E+03 -0.31585498287E+01  0.76902580422E+02  0.46536803530E+03  0.00000000000E+00 0.  1.
         22    1    1    2    0    0  0.95568247392E+03 -0.58436508300E+01 -0.15946510607E+03  0.96891292657E+03  0.00000000000E+00 0.  1.
<mgrwt>
<rscale>  0 0.19594350E+04</rscale>
<asrwt>0</asrwt>
<pdfrwt beam="1">  1        2 0.14362747E+00 0.19594350E+04</pdfrwt>
<pdfrwt beam="2">  1       -2 0.15817487E+00 0.19594350E+04</pdfrwt>
<totfact> 0.67417973E+00</totfact>
</mgrwt>
</event>
<event>
 6    1  0.1568961E-005  0.2114482E+04  0.7818608E-02  0.8554891E-01
         -2   -1    0    0    0  501 -0.00000000000E+00  0.00000000000E+00  0.79807116338E+03  0.79807116338E+03  0.00000000000E+00 0.  1.
          2   -1    0    0  501    0  0.00000000000E+00 -0.00000000000E+00 -0.14005745693E+04  0.14005745693E+04  0.00000000000E+00 0. -1.
         23    2    1    2    0    0 -0.75057287378E+03 -0.72327356565E+03 -0.47262705442E+03  0.11482400223E+04  0.92706670031E+02 0.  0.
         13    1    3    3    0    0 -0.34962677106E+03 -0.29195947542E+03 -0.24207405903E+03  0.51582852227E+03  0.00000000000E+00 0. -1.
        -13    1    3    3    0    0 -0.40094610271E+03 -0.43131409023E+03 -0.23055299539E+03  0.63241150005E+03  0.00000000000E+00 0.  1.
         22    1    1    2    0    0  0.75057287378E+03  0.72327356565E+03 -0.12987635146E+03  0.10504057103E+04  0.00000000000E+00 0. -1.
<mgrwt>
<rscale>  0 0.21144817E+04</rscale>
<asrwt>0</asrwt>
<pdfrwt beam="1">  1        2 0.21547301E+00 0.21144817E+04</pdfrwt>
<pdfrwt beam="2">  1       -2 0.12278018E+00 0.21144817E+04</pdfrwt>
<totfact> 0.66760856E+00</totfact>
</mgrwt>
</event>
<event>
 6    1  0.1568961E-005  0.2505055E+04  0.7818608E-02  0.8401187E-01
         -1   -1    0    0    0  501 -0.00000000000E+00  0.00000000000E+00  0.21934476632E+04  0.21934476632E+04  0.00000000000E+00 0.  1.
          1   -1    0    0  501    0  0.00000000000E+00 -0.00000000000E+00 -0.71523253105E+03  0.71523253105E+03  0.00000000000E+00 0. -1.
         23    2    1    2    0    0 -0.32000151091E+03  0.11996688392E+04  0.56335303004E+03  0.13664159638E+04  0.90109149314E+02 0.  0.
         13    1    3    3    0    0 -0.14968679699E+03  0.51795594181E+03  0.29224551118E+03  0.61326334772E+03  0.00000000000E+00 0. -1.
        -13    1    3    3    0    0 -0.17031471392E+03  0.68171289741E+03  0.27110751886E+03  0.75315261604E+03  0.00000000000E+00 0.  1.
         22    1    1    2    0    0  0.32000151091E+03 -0.11996688392E+04  0.91486210213E+03  0.15422642305E+04  0.00000000000E+00 0. -1.
<mgrwt>
<rscale>  0 0.25050550E+04</rscale>
<asrwt>0</asrwt>
<pdfrwt beam="1">  1        1 0.11003577E+00 0.25050550E+04</pdfrwt>
<pdfrwt beam="2">  1       -1 0.33745348E+00 0.25050550E+04</pdfrwt>
<totfact> 0.44036333E-01</totfact>
</mgrwt>
</event>
<event>
 6    1  0.1568961E-005  0.8625420E+03  0.7818608E-02  0.9473656E-01
         -2   -1    0    0    0  501 -0.00000000000E+00  0.00000000000E+00  0.18351057123E+03  0.18351057123E+03  0.00000000000E+00 0.  1.
          2   -1    0    0  501    0  0.00000000000E+00 -0.00000000000E+00 -0.10135366886E+04  0.10135366886E+04  0.00000000000E+00 0. -1.
         23    2    1    2    0    0  0.15642083403E+03  0.71115415613E+02 -0.96134216137E+03  0.98078634551E+03  0.90764666352E+02 0.  0.
         13    1    3    3    0    0  0.76249866347E+02  0.83549309039E+02 -0.57405054274E+03  0.58508850166E+03  0.00000000000E+00 0. -1.
        -13    1    3    3    0    0  0.80170967680E+02 -0.12433893426E+02 -0.38729161863E+03  0.39569784384E+03  0.00000000000E+00 0.  1.
         22    1    1    2    0    0 -0.15642083403E+03 -0.71115415613E+02  0.13131604400E+03  0.21626091433E+03  0.00000000000E+00 0.  1.
<mgrwt>
<rscale>  0 0.86254205E+03</rscale>
<asrwt>0</asrwt>
<pdfrwt beam="1">  1        2 0.15592872E+00 0.86254205E+03</pdfrwt>
<pdfrwt beam="2">  1       -2 0.28232396E-01 0.86254205E+03</pdfrwt>
<totfact> 0.28409183E+02</totfact>
</mgrwt>
</event>
<event>
 6    1  0.1568961E-005  0.3154537E+04  0.7818608E-02  0.8200928E-01
          2   -1    0    0  501    0  0.00000000000E+00  0.00000000000E+00  0.23167499749E+04  0.23167499749E+04  0.00000000000E+00 0.  1.
         -2   -1    0    0    0  501 -0.00000000000E+00 -0.00000000000E+00 -0.10738217977E+04  0.10738217977E+04  0.00000000000E+00 0. -1.
         23    2    1    2    0    0 -0.13509476620E+04 -0.30934368870E+03  0.14283661557E+04  0.19923084401E+04  0.91158885366E+02 0.  0.
         13    1    3    3    0    0 -0.45398306728E+03 -0.12811943205E+03  0.53847421062E+03  0.71586988325E+03  0.00000000000E+00 0.  1.
        -13    1    3    3    0    0 -0.89696459476E+03 -0.18122425666E+03  0.88989194506E+03  0.12764385568E+04  0.00000000000E+00 0. -1.
         22    1    1    2    0    0  0.13509476620E+04  0.30934368870E+03 -0.18543797851E+03  0.13982633326E+04  0.00000000000E+00 0. -1.
<mgrwt>
<rscale>  0 0.31545374E+04</rscale>
<asrwt>0</asrwt>
<pdfrwt beam="1">  1        2 0.35642307E+00 0.31545374E+04</pdfrwt>
<pdfrwt beam="2">  1       -2 0.16520335E+00 0.31545374E+04</pdfrwt>
<totfact> 0.86491852E-01</totfact>
</mgrwt>
</event>
<event>
 6    1  0.1568961E-005  0.2624580E+04  0.7818608E-02  0.8359899E-01
          2   -1    0    0  501    0  0.00000000000E+00  0.00000000000E+00  0.41593307835E+04  0.41593307835E+04  0.00000000000E+00 0. -1.
         -2   -1    0    0    0  501 -0.00000000000E+00 -0.00000000000E+00 -0.41403430984E+03  0.41403430984E+03  0.00000000000E+00 0.  1.
         23    2    1    2    0    0 -0.44170625468E+03 -0.11892172912E+04  0.24513476030E+04  0.27612818003E+04  0.78929897695E+02 0.  0.
         11    1    3    3    0    0 -0.23794570473E+03 -0.67841460417E+03  0.13083290203E+04  0.14928460600E+04  0.00000000000E+00 0.  1.
        -11    1    3    3    0    0 -0.20376054995E+03 -0.51080268703E+03  0.11430185828E+04  0.12684357403E+04  0.00000000000E+00 0. -1.
         22    1    1    2    0    0  0.44170625468E+03  0.11892172912E+04  0.12939488706E+04  0.18120832930E+04  0.00000000000E+00 0.  1.
<mgrwt>
<rscale>  0 0.26245805E+04</rscale>
<asrwt>0</asrwt>
<pdfrwt beam="1">  1        2 0.63989702E+00 0.26245805E+04</pdfrwt>
<pdfrwt beam="2">  1       -2 0.63697589E-01 0.26245805E+04</pdfrwt>
<totfact> 0.50877789E-01</totfact>
</mgrwt>
</event>
<event>
 6    1  0.1568961E-005  0.2354665E+04  0.7818608E-02  0.8456674E-01
          1   -1    0    0  501    0  0.00000000000E+00  0.00000000000E+00  0.74596013634E+03  0.74596013634E+03  0.00000000000E+00 0. -1.
         -1   -1    0    0    0  501 -0.00000000000E+00 -0.00000000000E+00 -0.18581578450E+04  0.18581578450E+04  0.00000000000E+00 0.  1.
         23    2    1    2    0    0  0.55938982625E+03  0.75852240492E+03 -0.13341590106E+04  0.16358514704E+04  0.88071284428E+02 0.  0.
         13    1    3    3    0    0  0.10373345866E+03  0.89805378080E+02 -0.18231965580E+03  0.22817995808E+03  0.00000000000E+00 0.  1.
        -13    1    3    3    0    0  0.45565636759E+03  0.66871702684E+03 -0.11518393548E+04  0.14076715124E+04  0.00000000000E+00 0. -1.
         22    1    1    2    0    0 -0.55938982625E+03 -0.75852240492E+03  0.22196130202E+03  0.96826651087E+03  0.00000000000E+00 0. -1.
<mgrwt>
<rscale>  0 0.23546649E+04</rscale>
<asrwt>0</asrwt>
<pdfrwt beam="1">  1        1 0.11476310E+00 0.23546649E+04</pdfrwt>
<pdfrwt beam="2">  1       -1 0.28587044E+00 0.23546649E+04</pdfrwt>
<totfact> 0.90620594E-01</totfact>
</mgrwt>
</event>
<event>
 6    1  0.1568961E-005  0.1575658E+04  0.7818608E-02  0.8835643E-01
         -1   -1    0    0    0  501 -0.00000000000E+00  0.00000000000E+00  0.32241383600E+03  0.32241383600E+03  0.00000000000E+00 0.  1.
          1   -1    0    0  501    0  0.00000000000E+00 -0.00000000000E+00 -0.19250876663E+04  0.19250876663E+04  0.00000000000E+00 0. -1.
         23    2    1    2    0    0 -0.62069735886E+03 -0.33258735219E+03 -0.30852965336E+03  0.77417577156E+03  0.90983625659E+02 0.  0.
         13    1    3    3    0    0 -0.30472608093E+03 -0.21477465336E+03 -0.16420461194E+03  0.40736874046E+03  0.00000000000E+00 0. -1.
        -13    1    3    3    0    0 -0.31597127793E+03 -0.11781269884E+03 -0.14432504142E+03  0.36680703110E+03  0.00000000000E+00 0.  1.
         22    1    1    2    0    0  0.62069735886E+03  0.33258735219E+03 -0.12941441769E+04  0.14733257307E+04  0.00000000000E+00 0. -1.
<mgrwt>
<rscale>  0 0.15756585E+04</rscale>
<asrwt>0</asrwt>
<pdfrwt beam="1">  1        1 0.29616733E+00 0.15756585E+04</pdfrwt>
<pdfrwt beam="2">  1       -1 0.49602130E-01 0.15756585E+04</pdfrwt>
<totfact> 0.13131108E+01</totfact>
</mgrwt>
</event>
<event>
 6    1  0.1568961E-005  0.5079966E+03  0.7818608E-02  0.1011713E+00
         -2   -1    0    0    0  501 -0.00000000000E+00  0.00000000000E+00  0.55936733922E+02  0.55936733922E+02  0.00000000000E+00 0. -1.
          2   -1    0    0  501    0  0.00000000000E+00 -0.00000000000E+00 -0.11533590413E+04  0.11533590413E+04  0.00000000000E+00 0.  1.
         23    2    1    2    0    0  0.11123535584E+03 -0.16776652679E+03 -0.89888323337E+03  0.92656502734E+03  0.10006383338E+03 0.  0.
         13    1    3    3    0    0  0.29088769309E+02  0.67984313044E+01 -0.16869250807E+03  0.17131706700E+03  0.00000000000E+00 0.  1.
        -13    1    3    3    0    0  0.82146586528E+02 -0.17456495810E+03 -0.73019072531E+03  0.75524796034E+03  0.00000000000E+00 0. -1.
         22    1    1    2    0    0 -0.11123535584E+03  0.16776652679E+03 -0.19853907405E+03  0.28273074793E+03  0.00000000000E+00 0. -1.
<mgrwt>
<rscale>  0 0.50799661E+03</rscale>
<asrwt>0</asrwt>
<pdfrwt beam="1">  1        2 0.17743985E+00 0.50799661E+03</pdfrwt>
<pdfrwt beam="2">  1       -2 0.86056516E-02 0.50799661E+03</pdfrwt>
<totfact> 0.17864174E+03</totfact>
</mgrwt>
</event>
<event>
 6    1  0.1568961E-005  0.4020506E+04  0.7818608E-02  0.8000423E-01
         -2   -1    0    0    0  501 -0.00000000000E+00  0.00000000000E+00  0.13823495992E+04  0.13823495992E+04  0.00000000000E+00 0. -1.
          2   -1    0    0  501    0  0.00000000000E+00 -0.00000000000E+00 -0.29233677344E+04  0.29233677344E+04  0.00000000000E+00 0.  1.
         23    2    1    2    0    0  0.16622058977E+04  0.10951151395E+04 -0.47783191227E+03  0.20490448807E+04  0.89755064511E+02 0.  0.
         11    1    3    3    0    0  0.14015062306E+04  0.94973088598E+03 -0.42996413145E+03  0.17467334154E+04  0.00000000000E+00 0.  1.
        -11    1    3    3    0    0  0.26069966710E+03  0.14538425350E+03 -0.47867780814E+02  0.30231146527E+03  0.00000000000E+00 0. -1.
         22    1    1    2    0    0 -0.16622058977E+04 -0.10951151395E+04 -0.10631862230E+04  0.22566724529E+04  0.00000000000E+00 0. -1.
<mgrwt>
<rscale>  0 0.40205055E+04</rscale>
<asrwt>0</asrwt>
<pdfrwt beam="1">  1        2 0.44974888E+00 0.40205055E+04</pdfrwt>
<pdfrwt beam="2">  1       -2 0.21266917E+00 0.40205055E+04</pdfrwt>
<totfact> 0.16839721E-01</totfact>
</mgrwt>
</event>
<event>
 6    1  0.1568961E-005  0.1419768E+04  0.7818608E-02  0.8939633E-01
         -1   -1    0    0    0  501 -0.00000000000E+00  0.00000000000E+00  0.81839693072E+03  0.81839693072E+03  0.00000000000E+00 0.  1.
          1   -1    0    0  501    0  0.00000000000E+00 -0.00000000000E+00 -0.61575884878E+03  0.61575884878E+03  0.00000000000E+00 0. -1.
         23    2    1    2    0    0 -0.46257779760E+02 -0.16146227049E+03  0.79545677066E+03  0.81800332705E+03  0.90377663698E+02 0.  0.
         11    1    3    3    0    0 -0.41320524245E+02 -0.91339837605E+02  0.63442305096E+03  0.64229507179E+03  0.00000000000E+00 0.  1.
        -11    1    3    3    0    0 -0.49372555151E+01 -0.70122432883E+02  0.16103371970E+03  0.17570825525E+03  0.00000000000E+00 0. -1.
         22    1    1    2    0    0  0.46257779760E+02  0.16146227049E+03 -0.59281868871E+03  0.61615245245E+03  0.00000000000E+00 0. -1.
<mgrwt>
<rscale>  0 0.14197678E+04</rscale>
<asrwt>0</asrwt>
<pdfrwt beam="1">  1        1 0.94732130E-01 0.14197678E+04</pdfrwt>
<pdfrwt beam="2">  1       -1 0.12590722E+00 0.14197678E+04</pdfrwt>
<totfact> 0.17653272E+01</totfact>
</mgrwt>
</event>
<event>
 6    1  0.1568961E-005  0.3197733E+04  0.7818608E-02  0.8189416E-01
          1   -1    0    0  501    0  0.00000000000E+00  0.00000000000E+00  0.15834777084E+04  0.15834777084E+04  0.00000000000E+00 0. -1.
         -1   -1    0    0    0  501 -0.00000000000E+00 -0.00000000000E+00 -0.16144052682E+04  0.16144052682E+04  0.00000000000E+00 0.  1.
         23    2    1    2    0    0  0.59232879105E+03  0.46483250434E+03 -0.14244931562E+04  0.16139171547E+04  0.92871828475E+02 0.  0.
         11    1    3    3    0    0  0.19150120716E+03  0.17254775459E+03 -0.57598177988E+03  0.63103125970E+03  0.00000000000E+00 0. -1.
        -11    1    3    3    0    0  0.40082758389E+03  0.29228474976E+03 -0.84851137627E+03  0.98288589501E+03  0.00000000000E+00 0.  1.
         22    1    1    2    0    0 -0.59232879105E+03 -0.46483250434E+03  0.13935655963E+04  0.15839658219E+04  0.00000000000E+00 0. -1.
<mgrwt>
<rscale>  0 0.31977334E+04</rscale>
<asrwt>0</asrwt>
<pdfrwt beam="1">  1        1 0.24361195E+00 0.31977334E+04</pdfrwt>
<pdfrwt beam="2">  1       -1 0.24837004E+00 0.31977334E+04</pdfrwt>
<totfact> 0.34249550E-01</totfact>
</mgrwt>
</event>
<event>
 6    1  0.1568961E-005  0.1326864E+04  0.7818608E-02  0.9008529E-01
         -2   -1    0    0    0  501 -0.00000000000E+00  0.00000000000E+00  0.40849065324E+03  0.40849065324E+03  0.00000000000E+00 0.  1.
          2   -1    0    0  501    0  0.00000000000E+00 -0.00000000000E+00 -0.10774832267E+04  0.10774832267E+04  0.00000000000E+00 0. -1.
         23    2    1    2    0    0  0.42511039851E+03 -0.45732203650E+03 -0.57711799412E+03  0.85486118456E+03  0.88657598266E+02 0.  0.
         13    1    3    3    0    0  0.68497881008E+02 -0.34564058461E+02 -0.85419683363E+02  0.11481792606E+03  0.00000000000E+00 0. -1.
        -13    1    3    3    0    0  0.35661251750E+03 -0.42275797804E+03 -0.49169831076E+03  0.74004325849E+03  0.00000000000E+00 0.  1.
         22    1    1    2    0    0 -0.42511039851E+03  0.45732203650E+03 -0.91874579370E+02  0.63111269542E+03  0.00000000000E+00 0.  1.
<mgrwt>
<rscale>  0 0.13268637E+04</rscale>
<asrwt>0</asrwt>
<pdfrwt beam="1">  1        2 0.16576665E+00 0.13268637E+04</pdfrwt>
<pdfrwt beam="2">  1       -2 0.62844716E-01 0.13268637E+04</pdfrwt>
<totfact> 0.51664567E+01</totfact>
</mgrwt>
</event>
<event>
 6    1  0.1568961E-005  0.1756351E+04  0.7818608E-02  0.8729862E-01
         -1   -1    0    0    0  501 -0.00000000000E+00  0.00000000000E+00  0.33921459272E+03  0.33921459272E+03  0.00000000000E+00 0.  1.
          1   -1    0    0  501    0  0.00000000000E+00 -0.00000000000E+00 -0.22734635732E+04  0.22734635732E+04  0.00000000000E+00 0. -1.
         23    2    1    2    0    0  0.84371200996E+03 -0.82629344352E+01 -0.62063707207E+03  0.10514304349E+04  0.91637068357E+02 0.  0.
         11    1    3    3    0    0  0.28996882839E+03 -0.46094297475E+02 -0.20829537794E+03  0.35999106957E+03  0.00000000000E+00 0.  1.
        -11    1    3    3    0    0  0.55374318156E+03  0.37831363039E+02 -0.41234169413E+03  0.69143936529E+03  0.00000000000E+00 0. -1.
         22    1    1    2    0    0 -0.84371200996E+03  0.82629344352E+01 -0.13136119085E+04  0.15612477311E+04  0.00000000000E+00 0. -1.
<mgrwt>
<rscale>  0 0.17563508E+04</rscale>
<asrwt>0</asrwt>
<pdfrwt beam="1">  1        1 0.34976364E+00 0.17563508E+04</pdfrwt>
<pdfrwt beam="2">  1       -1 0.52186859E-01 0.17563508E+04</pdfrwt>
<totfact> 0.68016339E+00</totfact>
</mgrwt>
</event>
<event>
 6    1  0.1568961E-005  0.1104321E+04  0.7818608E-02  0.9200990E-01
          2   -1    0    0  501    0  0.00000000000E+00  0.00000000000E+00  0.47230004661E+03  0.47230004661E+03  0.00000000000E+00 0.  1.
         -2   -1    0    0    0  501 -0.00000000000E+00 -0.00000000000E+00 -0.64552485444E+03  0.64552485444E+03  0.00000000000E+00 0. -1.
         23    2    1    2    0    0 -0.47075350597E+03  0.28407923881E+03 -0.60479512761E+02  0.55655724756E+03  0.61549338329E+02 0.  0.
         11    1    3    3    0    0 -0.39884482969E+03  0.24533129415E+03 -0.29463590260E+02  0.46918306152E+03  0.00000000000E+00 0. -1.
        -11    1    3    3    0    0 -0.71908676271E+02  0.38747944655E+02 -0.31015922502E+02  0.87374186043E+02  0.00000000000E+00 0.  1.
         22    1    1    2    0    0  0.47075350597E+03 -0.28407923881E+03 -0.11274529507E+03  0.56126765350E+03  0.00000000000E+00 0. -1.
<mgrwt>
<rscale>  0 0.11043214E+04</rscale>
<asrwt>0</asrwt>
<pdfrwt beam="1">  1        2 0.72661546E-01 0.11043214E+04</pdfrwt>
<pdfrwt beam="2">  1       -2 0.99311516E-01 0.11043214E+04</pdfrwt>
<totfact> 0.54842511E+01</totfact>
</mgrwt>
</event>
<event>
 6    1  0.1568961E-005  0.6795702E+04  0.7818608E-02  0.7598880E-01
         -3   -1    0    0    0  501 -0.00000000000E+00  0.00000000000E+00  0.31596952722E+04  0.31596952722E+04  0.00000000000E+00 0.  1.
          3   -1    0    0  501    0  0.00000000000E+00 -0.00000000000E+00 -0.36539577693E+04  0.36539577693E+04  0.00000000000E+00 0. -1.
         23    2    1    2    0    0 -0.17102865565E+04 -0.62839595196E+03  0.26277635945E+04  0.31988213035E+04  0.85759229533E+02 0.  0.
         11    1    3    3    0    0 -0.31043668435E+03 -0.85082184545E+02  0.43265153861E+03  0.53925621645E+03  0.00000000000E+00 0. -1.
        -11    1    3    3    0    0 -0.13998498722E+04 -0.54331376742E+03  0.21951120559E+04  0.26595650871E+04  0.00000000000E+00 0.  1.
         22    1    1    2    0    0  0.17102865565E+04  0.62839595196E+03 -0.31220260915E+04  0.36148317380E+04  0.00000000000E+00 0. -1.
<mgrwt>
<rscale>  0 0.67957025E+04</rscale>
<asrwt>0</asrwt>
<pdfrwt beam="1">  1        3 0.56214735E+00 0.67957025E+04</pdfrwt>
<pdfrwt beam="2">  1       -3 0.48610697E+00 0.67957025E+04</pdfrwt>
<totfact> 0.10063148E-05</totfact>
</mgrwt>
</event>
<event>
 6    1  0.1568961E-005  0.9769866E+03  0.7818608E-02  0.9334152E-01
         -1   -1    0    0    0  501 -0.00000000000E+00  0.00000000000E+00  0.20328890645E+03  0.20328890645E+03  0.00000000000E+00 0.  1.
          1   -1    0    0  501    0  0.00000000000E+00 -0.00000000000E+00 -0.11738255599E+04  0.11738255599E+04  0.00000000000E+00 0. -1.
         23    2    1    2    0    0  0.22464967956E+03 -0.26323564574E+03 -0.12387216166E+02  0.35838445900E+03  0.92333599608E+02 0.  0.
         11    1    3    3    0    0  0.45339886173E+02 -0.56048268410E+02  0.35285909860E+02  0.80263373369E+02  0.00000000000E+00 0. -1.
        -11    1    3    3    0    0  0.17930979338E+03 -0.20718737733E+03 -0.47673126026E+02  0.27812108563E+03  0.00000000000E+00 0.  1.
         22    1    1    2    0    0 -0.22464967956E+03  0.26323564574E+03 -0.95814943731E+03  0.10187300074E+04  0.00000000000E+00 0. -1.
<mgrwt>
<rscale>  0 0.97698662E+03</rscale>
<asrwt>0</asrwt>
<pdfrwt beam="1">  1        1 0.18058855E+00 0.97698662E+03</pdfrwt>
<pdfrwt beam="2">  1       -1 0.31275216E-01 0.97698662E+03</pdfrwt>
<totfact> 0.10619833E+02</totfact>
</mgrwt>
</event>
<event>
 6    1  0.1568961E-005  0.1964679E+04  0.7818608E-02  0.8623315E-01
          1   -1    0    0  501    0  0.00000000000E+00  0.00000000000E+00  0.36344257522E+03  0.36344257522E+03  0.00000000000E+00 0. -1.
         -1   -1    0    0    0  501 -0.00000000000E+00 -0.00000000000E+00 -0.26551396151E+04  0.26551396151E+04  0.00000000000E+00 0.  1.
         23    2    1    2    0    0  0.15853944089E+03 -0.80119019373E+03 -0.19811601505E+04  0.21448124034E+04  0.90466696784E+02 0.  0.
         13    1    3    3    0    0  0.63400629962E+02 -0.29669696614E+03 -0.85247093746E+03  0.90485105339E+03  0.00000000000E+00 0. -1.
        -13    1    3    3    0    0  0.95138810932E+02 -0.50449322759E+03 -0.11286892130E+04  0.12399613500E+04  0.00000000000E+00 0.  1.
         22    1    1    2    0    0 -0.15853944089E+03  0.80119019373E+03 -0.31053688945E+03  0.87376978694E+03  0.00000000000E+00 0. -1.
<mgrwt>
<rscale>  0 0.19646789E+04</rscale>
<asrwt>0</asrwt>
<pdfrwt beam="1">  1        1 0.55914245E-01 0.19646789E+04</pdfrwt>
<pdfrwt beam="2">  1       -1 0.40848299E+00 0.19646789E+04</pdfrwt>
<totfact> 0.39754062E-01</totfact>
</mgrwt>
</event>
<event>
 6    1  0.1568961E-005  0.2188015E+04  0.7818608E-02  0.8523433E-01
          1   -1    0    0  501    0  0.00000000000E+00  0.00000000000E+00  0.18566915046E+04  0.18566915046E+04  0.00000000000E+00 0. -1.
         -1   -1    0    0    0  501 -0.00000000000E+00 -0.00000000000E+00 -0.64461587936E+03  0.64461587936E+03  0.00000000000E+00 0.  1.
         23    2    1    2    0    0  0.63067042575E+03 -0.12639013821E+03 -0.40186866685E+03  0.76391398265E+03  0.91359151341E+02 0.  0.
         11    1    3    3    0    0  0.28613996842E+03 -0.59944357922E+02 -0.12960155211E+03  0.31979050938E+03  0.00000000000E+00 0.  1.
        -11    1    3    3    0    0  0.34453045733E+03 -0.66445780290E+02 -0.27226711473E+03  0.44412347327E+03  0.00000000000E+00 0. -1.
         22    1    1    2    0    0 -0.63067042575E+03  0.12639013821E+03  0.16139442921E+04  0.17373934013E+04  0.00000000000E+00 0. -1.
<mgrwt>
<rscale>  0 0.21880154E+04</rscale>
<asrwt>0</asrwt>
<pdfrwt beam="1">  1        1 0.28564485E+00 0.21880154E+04</pdfrwt>
<pdfrwt beam="2">  1       -1 0.99171674E-01 0.21880154E+04</pdfrwt>
<totfact> 0.33048877E+00</totfact>
</mgrwt>
</event>
<event>
 6    1  0.1568961E-005  0.3145650E+04  0.7818608E-02  0.8203320E-01
          1   -1    0    0  501    0  0.00000000000E+00  0.00000000000E+00  0.14990402778E+04  0.14990402778E+04  0.00000000000E+00 0. -1.
         -1   -1    0    0    0  501 -0.00000000000E+00 -0.00000000000E+00 -0.16502419117E+04  0.16502419117E+04  0.00000000000E+00 0.  1.
         23    2    1    2    0    0 -0.84816116662E+01  0.11788276365E+04  0.96466708938E+03  0.15260540657E+04  0.92476395699E+02 0.  0.
         13    1    3    3    0    0 -0.45046590022E+02  0.66220602812E+03  0.51341747732E+03  0.83913260274E+03  0.00000000000E+00 0. -1.
        -13    1    3    3    0    0  0.36564978356E+02  0.51662160840E+03  0.45124961206E+03  0.68692146297E+03  0.00000000000E+00 0.  1.
         22    1    1    2    0    0  0.84816116662E+01 -0.11788276365E+04 -0.11158687233E+04  0.16232281238E+04  0.00000000000E+00 0.  1.
<mgrwt>
<rscale>  0 0.31456504E+04</rscale>
<asrwt>0</asrwt>
<pdfrwt beam="1">  1        1 0.23062158E+00 0.31456504E+04</pdfrwt>
<pdfrwt beam="2">  1       -1 0.25388337E+00 0.31456504E+04</pdfrwt>
<totfact> 0.36216242E-01</totfact>
</mgrwt>
</event>
<event>
 6    1  0.1568961E-005  0.1707202E+04  0.7818608E-02  0.8757267E-01
          1   -1    0    0  501    0  0.00000000000E+00  0.00000000000E+00  0.13760669239E+04  0.13760669239E+04  0.00000000000E+00 0. -1.
         -1   -1    0    0    0  501 -0.00000000000E+00 -0.00000000000E+00 -0.52950552103E+03  0.52950552103E+03  0.00000000000E+00 0.  1.
         23    2    1    2    0    0 -0.27779551541E+03  0.79970292195E+03  0.52410565178E+03  0.99966250288E+03  0.89125045202E+02 0.  0.
         13    1    3    3    0    0 -0.16937208300E+03  0.45405472484E+03  0.34967716166E+03  0.59760079739E+03  0.00000000000E+00 0.  1.
        -13    1    3    3    0    0 -0.10842343241E+03  0.34564819710E+03  0.17442849012E+03  0.40206170549E+03  0.00000000000E+00 0. -1.
         22    1    1    2    0    0  0.27779551541E+03 -0.79970292195E+03  0.32245575114E+03  0.90590994210E+03  0.00000000000E+00 0. -1.
<mgrwt>
<rscale>  0 0.17072024E+04</rscale>
<asrwt>0</asrwt>
<pdfrwt beam="1">  1        1 0.21170260E+00 0.17072024E+04</pdfrwt>
<pdfrwt beam="2">  1       -1 0.81462388E-01 0.17072024E+04</pdfrwt>
<totfact> 0.11398716E+01</totfact>
</mgrwt>
</event>
<event>
 6    1  0.1568961E-005  0.1641265E+04  0.7818608E-02  0.8795591E-01
         -2   -1    0    0    0  501 -0.00000000000E+00  0.00000000000E+00  0.24434757387E+03  0.24434757387E+03  0.00000000000E+00 0.  1.
          2   -1    0    0  501    0  0.00000000000E+00 -0.00000000000E+00 -0.27560657086E+04  0.27560657086E+04  0.00000000000E+00 0. -1.
         23    2    1    2    0    0 -0.50641380460E+03 -0.63833270181E+03 -0.13936770186E+04  0.16169612533E+04  0.91128934842E+02 0.  0.
         13    1    3    3    0    0 -0.13632795728E+03 -0.19247816891E+03 -0.48402553516E+03  0.53843651077E+03  0.00000000000E+00 0. -1.
        -13    1    3    3    0    0 -0.37008584732E+03 -0.44585453290E+03 -0.90965148342E+03  0.10785247425E+04  0.00000000000E+00 0.  1.
         22    1    1    2    0    0  0.50641380460E+03  0.63833270181E+03 -0.11180411162E+04  0.13834520292E+04  0.00000000000E+00 0.  1.
<mgrwt>
<rscale>  0 0.16412653E+04</rscale>
<asrwt>0</asrwt>
<pdfrwt beam="1">  1        2 0.42401012E+00 0.16412653E+04</pdfrwt>
<pdfrwt beam="2">  1       -2 0.37591934E-01 0.16412653E+04</pdfrwt>
<totfact> 0.15739659E+01</totfact>
</mgrwt>
</event>
<event>
 6    1  0.1568961E-005  0.9316403E+03  0.7818608E-02  0.9386871E-01
          1   -1    0    0  501    0  0.00000000000E+00  0.00000000000E+00  0.66286439694E+03  0.66286439694E+03  0.00000000000E+00 0. -1.
         -1   -1    0    0    0  501 -0.00000000000E+00 -0.00000000000E+00 -0.32734961885E+03  0.32734961885E+03  0.00000000000E+00 0.  1.
         23    2    1    2    0    0  0.22124908124E+03 -0.27864836610E+03  0.48181476143E+03  0.60550665557E+03  0.88863815652E+02 0.  0.
         13    1    3    3    0    0  0.11189977107E+03 -0.16387587266E+03  0.19741466137E+03  0.27990964422E+03  0.00000000000E+00 0. -1.
        -13    1    3    3    0    0  0.10934931017E+03 -0.11477249344E+03  0.28440010006E+03  0.32559701135E+03  0.00000000000E+00 0.  1.
         22    1    1    2    0    0 -0.22124908124E+03  0.27864836610E+03 -0.14629998333E+03  0.38470736022E+03  0.00000000000E+00 0.  1.
<mgrwt>
<rscale>  0 0.93164029E+03</rscale>
<asrwt>0</asrwt>
<pdfrwt beam="1">  1        1 0.10197914E+00 0.93164029E+03</pdfrwt>
<pdfrwt beam="2">  1       -1 0.50361480E-01 0.93164029E+03</pdfrwt>
<totfact> 0.11781297E+02</totfact>
</mgrwt>
</event>
<event>
 6    1  0.1568961E-005  0.1151014E+04  0.7818608E-02  0.9156849E-01
          2   -1    0    0  501    0  0.00000000000E+00  0.00000000000E+00  0.64800793475E+03  0.64800793475E+03  0.00000000000E+00 0. -1.
         -2   -1    0    0    0  501 -0.00000000000E+00 -0.00000000000E+00 -0.51111745394E+03  0.51111745394E+03  0.00000000000E+00 0.  1.
         23    2    1    2    0    0  0.22541068074E+03 -0.50753673853E+03  0.20521683483E+03  0.59959700996E+03  0.94863634294E+02 0.  0.
         13    1    3    3    0    0  0.96502296881E+02 -0.11521973253E+03  0.48908192868E+02  0.15805154665E+03  0.00000000000E+00 0. -1.
        -13    1    3    3    0    0  0.12890838386E+03 -0.39231700599E+03  0.15630864196E+03  0.44154546332E+03  0.00000000000E+00 0.  1.
         22    1    1    2    0    0 -0.22541068074E+03  0.50753673853E+03 -0.68326354025E+02  0.55952837873E+03  0.00000000000E+00 0.  1.
<mgrwt>
<rscale>  0 0.11510138E+04</rscale>
<asrwt>0</asrwt>
<pdfrwt beam="1">  1        2 0.99693528E-01 0.11510138E+04</pdfrwt>
<pdfrwt beam="2">  1       -2 0.78633454E-01 0.11510138E+04</pdfrwt>
<totfact> 0.64226736E+01</totfact>
</mgrwt>
</event>
<event>
 6    1  0.1568961E-005  0.5746512E+04  0.7818608E-02  0.7722651E-01
          2   -1    0    0  501    0  0.00000000000E+00  0.00000000000E+00  0.34112779591E+04  0.34112779591E+04  0.00000000000E+00 0. -1.
         -2   -1    0    0    0  501 -0.00000000000E+00 -0.00000000000E+00 -0.24200905102E+04  0.24200905102E+04  0.00000000000E+00 0.  1.
         23    2    1    2    0    0 -0.22473727928E+03  0.85554581090E+03  0.32690313896E+04  0.33877976195E+04  0.90227518843E+02 0.  0.
         11    1    3    3    0    0 -0.43084568129E+02  0.32169673271E+03  0.12588247908E+04  0.12999942007E+04  0.00000000000E+00 0. -1.
        -11    1    3    3    0    0 -0.18165271115E+03  0.53384907820E+03  0.20102065988E+04  0.20878034188E+04  0.00000000000E+00 0.  1.
         22    1    1    2    0    0  0.22473727928E+03 -0.85554581090E+03 -0.22778439408E+04  0.24435708498E+04  0.00000000000E+00 0.  1.
<mgrwt>
<rscale>  0 0.57465125E+04</rscale>
<asrwt>0</asrwt>
<pdfrwt beam="1">  1        2 0.52481199E+00 0.57465125E+04</pdfrwt>
<pdfrwt beam="2">  1       -2 0.37232162E+00 0.57465125E+04</pdfrwt>
<totfact> 0.72031667E-03</totfact>
</mgrwt>
</event>
<event>
 6    1  0.1568961E-005  0.1305956E+04  0.7818608E-02  0.9024855E-01
         -1   -1    0    0    0  501 -0.00000000000E+00  0.00000000000E+00  0.27088744314E+03  0.27088744314E+03  0.00000000000E+00 0.  1.
          1   -1    0    0  501    0  0.00000000000E+00 -0.00000000000E+00 -0.15740131756E+04  0.15740131756E+04  0.00000000000E+00 0. -1.
         23    2    1    2    0    0 -0.50045324475E+03 -0.17700606984E+03 -0.11842945006E+04  0.13009286888E+04  0.89874302170E+02 0.  0.
         11    1    3    3    0    0 -0.18063902182E+03 -0.72553027240E+02 -0.33545435829E+03  0.38784536153E+03  0.00000000000E+00 0.  1.
        -11    1    3    3    0    0 -0.31981422293E+03 -0.10445304260E+03 -0.84884014233E+03  0.91308332726E+03  0.00000000000E+00 0. -1.
         22    1    1    2    0    0  0.50045324475E+03  0.17700606984E+03 -0.11883123188E+03  0.54397192998E+03  0.00000000000E+00 0.  1.
<mgrwt>
<rscale>  0 0.13059562E+04</rscale>
<asrwt>0</asrwt>
<pdfrwt beam="1">  1        1 0.24215587E+00 0.13059562E+04</pdfrwt>
<pdfrwt beam="2">  1       -1 0.41674992E-01 0.13059562E+04</pdfrwt>
<totfact> 0.32252286E+01</totfact>
</mgrwt>
</event>
<event>
 6    1  0.1568961E-005  0.4316530E+04  0.7818608E-02  0.7943569E-01
         -1   -1    0    0    0  501 -0.00000000000E+00  0.00000000000E+00  0.29430328228E+04  0.29430328228E+04  0.00000000000E+00 0.  1.
          1   -1    0    0  501    0  0.00000000000E+00 -0.00000000000E+00 -0.15827579924E+04  0.15827579924E+04  0.00000000000E+00 0. -1.
         23    2    1    2    0    0 -0.79977628934E+03 -0.14857413250E+04 -0.72895856525E+03  0.18402805137E+04  0.90456516787E+02 0.  0.
         11    1    3    3    0    0 -0.51031588882E+03 -0.87147417071E+03 -0.46359459767E+03  0.11112198197E+04  0.00000000000E+00 0.  1.
        -11    1    3    3    0    0 -0.28946040051E+03 -0.61426715430E+03 -0.26536396758E+03  0.72906069405E+03  0.00000000000E+00 0. -1.
         22    1    1    2    0    0  0.79977628934E+03  0.14857413250E+04  0.20892333957E+04  0.26855103015E+04  0.00000000000E+00 0.  1.
<mgrwt>
<rscale>  0 0.43165304E+04</rscale>
<asrwt>0</asrwt>
<pdfrwt beam="1">  1        1 0.24350123E+00 0.43165304E+04</pdfrwt>
<pdfrwt beam="2">  1       -1 0.45277428E+00 0.43165304E+04</pdfrwt>
<totfact> 0.13552051E-02</totfact>
</mgrwt>
</event>
<event>
 6    1  0.1568961E-005  0.4096434E+04  0.7818608E-02  0.7985370E-01
          2   -1    0    0  501    0  0.00000000000E+00  0.00000000000E+00  0.24646301128E+04  0.24646301128E+04  0.00000000000E+00 0. -1.
         -2   -1    0    0    0  501 -0.00000000000E+00 -0.00000000000E+00 -0.17021591977E+04  0.17021591977E+04  0.00000000000E+00 0.  1.
         23    2    1    2    0    0  0.14838549769E+04  0.28067856388E+02  0.18157379468E+04  0.23469033698E+04  0.91857166935E+02 0.  0.
         11    1    3    3    0    0  0.76624460017E+03 -0.10892571366E+01  0.10053036309E+04  0.12640282291E+04  0.00000000000E+00 0.  1.
        -11    1    3    3    0    0  0.71761037669E+03  0.29157113525E+02  0.81043431587E+03  0.10828751407E+04  0.00000000000E+00 0. -1.
         22    1    1    2    0    0 -0.14838549769E+04 -0.28067856388E+02 -0.10532670316E+04  0.18198859406E+04  0.00000000000E+00 0.  1.
<mgrwt>
<rscale>  0 0.40964340E+04</rscale>
<asrwt>0</asrwt>
<pdfrwt beam="1">  1        2 0.37917386E+00 0.40964340E+04</pdfrwt>
<pdfrwt beam="2">  1       -2 0.26187065E+00 0.40964340E+04</pdfrwt>
<totfact> 0.15522940E-01</totfact>
</mgrwt>
</event>
<event>
 6    1  0.1568961E-005  0.1878359E+04  0.7818608E-02  0.8665704E-01
         -2   -1    0    0    0  501 -0.00000000000E+00  0.00000000000E+00  0.35963412218E+03  0.35963412218E+03  0.00000000000E+00 0. -1.
          2   -1    0    0  501    0  0.00000000000E+00 -0.00000000000E+00 -0.24526553335E+04  0.24526553335E+04  0.00000000000E+00 0.  1.
         23    2    1    2    0    0  0.59196584859E+03 -0.46158500509E+03 -0.18885916045E+04  0.20342947597E+04  0.89959090045E+02 0.  0.
         13    1    3    3    0    0  0.13110734475E+03 -0.59588133917E+02 -0.38871331730E+03  0.41453338177E+03  0.00000000000E+00 0. -1.
        -13    1    3    3    0    0  0.46085850384E+03 -0.40199687117E+03 -0.14998782872E+04  0.16197613779E+04  0.00000000000E+00 0.  1.
         22    1    1    2    0    0 -0.59196584859E+03  0.46158500509E+03 -0.20442960679E+03  0.77799469596E+03  0.00000000000E+00 0. -1.
<mgrwt>
<rscale>  0 0.18783594E+04</rscale>
<asrwt>0</asrwt>
<pdfrwt beam="1">  1        2 0.37733158E+00 0.18783594E+04</pdfrwt>
<pdfrwt beam="2">  1       -2 0.55328328E-01 0.18783594E+04</pdfrwt>
<totfact> 0.10689379E+01</totfact>
</mgrwt>
</event>
<event>
 6    1  0.1568961E-005  0.3078311E+04  0.7818608E-02  0.8221716E-01
          2   -1    0    0  501    0  0.00000000000E+00  0.00000000000E+00  0.21572910974E+04  0.21572910974E+04  0.00000000000E+00 0. -1.
         -2   -1    0    0    0  501 -0.00000000000E+00 -0.00000000000E+00 -0.10981360904E+04  0.10981360904E+04  0.00000000000E+00 0.  1.
         23    2    1    2    0    0  0.87866025349E+03  0.24367288125E+03 -0.77960597923E+03  0.12029988021E+04  0.89444513415E+02 0.  0.
         11    1    3    3    0    0  0.47754470754E+03  0.16209301575E+03 -0.47485102663E+03  0.69268072800E+03  0.00000000000E+00 0. -1.
        -11    1    3    3    0    0  0.40111554595E+03  0.81579865502E+02 -0.30475495260E+03  0.51031807414E+03  0.00000000000E+00 0.  1.
         22    1    1    2    0    0 -0.87866025349E+03 -0.24367288125E+03  0.18387609862E+04  0.20524283857E+04  0.00000000000E+00 0. -1.
<mgrwt>
<rscale>  0 0.30783107E+04</rscale>
<asrwt>0</asrwt>
<pdfrwt beam="1">  1        2 0.33189094E+00 0.30783107E+04</pdfrwt>
<pdfrwt beam="2">  1       -2 0.16894401E+00 0.30783107E+04</pdfrwt>
<totfact> 0.10066047E+00</totfact>
</mgrwt>
</event>
<event>
 6    1  0.1568961E-005  0.9054156E+03  0.7818608E-02  0.9418837E-01
         -2   -1    0    0    0  501 -0.00000000000E+00  0.00000000000E+00  0.27017748918E+03  0.27017748918E+03  0.00000000000E+00 0.  1.
          2   -1    0    0  501    0  0.00000000000E+00 -0.00000000000E+00 -0.75855452648E+03  0.75855452648E+03  0.00000000000E+00 0. -1.
         23    2    1    2    0    0 -0.22892407322E+03  0.35901487137E+03 -0.89984395400E+02  0.44562430152E+03  0.95843192398E+02 0.  0.
         13    1    3    3    0    0 -0.15065002336E+03  0.25241446056E+03 -0.16703981742E+02  0.29442743155E+03  0.00000000000E+00 0.  1.
        -13    1    3    3    0    0 -0.78274049861E+02  0.10660041080E+03 -0.73280413658E+02  0.15119686998E+03  0.00000000000E+00 0. -1.
         22    1    1    2    0    0  0.22892407322E+03 -0.35901487137E+03 -0.39839264190E+03  0.58310771413E+03  0.00000000000E+00 0. -1.
<mgrwt>
<rscale>  0 0.90541561E+03</rscale>
<asrwt>0</asrwt>
<pdfrwt beam="1">  1        2 0.11670069E+00 0.90541561E+03</pdfrwt>
<pdfrwt beam="2">  1       -2 0.41565768E-01 0.90541561E+03</pdfrwt>
<totfact> 0.20308417E+02</totfact>
</mgrwt>
</event>
<event>
 6    1  0.1568961E-005  0.1458506E+04  0.7818608E-02  0.8912525E-01
          4   -1    0    0  501    0  0.00000000000E+00  0.00000000000E+00  0.15497031976E+04  0.15497031976E+04  0.00000000000E+00 0. -1.
         -4   -1    0    0    0  501 -0.00000000000E+00 -0.00000000000E+00 -0.34316868080E+03  0.34316868080E+03  0.00000000000E+00 0.  1.
         23    2    1    2    0    0 -0.10724621689E+02 -0.82667514854E+02  0.15419717831E+04  0.15472317548E+04  0.96437480512E+02 0.  0.
         11    1    3    3    0    0  0.62103554245E-01 -0.82440464750E+02  0.65158450217E+03  0.65677910864E+03  0.00000000000E+00 0. -1.
        -11    1    3    3    0    0 -0.10786725244E+02 -0.22705010435E+00  0.89038728090E+03  0.89045264612E+03  0.00000000000E+00 0.  1.
         22    1    1    2    0    0  0.10724621689E+02  0.82667514854E+02 -0.33543726622E+03  0.34564012368E+03  0.00000000000E+00 0.  1.
<mgrwt>
<rscale>  0 0.14585055E+04</rscale>
<asrwt>0</asrwt>
<pdfrwt beam="1">  1        4 0.23841587E+00 0.14585055E+04</pdfrwt>
<pdfrwt beam="2">  1       -4 0.52795182E-01 0.14585055E+04</pdfrwt>
<totfact> 0.49873197E-01</totfact>
</mgrwt>
</event>
<event>
 6    1  0.1568961E-005  0.8168098E+04  0.7818608E-02  0.7467664E-01
          2   -1    0    0  501    0  0.00000000000E+00  0.00000000000E+00  0.37785174707E+04  0.37785174707E+04  0.00000000000E+00 0. -1.
         -2   -1    0    0    0  501 -0.00000000000E+00 -0.00000000000E+00 -0.44142855970E+04  0.44142855970E+04  0.00000000000E+00 0.  1.
         23    2    1    2    0    0  0.56038336983E+03 -0.17672684959E+04  0.33315751703E+04  0.38136387307E+04  0.84733674214E+02 0.  0.
         13    1    3    3    0    0  0.43182781562E+03 -0.12602126312E+04  0.23452926083E+04  0.26972223781E+04  0.00000000000E+00 0. -1.
        -13    1    3    3    0    0  0.12855555420E+03 -0.50705586469E+03  0.98628256195E+03  0.11164163526E+04  0.00000000000E+00 0.  1.
         22    1    1    2    0    0 -0.56038336983E+03  0.17672684959E+04 -0.39673432965E+04  0.43791643370E+04  0.00000000000E+00 0.  1.
<mgrwt>
<rscale>  0 0.81680978E+04</rscale>
<asrwt>0</asrwt>
<pdfrwt beam="1">  1        2 0.58131038E+00 0.81680978E+04</pdfrwt>
<pdfrwt beam="2">  1       -2 0.67912086E+00 0.81680978E+04</pdfrwt>
<totfact> 0.80820551E-05</totfact>
</mgrwt>
</event>
<event>
 6    1  0.1568961E-005  0.4310576E+04  0.7818608E-02  0.7944665E-01
          2   -1    0    0  501    0  0.00000000000E+00  0.00000000000E+00  0.27841538105E+04  0.27841538105E+04  0.00000000000E+00 0. -1.
         -2   -1    0    0    0  501 -0.00000000000E+00 -0.00000000000E+00 -0.16684657723E+04  0.16684657723E+04  0.00000000000E+00 0.  1.
         23    2    1    2    0    0 -0.16756107295E+03  0.75448929275E+03  0.26352305912E+04  0.27478203640E+04  0.93518330360E+02 0.  0.
         11    1    3    3    0    0 -0.13672842438E+03  0.52953371898E+03  0.19910008558E+04  0.20647481757E+04  0.00000000000E+00 0.  1.
        -11    1    3    3    0    0 -0.30832648573E+02  0.22495557377E+03  0.64422973542E+03  0.68307218827E+03  0.00000000000E+00 0. -1.
         22    1    1    2    0    0  0.16756107295E+03 -0.75448929275E+03 -0.15195425530E+04  0.17047992188E+04  0.00000000000E+00 0.  1.
<mgrwt>
<rscale>  0 0.43105755E+04</rscale>
<asrwt>0</asrwt>
<pdfrwt beam="1">  1        2 0.42833135E+00 0.43105755E+04</pdfrwt>
<pdfrwt beam="2">  1       -2 0.25668704E+00 0.43105755E+04</pdfrwt>
<totfact> 0.10630818E-01</totfact>
</mgrwt>
</event>
<event>
 6    1  0.1568961E-005  0.4224436E+04  0.7818608E-02  0.7960740E-01
          1   -1    0    0  501    0  0.00000000000E+00  0.00000000000E+00  0.22193193883E+04  0.22193193883E+04  0.00000000000E+00 0. -1.
         -1   -1    0    0    0  501 -0.00000000000E+00 -0.00000000000E+00 -0.20102851051E+04  0.20102851051E+04  0.00000000000E+00 0.  1.
         23    2    1    2    0    0  0.14354393983E+04  0.36565509952E+03 -0.14016760291E+04  0.20413226038E+04  0.90068664274E+02 0.  0.
         13    1    3    3    0    0  0.72847180404E+03  0.22962628887E+03 -0.74116705074E+03  0.10642969505E+04  0.00000000000E+00 0. -1.
        -13    1    3    3    0    0  0.70696759428E+03  0.13602881065E+03 -0.66050897834E+03  0.97702565328E+03  0.00000000000E+00 0.  1.
         22    1    1    2    0    0 -0.14354393983E+04 -0.36565509952E+03  0.16107103123E+04  0.21882818896E+04  0.00000000000E+00 0. -1.
<mgrwt>
<rscale>  0 0.42244359E+04</rscale>
<asrwt>0</asrwt>
<pdfrwt beam="1">  1        1 0.34143375E+00 0.42244359E+04</pdfrwt>
<pdfrwt beam="2">  1       -1 0.30927463E+00 0.42244359E+04</pdfrwt>
<totfact> 0.46686998E-02</totfact>
</mgrwt>
</event>
<event>
 6    1  0.1568961E-005  0.2484409E+04  0.7818608E-02  0.8408561E-01
         -2   -1    0    0    0  501 -0.00000000000E+00  0.00000000000E+00  0.58963699328E+03  0.58963699328E+03  0.00000000000E+00 0.  1.
          2   -1    0    0  501    0  0.00000000000E+00 -0.00000000000E+00 -0.26169859592E+04  0.26169859592E+04  0.00000000000E+00 0. -1.
         23    2    1    2    0    0 -0.28304723791E+03 -0.35171931619E+03  0.47644005134E+03  0.66245675131E+03  0.89619242148E+02 0.  0.
         13    1    3    3    0    0 -0.22722408932E+03 -0.29722598904E+03  0.34131109675E+03  0.50642604603E+03  0.00000000000E+00 0.  1.
        -13    1    3    3    0    0 -0.55823148591E+02 -0.54493327145E+02  0.13512895458E+03  0.15603070528E+03  0.00000000000E+00 0. -1.
         22    1    1    2    0    0  0.28304723791E+03  0.35171931619E+03 -0.25037890172E+04  0.25441662011E+04  0.00000000000E+00 0. -1.
<mgrwt>
<rscale>  0 0.24844088E+04</rscale>
<asrwt>0</asrwt>
<pdfrwt beam="1">  1        2 0.40261323E+00 0.24844088E+04</pdfrwt>
<pdfrwt beam="2">  1       -2 0.90713383E-01 0.24844088E+04</pdfrwt>
<totfact> 0.27555942E+00</totfact>
</mgrwt>
</event>
<event>
 6    1  0.1568961E-005  0.2495350E+04  0.7818608E-02  0.8404644E-01
          1   -1    0    0  501    0  0.00000000000E+00  0.00000000000E+00  0.13861700332E+04  0.13861700332E+04  0.00000000000E+00 0. -1.
         -1   -1    0    0    0  501 -0.00000000000E+00 -0.00000000000E+00 -0.11230171439E+04  0.11230171439E+04  0.00000000000E+00 0.  1.
         23    2    1    2    0    0 -0.28122612304E+02  0.72256564229E+03 -0.88852236142E+03  0.11493166421E+04  0.92546033502E+02 0.  0.
         11    1    3    3    0    0  0.16096148118E+01  0.39452974202E+02 -0.20991967277E+02  0.44719019705E+02  0.00000000000E+00 0.  1.
        -11    1    3    3    0    0 -0.29732227116E+02  0.68311266808E+03 -0.86753039414E+03  0.11045976224E+04  0.00000000000E+00 0. -1.
         22    1    1    2    0    0  0.28122612304E+02 -0.72256564229E+03  0.11516752507E+04  0.13598705349E+04  0.00000000000E+00 0. -1.
<mgrwt>
<rscale>  0 0.24953498E+04</rscale>
<asrwt>0</asrwt>
<pdfrwt beam="1">  1        1 0.21325693E+00 0.24953498E+04</pdfrwt>
<pdfrwt beam="2">  1       -1 0.17277187E+00 0.24953498E+04</pdfrwt>
<totfact> 0.16398207E+00</totfact>
</mgrwt>
</event>
<event>
 6    1  0.1568961E-005  0.1646941E+04  0.7818608E-02  0.8792218E-01
         -1   -1    0    0    0  501 -0.00000000000E+00  0.00000000000E+00  0.72631187432E+03  0.72631187432E+03  0.00000000000E+00 0.  1.
          1   -1    0    0  501    0  0.00000000000E+00 -0.00000000000E+00 -0.93362577174E+03  0.93362577174E+03  0.00000000000E+00 0. -1.
         23    2    1    2    0    0 -0.20860492486E+03 -0.22821943685E+03  0.66216095016E+03  0.73712312698E+03  0.96401526875E+02 0.  0.
         13    1    3    3    0    0 -0.89960765501E+02 -0.34072303634E+02  0.20700989085E+03  0.22826948135E+03  0.00000000000E+00 0. -1.
        -13    1    3    3    0    0 -0.11864415936E+03 -0.19414713322E+03  0.45515105931E+03  0.50885364564E+03  0.00000000000E+00 0.  1.
         22    1    1    2    0    0  0.20860492486E+03  0.22821943685E+03 -0.86947484758E+03  0.92281451907E+03  0.00000000000E+00 0. -1.
<mgrwt>
<rscale>  0 0.16469408E+04</rscale>
<asrwt>0</asrwt>
<pdfrwt beam="1">  1        1 0.14363473E+00 0.16469408E+04</pdfrwt>
<pdfrwt beam="2">  1       -1 0.11174029E+00 0.16469408E+04</pdfrwt>
<totfact> 0.12009905E+01</totfact>
</mgrwt>
</event>
<event>
 6    1  0.1772277E-005  0.3163925E+04  0.7818608E-02  0.8198410E-01
          1   -1    0    0  501    0  0.00000000000E+00  0.00000000000E+00  0.12202038132E+04  0.12202038132E+04  0.00000000000E+00 0. -1.
         -1   -1    0    0    0  501 -0.00000000000E+00 -0.00000000000E+00 -0.20509726181E+04  0.20509726181E+04  0.00000000000E+00 0.  1.
         23    2    1    2    0    0 -0.11031909848E+04  0.16608920896E+03  0.74214594285E+03  0.13427893390E+04  0.87673452631E+02 0.  0.
         11    1    3    3    0    0 -0.48304997156E+03  0.96553152283E+02  0.28366621081E+03  0.56844199827E+03  0.00000000000E+00 0. -1.
        -11    1    3    3    0    0 -0.62014101319E+03  0.69536056680E+02  0.45847973204E+03  0.77434734074E+03  0.00000000000E+00 0.  1.
         22    1    1    2    0    0  0.11031909848E+04 -0.16608920896E+03 -0.15729147477E+04  0.19283870923E+04  0.00000000000E+00 0.  1.
<mgrwt>
<rscale>  0 0.31639245E+04</rscale>
<asrwt>0</asrwt>
<pdfrwt beam="1">  1        1 0.18772367E+00 0.31639245E+04</pdfrwt>
<pdfrwt beam="2">  1       -1 0.31553425E+00 0.31639245E+04</pdfrwt>
<totfact> 0.22682234E-01</totfact>
</mgrwt>
</event>
<event>
 6    1  0.1568961E-005  0.1107915E+04  0.7818608E-02  0.9197512E-01
          2   -1    0    0  501    0  0.00000000000E+00  0.00000000000E+00  0.12640561089E+04  0.12640561089E+04  0.00000000000E+00 0. -1.
         -2   -1    0    0    0  501 -0.00000000000E+00 -0.00000000000E+00 -0.24276504453E+03  0.24276504453E+03  0.00000000000E+00 0.  1.
         23    2    1    2    0    0  0.20153519671E+03 -0.20212420718E+03  0.11535912432E+04  0.11922198693E+04  0.95628603401E+02 0.  0.
         11    1    3    3    0    0  0.65858062573E+01 -0.58463292040E+02  0.21929337941E+03  0.22704826714E+03  0.00000000000E+00 0.  1.
        -11    1    3    3    0    0  0.19494939045E+03 -0.14366091514E+03  0.93429786380E+03  0.96517160219E+03  0.00000000000E+00 0. -1.
         22    1    1    2    0    0 -0.20153519671E+03  0.20212420718E+03 -0.13230017883E+03  0.31460128410E+03  0.00000000000E+00 0.  1.
<mgrwt>
<rscale>  0 0.11079145E+04</rscale>
<asrwt>0</asrwt>
<pdfrwt beam="1">  1        2 0.19447017E+00 0.11079145E+04</pdfrwt>
<pdfrwt beam="2">  1       -2 0.37348469E-01 0.11079145E+04</pdfrwt>
<totfact> 0.11631283E+02</totfact>
</mgrwt>
</event>
<event>
 6    1  0.1568961E-005  0.3111788E+04  0.7818608E-02  0.8212510E-01
          1   -1    0    0  501    0  0.00000000000E+00  0.00000000000E+00  0.11929447099E+04  0.11929447099E+04  0.00000000000E+00 0. -1.
         -1   -1    0    0    0  501 -0.00000000000E+00 -0.00000000000E+00 -0.20292697774E+04  0.20292697774E+04  0.00000000000E+00 0.  1.
         23    2    1    2    0    0  0.10514202816E+04  0.67754471430E+02 -0.16021218452E+04  0.19197092160E+04  0.91726713447E+02 0.  0.
         13    1    3    3    0    0  0.50743299096E+03 -0.72232933814E+01 -0.72843545158E+03  0.88778298215E+03  0.00000000000E+00 0.  1.
        -13    1    3    3    0    0  0.54398729068E+03  0.74977764812E+02 -0.87368639363E+03  0.10319262338E+04  0.00000000000E+00 0. -1.
         22    1    1    2    0    0 -0.10514202816E+04 -0.67754471430E+02  0.76579677772E+03  0.13025052713E+04  0.00000000000E+00 0. -1.
<mgrwt>
<rscale>  0 0.31117883E+04</rscale>
<asrwt>0</asrwt>
<pdfrwt beam="1">  1        1 0.18352996E+00 0.31117883E+04</pdfrwt>
<pdfrwt beam="2">  1       -1 0.31219535E+00 0.31117883E+04</pdfrwt>
<totfact> 0.25078519E-01</totfact>
</mgrwt>
</event>
<event>
 6    1  0.1568961E-005  0.1395174E+04  0.7818608E-02  0.8957319E-01
          1   -1    0    0  501    0  0.00000000000E+00  0.00000000000E+00  0.74745962687E+03  0.74745962687E+03  0.00000000000E+00 0. -1.
         -1   -1    0    0    0  501 -0.00000000000E+00 -0.00000000000E+00 -0.65104186501E+03  0.65104186501E+03  0.00000000000E+00 0.  1.
         23    2    1    2    0    0 -0.37275437949E+03 -0.54861364500E+03  0.25544164891E+03  0.71643745122E+03  0.90052354768E+02 0.  0.
         13    1    3    3    0    0 -0.28586573048E+03 -0.42410322141E+03  0.15512279696E+03  0.53445845527E+03  0.00000000000E+00 0.  1.
        -13    1    3    3    0    0 -0.86888649012E+02 -0.12451042359E+03  0.10031885195E+03  0.18197899595E+03  0.00000000000E+00 0. -1.
         22    1    1    2    0    0  0.37275437949E+03  0.54861364500E+03 -0.15902388705E+03  0.68206404066E+03  0.00000000000E+00 0. -1.
<mgrwt>
<rscale>  0 0.13951738E+04</rscale>
<asrwt>0</asrwt>
<pdfrwt beam="1">  1        1 0.11499379E+00 0.13951738E+04</pdfrwt>
<pdfrwt beam="2">  1       -1 0.10016029E+00 0.13951738E+04</pdfrwt>
<totfact> 0.22817847E+01</totfact>
</mgrwt>
</event>
<event>
 6    1  0.1568961E-005  0.1043247E+04  0.7818608E-02  0.9262344E-01
         -2   -1    0    0    0  501 -0.00000000000E+00  0.00000000000E+00  0.47268856042E+03  0.47268856042E+03  0.00000000000E+00 0.  1.
          2   -1    0    0  501    0  0.00000000000E+00 -0.00000000000E+00 -0.57562476818E+03  0.57562476818E+03  0.00000000000E+00 0. -1.
         23    2    1    2    0    0  0.21119121546E+03 -0.34667778910E+03  0.27093127574E+03  0.49644005133E+03  0.90894166188E+02 0.  0.
         11    1    3    3    0    0  0.61511766637E+02 -0.18769687244E+03  0.13457399080E+03  0.23900621824E+03  0.00000000000E+00 0.  1.
        -11    1    3    3    0    0  0.14967944882E+03 -0.15898091666E+03  0.13635728495E+03  0.25743383309E+03  0.00000000000E+00 0. -1.
         22    1    1    2    0    0 -0.21119121546E+03  0.34667778910E+03 -0.37386748351E+03  0.55187327727E+03  0.00000000000E+00 0. -1.
<mgrwt>
<rscale>  0 0.10432473E+04</rscale>
<asrwt>0</asrwt>
<pdfrwt beam="1">  1        2 0.88557657E-01 0.10432473E+04</pdfrwt>
<pdfrwt beam="2">  1       -2 0.72721317E-01 0.10432473E+04</pdfrwt>
<totfact> 0.88853656E+01</totfact>
</mgrwt>
</event>
<event>
 6    1  0.1568961E-005  0.1710436E+04  0.7818608E-02  0.8755435E-01
         -2   -1    0    0    0  501 -0.00000000000E+00  0.00000000000E+00  0.21885751670E+03  0.21885751670E+03  0.00000000000E+00 0.  1.
          2   -1    0    0  501    0  0.00000000000E+00 -0.00000000000E+00 -0.33418897678E+04  0.33418897678E+04  0.00000000000E+00 0. -1.
         23    2    1    2    0    0  0.41108193592E+03  0.63872728581E+03 -0.76331154727E+03  0.10817872800E+04  0.10323903012E+03 0.  0.
         11    1    3    3    0    0  0.12927066867E+03  0.13119461756E+03 -0.15258495548E+03  0.23917588109E+03  0.00000000000E+00 0.  1.
        -11    1    3    3    0    0  0.28181126725E+03  0.50753266825E+03 -0.61072659180E+03  0.84261139894E+03  0.00000000000E+00 0. -1.
         22    1    1    2    0    0 -0.41108193592E+03 -0.63872728581E+03 -0.23597207038E+04  0.24789600045E+04  0.00000000000E+00 0.  1.
<mgrwt>
<rscale>  0 0.17104358E+04</rscale>
<asrwt>0</asrwt>
<pdfrwt beam="1">  1        2 0.51413685E+00 0.17104358E+04</pdfrwt>
<pdfrwt beam="2">  1       -2 0.33670389E-01 0.17104358E+04</pdfrwt>
<totfact> 0.82537038E+00</totfact>
</mgrwt>
</event>
<event>
 6    1  0.1568961E-005  0.1136908E+04  0.7818608E-02  0.9169948E-01
          2   -1    0    0  501    0  0.00000000000E+00  0.00000000000E+00  0.15209565846E+04  0.15209565846E+04  0.00000000000E+00 0. -1.
         -2   -1    0    0    0  501 -0.00000000000E+00 -0.00000000000E+00 -0.21245821808E+03  0.21245821808E+03  0.00000000000E+00 0.  1.
         23    2    1    2    0    0  0.14289998393E+03 -0.22164636214E+03  0.14192615342E+04  0.14473798493E+04  0.10515517264E+03 0.  0.
         13    1    3    3    0    0  0.63810714920E+02 -0.11450866146E+03  0.96936918421E+03  0.97819254555E+03  0.00000000000E+00 0. -1.
        -13    1    3    3    0    0  0.79089269010E+02 -0.10713770068E+03  0.44989235004E+03  0.46918730375E+03  0.00000000000E+00 0.  1.
         22    1    1    2    0    0 -0.14289998393E+03  0.22164636214E+03 -0.11076316769E+03  0.28603495341E+03  0.00000000000E+00 0.  1.
<mgrwt>
<rscale>  0 0.11369076E+04</rscale>
<asrwt>0</asrwt>
<pdfrwt beam="1">  1        2 0.23399331E+00 0.11369076E+04</pdfrwt>
<pdfrwt beam="2">  1       -2 0.32685881E-01 0.11369076E+04</pdfrwt>
<totfact> 0.10672514E+02</totfact>
</mgrwt>
</event>
<event>
 6    1  0.1568961E-005  0.3186163E+04  0.7818608E-02  0.8192481E-01
          2   -1    0    0  501    0  0.00000000000E+00  0.00000000000E+00  0.12930796461E+04  0.12930796461E+04  0.00000000000E+00 0.  1.
         -2   -1    0    0    0  501 -0.00000000000E+00 -0.00000000000E+00 -0.19626858642E+04  0.19626858642E+04  0.00000000000E+00 0. -1.
         23    2    1    2    0    0 -0.14710837920E+04  0.59655655297E+03 -0.21439586570E+03  0.16043468146E+04  0.89419629822E+02 0.  0.
         13    1    3    3    0    0 -0.79661386913E+03  0.30258150877E+03 -0.74313246709E+02  0.85537809452E+03  0.00000000000E+00 0.  1.
        -13    1    3    3    0    0 -0.67446992287E+03  0.29397504420E+03 -0.14008261899E+03  0.74896872005E+03  0.00000000000E+00 0. -1.
         22    1    1    2    0    0  0.14710837920E+04 -0.59655655297E+03 -0.45521035239E+03  0.16514186958E+04  0.00000000000E+00 0. -1.
<mgrwt>
<rscale>  0 0.31861633E+04</rscale>
<asrwt>0</asrwt>
<pdfrwt beam="1">  1        2 0.19893533E+00 0.31861633E+04</pdfrwt>
<pdfrwt beam="2">  1       -2 0.30195167E+00 0.31861633E+04</pdfrwt>
<totfact> 0.43490450E-01</totfact>
</mgrwt>
</event>
<event>
 6    1  0.1568961E-005  0.2805323E+04  0.7818608E-02  0.8301618E-01
         -1   -1    0    0    0  501 -0.00000000000E+00  0.00000000000E+00  0.59252635319E+03  0.59252635319E+03  0.00000000000E+00 0.  1.
          1   -1    0    0  501    0  0.00000000000E+00 -0.00000000000E+00 -0.33204579354E+04  0.33204579354E+04  0.00000000000E+00 0. -1.
         23    2    1    2    0    0 -0.90414682791E+03 -0.34355036997E+02  0.12677690806E+03  0.91831864459E+03  0.92601261337E+02 0.  0.
         13    1    3    3    0    0 -0.36703124588E+03 -0.49331667381E+02  0.22849253861E+02  0.37103589754E+03  0.00000000000E+00 0.  1.
        -13    1    3    3    0    0 -0.53711558202E+03  0.14976630385E+02  0.10392765420E+03  0.54728274705E+03  0.00000000000E+00 0. -1.
         22    1    1    2    0    0  0.90414682791E+03  0.34355036997E+02 -0.28547084903E+04  0.29946656440E+04  0.00000000000E+00 0. -1.
<mgrwt>
<rscale>  0 0.28053227E+04</rscale>
<asrwt>0</asrwt>
<pdfrwt beam="1">  1        1 0.51083969E+00 0.28053227E+04</pdfrwt>
<pdfrwt beam="2">  1       -1 0.91157900E-01 0.28053227E+04</pdfrwt>
<totfact> 0.34988126E-01</totfact>
</mgrwt>
</event>
<event>
 6    1  0.1568961E-005  0.3269337E+04  0.7818608E-02  0.8170742E-01
         -1   -1    0    0    0  501 -0.00000000000E+00  0.00000000000E+00  0.12316872504E+04  0.12316872504E+04  0.00000000000E+00 0.  1.
          1   -1    0    0  501    0  0.00000000000E+00 -0.00000000000E+00 -0.21694968619E+04  0.21694968619E+04  0.00000000000E+00 0. -1.
         23    2    1    2    0    0 -0.96467701156E+03 -0.30069185201E+03 -0.18045001401E+04  0.20699554322E+04  0.86472015823E+02 0.  0.
         11    1    3    3    0    0 -0.83322161701E+03 -0.22905310825E+03 -0.15195774697E+04  0.17480959001E+04  0.00000000000E+00 0.  1.
        -11    1    3    3    0    0 -0.13145539455E+03 -0.71638743757E+02 -0.28492267036E+03  0.32185953217E+03  0.00000000000E+00 0. -1.
         22    1    1    2    0    0  0.96467701156E+03  0.30069185201E+03  0.86669052856E+03  0.13312286801E+04  0.00000000000E+00 0.  1.
<mgrwt>
<rscale>  0 0.32693373E+04</rscale>
<asrwt>0</asrwt>
<pdfrwt beam="1">  1        1 0.33376875E+00 0.32693373E+04</pdfrwt>
<pdfrwt beam="2">  1       -1 0.18949035E+00 0.32693373E+04</pdfrwt>
<totfact> 0.33866454E-01</totfact>
</mgrwt>
</event>
<event>
 6    1  0.1568961E-005  0.1994024E+04  0.7818608E-02  0.8609420E-01
         -2   -1    0    0    0  501 -0.00000000000E+00  0.00000000000E+00  0.50200356578E+03  0.50200356578E+03  0.00000000000E+00 0. -1.
          2   -1    0    0  501    0  0.00000000000E+00 -0.00000000000E+00 -0.19801313469E+04  0.19801313469E+04  0.00000000000E+00 0.  1.
         23    2    1    2    0    0 -0.14302233174E+03 -0.45485592683E+03 -0.18274897200E+04  0.18910316510E+04  0.94513104196E+02 0.  0.
         13    1    3    3    0    0 -0.12437194781E+03 -0.24897512652E+03 -0.98647767040E+03  0.10249854581E+04  0.00000000000E+00 0. -1.
        -13    1    3    3    0    0 -0.18650383928E+02 -0.20588080031E+03 -0.84101204961E+03  0.86604619296E+03  0.00000000000E+00 0.  1.
         22    1    1    2    0    0  0.14302233174E+03  0.45485592683E+03  0.34936193892E+03  0.59110326164E+03  0.00000000000E+00 0. -1.
<mgrwt>
<rscale>  0 0.19940241E+04</rscale>
<asrwt>0</asrwt>
<pdfrwt beam="1">  1        2 0.30463558E+00 0.19940241E+04</pdfrwt>
<pdfrwt beam="2">  1       -2 0.77231320E-01 0.19940241E+04</pdfrwt>
<totfact> 0.95286395E+00</totfact>
</mgrwt>
</event>
<event>
 6    1  0.3542962E-005  0.3990813E+04  0.7818608E-02  0.8006402E-01
         -1   -1    0    0    0  501 -0.00000000000E+00  0.00000000000E+00  0.21837645841E+04  0.21837645841E+04  0.00000000000E+00 0.  1.
          1   -1    0    0  501    0  0.00000000000E+00 -0.00000000000E+00 -0.18232949225E+04  0.18232949225E+04  0.00000000000E+00 0. -1.
         23    2    1    2    0    0 -0.13804289806E+04 -0.10559402947E+04  0.11622737064E+04  0.20930365698E+04  0.96580728953E+02 0.  0.
         13    1    3    3    0    0 -0.64237510124E+03 -0.43381572141E+03  0.53525176984E+03  0.94198530135E+03  0.00000000000E+00 0.  1.
        -13    1    3    3    0    0 -0.73805387939E+03 -0.62212457332E+03  0.62702193660E+03  0.11510512684E+04  0.00000000000E+00 0. -1.
         22    1    1    2    0    0  0.13804289806E+04  0.10559402947E+04 -0.80180404485E+03  0.19140229369E+04  0.00000000000E+00 0. -1.
<mgrwt>
<rscale>  0 0.39908129E+04</rscale>
<asrwt>0</asrwt>
<pdfrwt beam="1">  1        1 0.28050691E+00 0.39908129E+04</pdfrwt>
<pdfrwt beam="2">  1       -1 0.33596378E+00 0.39908129E+04</pdfrwt>
<totfact> 0.59167155E-02</totfact>
</mgrwt>
</event>
<event>
 6    1  0.1568961E-005  0.1793187E+04  0.7818608E-02  0.8709931E-01
          1   -1    0    0  501    0  0.00000000000E+00  0.00000000000E+00  0.26033816541E+04  0.26033816541E+04  0.00000000000E+00 0. -1.
         -1   -1    0    0    0  501 -0.00000000000E+00 -0.00000000000E+00 -0.30878307916E+03  0.30878307916E+03  0.00000000000E+00 0.  1.
         23    2    1    2    0    0 -0.26431208755E+03  0.42600054780E+03  0.23528686716E+04  0.24074541721E+04  0.92234802444E+02 0.  0.
         13    1    3    3    0    0 -0.89761356663E+02  0.18291621847E+03  0.11504803547E+04  0.11683837087E+04  0.00000000000E+00 0. -1.
        -13    1    3    3    0    0 -0.17455073088E+03  0.24308432933E+03  0.12023883169E+04  0.12390704634E+04  0.00000000000E+00 0.  1.
         22    1    1    2    0    0  0.26431208755E+03 -0.42600054780E+03 -0.58270096651E+02  0.50471056113E+03  0.00000000000E+00 0.  1.
<mgrwt>
<rscale>  0 0.17931873E+04</rscale>
<asrwt>0</asrwt>
<pdfrwt beam="1">  1        1 0.40052024E+00 0.17931873E+04</pdfrwt>
<pdfrwt beam="2">  1       -1 0.47505091E-01 0.17931873E+04</pdfrwt>
<totfact> 0.47996286E+00</totfact>
</mgrwt>
</event>
<event>
 6    1  0.1568961E-005  0.2729333E+04  0.7818608E-02  0.8325550E-01
          2   -1    0    0  501    0  0.00000000000E+00  0.00000000000E+00  0.96035812070E+03  0.96035812070E+03  0.00000000000E+00 0. -1.
         -2   -1    0    0    0  501 -0.00000000000E+00 -0.00000000000E+00 -0.19391874740E+04  0.19391874740E+04  0.00000000000E+00 0.  1.
         23    2    1    2    0    0 -0.15359739347E+02 -0.13413378126E+04 -0.23260521847E+03  0.13645297940E+04  0.91724161361E+02 0.  0.
         13    1    3    3    0    0 -0.48430858411E+02 -0.59068741338E+03 -0.83921537194E+02  0.59858165088E+03  0.00000000000E+00 0. -1.
        -13    1    3    3    0    0  0.33071119064E+02 -0.75065039925E+03 -0.14868368128E+03  0.76594814308E+03  0.00000000000E+00 0.  1.
         22    1    1    2    0    0  0.15359739347E+02  0.13413378126E+04 -0.74622413487E+03  0.15350158008E+04  0.00000000000E+00 0.  1.
<mgrwt>
<rscale>  0 0.27293328E+04</rscale>
<asrwt>0</asrwt>
<pdfrwt beam="1">  1        2 0.14774741E+00 0.27293328E+04</pdfrwt>
<pdfrwt beam="2">  1       -2 0.29833653E+00 0.27293328E+04</pdfrwt>
<totfact> 0.76112051E-01</totfact>
</mgrwt>
</event>
<event>
 6    1  0.1568961E-005  0.1798556E+04  0.7818608E-02  0.8707068E-01
         -1   -1    0    0    0  501 -0.00000000000E+00  0.00000000000E+00  0.37896171084E+03  0.37896171084E+03  0.00000000000E+00 0.  1.
          1   -1    0    0  501    0  0.00000000000E+00 -0.00000000000E+00 -0.21339918052E+04  0.21339918052E+04  0.00000000000E+00 0. -1.
         23    2    1    2    0    0  0.10749686497E+03 -0.77556219903E+03 -0.14902706624E+04  0.16864247159E+04  0.10034627453E+03 0.  0.
         13    1    3    3    0    0  0.90577831875E+02 -0.46929944899E+03 -0.99540558802E+03  0.11042094915E+04  0.00000000000E+00 0. -1.
        -13    1    3    3    0    0  0.16919033097E+02 -0.30626275004E+03 -0.49486507436E+03  0.58221522443E+03  0.00000000000E+00 0.  1.
         22    1    1    2    0    0 -0.10749686497E+03  0.77556219903E+03 -0.26475943193E+03  0.82652880006E+03  0.00000000000E+00 0.  1.
<mgrwt>
<rscale>  0 0.17985563E+04</rscale>
<asrwt>0</asrwt>
<pdfrwt beam="1">  1        1 0.32830643E+00 0.17985563E+04</pdfrwt>
<pdfrwt beam="2">  1       -1 0.58301802E-01 0.17985563E+04</pdfrwt>
<totfact> 0.67994990E+00</totfact>
</mgrwt>
</event>
<event>
 6    1  0.1568961E-005  0.3957907E+04  0.7818608E-02  0.8013092E-01
         -2   -1    0    0    0  501 -0.00000000000E+00  0.00000000000E+00  0.11144193900E+04  0.11144193900E+04  0.00000000000E+00 0.  1.
          2   -1    0    0  501    0  0.00000000000E+00 -0.00000000000E+00 -0.35141681454E+04  0.35141681454E+04  0.00000000000E+00 0. -1.
         23    2    1    2    0    0  0.15504776818E+04  0.11439614766E+04 -0.17228271439E+04  0.25863212036E+04  0.91077431426E+02 0.  0.
         11    1    3    3    0    0  0.26840212895E+03  0.17014587773E+03 -0.31861045497E+03  0.45000216060E+03  0.00000000000E+00 0. -1.
        -11    1    3    3    0    0  0.12820755529E+04  0.97381559884E+03 -0.14042166889E+04  0.21363190430E+04  0.00000000000E+00 0.  1.
         22    1    1    2    0    0 -0.15504776818E+04 -0.11439614766E+04 -0.67692161147E+03  0.20422663318E+04  0.00000000000E+00 0.  1.
<mgrwt>
<rscale>  0 0.39579071E+04</rscale>
<asrwt>0</asrwt>
<pdfrwt beam="1">  1        2 0.54064125E+00 0.39579071E+04</pdfrwt>
<pdfrwt beam="2">  1       -2 0.17144914E+00 0.39579071E+04</pdfrwt>
<totfact> 0.13066821E-01</totfact>
</mgrwt>
</event>
<event>
 6    1  0.1568961E-005  0.3598870E+04  0.7818608E-02  0.8090751E-01
         -2   -1    0    0    0  501 -0.00000000000E+00  0.00000000000E+00  0.12874478895E+04  0.12874478895E+04  0.00000000000E+00 0.  1.
          2   -1    0    0  501    0  0.00000000000E+00 -0.00000000000E+00 -0.25150266962E+04  0.25150266962E+04  0.00000000000E+00 0. -1.
         23    2    1    2    0    0  0.14517234174E+04  0.10528843770E+04 -0.75173744625E+03  0.19470793738E+04  0.99712125728E+02 0.  0.
         13    1    3    3    0    0  0.84206529435E+03  0.64599859039E+03 -0.40132709488E+03  0.11346592333E+04  0.00000000000E+00 0. -1.
        -13    1    3    3    0    0  0.60965812303E+03  0.40688578661E+03 -0.35041035138E+03  0.81242014049E+03  0.00000000000E+00 0.  1.
         22    1    1    2    0    0 -0.14517234174E+04 -0.10528843770E+04 -0.47584136038E+03  0.18553952118E+04  0.00000000000E+00 0. -1.
<mgrwt>
<rscale>  0 0.35988697E+04</rscale>
<asrwt>0</asrwt>
<pdfrwt beam="1">  1        2 0.38692718E+00 0.35988697E+04</pdfrwt>
<pdfrwt beam="2">  1       -2 0.19806891E+00 0.35988697E+04</pdfrwt>
<totfact> 0.38083445E-01</totfact>
</mgrwt>
</event>
<event>
 6    1  0.1568961E-005  0.2948054E+04  0.7818608E-02  0.8258722E-01
         -2   -1    0    0    0  501 -0.00000000000E+00  0.00000000000E+00  0.12289034240E+04  0.12289034240E+04  0.00000000000E+00 0.  1.
          2   -1    0    0  501    0  0.00000000000E+00 -0.00000000000E+00 -0.17680436387E+04  0.17680436387E+04  0.00000000000E+00 0. -1.
         23    2    1    2    0    0  0.66471196026E+03  0.12924980333E+04 -0.51206053816E+03  0.15432873828E+04  0.84479553366E+02 0.  0.
         13    1    3    3    0    0  0.37977223652E+03  0.80805725730E+03 -0.34177991910E+03  0.95603190104E+03  0.00000000000E+00 0. -1.
        -13    1    3    3    0    0  0.28493972373E+03  0.48444077601E+03 -0.17028061905E+03  0.58725548175E+03  0.00000000000E+00 0.  1.
         22    1    1    2    0    0 -0.66471196026E+03 -0.12924980333E+04 -0.27079676523E+02  0.14536596799E+04  0.00000000000E+00 0.  1.
<mgrwt>
<rscale>  0 0.29480535E+04</rscale>
<asrwt>0</asrwt>
<pdfrwt beam="1">  1        2 0.27200671E+00 0.29480535E+04</pdfrwt>
<pdfrwt beam="2">  1       -2 0.18906207E+00 0.29480535E+04</pdfrwt>
<totfact> 0.12154198E+00</totfact>
</mgrwt>
</event>
<event>
 6    1  0.1568961E-005  0.1379895E+04  0.7818608E-02  0.8968501E-01
         -1   -1    0    0    0  501 -0.00000000000E+00  0.00000000000E+00  0.51059774756E+03  0.51059774756E+03  0.00000000000E+00 0.  1.
          1   -1    0    0  501    0  0.00000000000E+00 -0.00000000000E+00 -0.93229493335E+03  0.93229493335E+03  0.00000000000E+00 0. -1.
         23    2    1    2    0    0 -0.62329277918E+03  0.15422953156E+03  0.43547431170E+02  0.64996570407E+03  0.90985717075E+02 0.  0.
         11    1    3    3    0    0 -0.14079032842E+03  0.33406200666E+01  0.31329762151E+02  0.14427276360E+03  0.00000000000E+00 0. -1.
        -11    1    3    3    0    0 -0.48250245076E+03  0.15088891149E+03  0.12217669019E+02  0.50569294047E+03  0.00000000000E+00 0.  1.
         22    1    1    2    0    0  0.62329277918E+03 -0.15422953156E+03 -0.46524461696E+03  0.79292697684E+03  0.00000000000E+00 0.  1.
<mgrwt>
<rscale>  0 0.13798952E+04</rscale>
<asrwt>0</asrwt>
<pdfrwt beam="1">  1        1 0.14342999E+00 0.13798952E+04</pdfrwt>
<pdfrwt beam="2">  1       -1 0.78553500E-01 0.13798952E+04</pdfrwt>
<totfact> 0.27131524E+01</totfact>
</mgrwt>
</event>
<event>
 6    1  0.1568961E-005  0.1289280E+04  0.7818608E-02  0.9038110E-01
          1   -1    0    0  501    0  0.00000000000E+00  0.00000000000E+00  0.47637711274E+03  0.47637711274E+03  0.00000000000E+00 0. -1.
         -1   -1    0    0    0  501 -0.00000000000E+00 -0.00000000000E+00 -0.87233589807E+03  0.87233589807E+03  0.00000000000E+00 0.  1.
         23    2    1    2    0    0 -0.45863023725E+03  0.44591365186E+03 -0.14934405184E+03  0.66314791090E+03  0.90999046621E+02 0.  0.
         13    1    3    3    0    0 -0.15704471313E+03  0.19674177390E+03 -0.90684387796E+02  0.26757059949E+03  0.00000000000E+00 0.  1.
        -13    1    3    3    0    0 -0.30158552412E+03  0.24917187796E+03 -0.58659664040E+02  0.39557731142E+03  0.00000000000E+00 0. -1.
         22    1    1    2    0    0  0.45863023725E+03 -0.44591365186E+03 -0.24661473349E+03  0.68556509991E+03  0.00000000000E+00 0.  1.
<mgrwt>
<rscale>  0 0.12892802E+04</rscale>
<asrwt>0</asrwt>
<pdfrwt beam="1">  1        1 0.73288787E-01 0.12892802E+04</pdfrwt>
<pdfrwt beam="2">  1       -1 0.13420552E+00 0.12892802E+04</pdfrwt>
<totfact> 0.21791951E+01</totfact>
</mgrwt>
</event>
<event>
 6    1  0.1568961E-005  0.2442698E+04  0.7818608E-02  0.8423689E-01
          2   -1    0    0  501    0  0.00000000000E+00  0.00000000000E+00  0.18397695822E+04  0.18397695822E+04  0.00000000000E+00 0.  1.
         -2   -1    0    0    0  501 -0.00000000000E+00 -0.00000000000E+00 -0.81080429563E+03  0.81080429563E+03  0.00000000000E+00 0. -1.
         23    2    1    2    0    0  0.93404161010E+03  0.62583579155E+03  0.22861735604E+01  0.11280187332E+04  0.91196866511E+02 0.  0.
         13    1    3    3    0    0  0.53497356897E+03  0.31362404286E+03 -0.24653882019E+02  0.62061628536E+03  0.00000000000E+00 0.  1.
        -13    1    3    3    0    0  0.39906804113E+03  0.31221174869E+03  0.26940055579E+02  0.50740244783E+03  0.00000000000E+00 0. -1.
         22    1    1    2    0    0 -0.93404161010E+03 -0.62583579155E+03  0.10266791130E+04  0.15225551446E+04  0.00000000000E+00 0.  1.
<mgrwt>
<rscale>  0 0.24426978E+04</rscale>
<asrwt>0</asrwt>
<pdfrwt beam="1">  1        2 0.28304147E+00 0.24426978E+04</pdfrwt>
<pdfrwt beam="2">  1       -2 0.12473912E+00 0.24426978E+04</pdfrwt>
<totfact> 0.35424869E+00</totfact>
</mgrwt>
</event>
<event>
 6    1  0.1568961E-005  0.1623212E+04  0.7818608E-02  0.8806414E-01
         -2   -1    0    0    0  501 -0.00000000000E+00  0.00000000000E+00  0.27889756081E+03  0.27889756081E+03  0.00000000000E+00 0.  1.
          2   -1    0    0  501    0  0.00000000000E+00 -0.00000000000E+00 -0.23618142954E+04  0.23618142954E+04  0.00000000000E+00 0. -1.
         23    2    1    2    0    0 -0.38052724482E+03  0.18928534961E+03  0.74069567861E+02  0.44225334249E+03  0.97323123816E+02 0.  0.
         13    1    3    3    0    0 -0.32773714423E+03  0.12800113508E+03  0.38686821579E+02  0.35396694260E+03  0.00000000000E+00 0.  1.
        -13    1    3    3    0    0 -0.52790100597E+02  0.61284214526E+02  0.35382746282E+02  0.88286399890E+02  0.00000000000E+00 0. -1.
         22    1    1    2    0    0  0.38052724482E+03 -0.18928534961E+03 -0.21569863025E+04  0.21984585137E+04  0.00000000000E+00 0. -1.
<mgrwt>
<rscale>  0 0.16232119E+04</rscale>
<asrwt>0</asrwt>
<pdfrwt beam="1">  1        2 0.36335604E+00 0.16232119E+04</pdfrwt>
<pdfrwt beam="2">  1       -2 0.42907318E-01 0.16232119E+04</pdfrwt>
<totfact> 0.20635922E+01</totfact>
</mgrwt>
</event>
<event>
 6    1  0.1568961E-005  0.2044842E+04  0.7818608E-02  0.8585938E-01
         -2   -1    0    0    0  501 -0.00000000000E+00  0.00000000000E+00  0.14943920867E+04  0.14943920867E+04  0.00000000000E+00 0.  1.
          2   -1    0    0  501    0  0.00000000000E+00 -0.00000000000E+00 -0.69951173268E+03  0.69951173268E+03  0.00000000000E+00 0. -1.
         23    2    1    2    0    0 -0.72649464536E+03 -0.71103980951E+03  0.30354068212E+03  0.10648392713E+04  0.91507637048E+02 0.  0.
         11    1    3    3    0    0 -0.46712660649E+03 -0.50573642067E+03  0.17867012931E+03  0.71126620108E+03  0.00000000000E+00 0. -1.
        -11    1    3    3    0    0 -0.25936803887E+03 -0.20530338884E+03  0.12487055281E+03  0.35357307026E+03  0.00000000000E+00 0.  1.
         22    1    1    2    0    0  0.72649464536E+03  0.71103980951E+03  0.49133967190E+03  0.11290645480E+04  0.00000000000E+00 0.  1.
<mgrwt>
<rscale>  0 0.20448421E+04</rscale>
<asrwt>0</asrwt>
<pdfrwt beam="1">  1        2 0.10761719E+00 0.20448421E+04</pdfrwt>
<pdfrwt beam="2">  1       -2 0.22990647E+00 0.20448421E+04</pdfrwt>
<totfact> 0.32486675E+00</totfact>
</mgrwt>
</event>
<event>
 6    1  0.1568961E-005  0.1227603E+04  0.7818608E-02  0.9089033E-01
          1   -1    0    0  501    0  0.00000000000E+00  0.00000000000E+00  0.22849607678E+04  0.22849607678E+04  0.00000000000E+00 0. -1.
         -1   -1    0    0    0  501 -0.00000000000E+00 -0.00000000000E+00 -0.16488354623E+03  0.16488354623E+03  0.00000000000E+00 0.  1.
         23    2    1    2    0    0  0.43228140281E+03  0.42415371029E+03  0.12186321589E+04  0.13638531620E+04  0.90870940193E+02 0.  0.
         11    1    3    3    0    0  0.23730168957E+02  0.12526577989E+01  0.60413448356E+02  0.64918986533E+02  0.00000000000E+00 0. -1.
        -11    1    3    3    0    0  0.40855123385E+03  0.42290105249E+03  0.11582187105E+04  0.12989341755E+04  0.00000000000E+00 0.  1.
         22    1    1    2    0    0 -0.43228140281E+03 -0.42415371029E+03  0.90144506269E+03  0.10859911520E+04  0.00000000000E+00 0.  1.
<mgrwt>
<rscale>  0 0.12276032E+04</rscale>
<asrwt>0</asrwt>
<pdfrwt beam="1">  1        1 0.35153240E+00 0.12276032E+04</pdfrwt>
<pdfrwt beam="2">  1       -1 0.25366701E-01 0.12276032E+04</pdfrwt>
<totfact> 0.25813986E+01</totfact>
</mgrwt>
</event>
<event>
 6    1  0.1568961E-005  0.1905583E+04  0.7818608E-02  0.8652082E-01
         -1   -1    0    0    0  501 -0.00000000000E+00  0.00000000000E+00  0.49220660218E+03  0.49220660218E+03  0.00000000000E+00 0.  1.
          1   -1    0    0  501    0  0.00000000000E+00 -0.00000000000E+00 -0.18443715144E+04  0.18443715144E+04  0.00000000000E+00 0. -1.
         23    2    1    2    0    0 -0.51917797039E+03 -0.79195040187E+03 -0.57337039133E+03  0.11105062958E+04  0.87973992516E+02 0.  0.
         13    1    3    3    0    0 -0.42728130534E+03 -0.65836186214E+03 -0.43501557814E+03  0.89735623286E+03  0.00000000000E+00 0. -1.
        -13    1    3    3    0    0 -0.91896665046E+02 -0.13358853973E+03 -0.13835481319E+03  0.21315006293E+03  0.00000000000E+00 0.  1.
         22    1    1    2    0    0  0.51917797039E+03  0.79195040187E+03 -0.77879452086E+03  0.12260718208E+04  0.00000000000E+00 0.  1.
<mgrwt>
<rscale>  0 0.19055832E+04</rscale>
<asrwt>0</asrwt>
<pdfrwt beam="1">  1        1 0.28374946E+00 0.19055832E+04</pdfrwt>
<pdfrwt beam="2">  1       -1 0.75724093E-01 0.19055832E+04</pdfrwt>
<totfact> 0.62274989E+00</totfact>
</mgrwt>
</event>
<event>
 6    1  0.1568961E-005  0.1295049E+04  0.7818608E-02  0.9033501E-01
          2   -1    0    0  501    0  0.00000000000E+00  0.00000000000E+00  0.27768116857E+04  0.27768116857E+04  0.00000000000E+00 0. -1.
         -2   -1    0    0    0  501 -0.00000000000E+00 -0.00000000000E+00 -0.15099608445E+03  0.15099608445E+03  0.00000000000E+00 0.  1.
         23    2    1    2    0    0 -0.29691381381E+03  0.51929824709E+03  0.77861007452E+03  0.98615982568E+03  0.91918830444E+02 0.  0.
         13    1    3    3    0    0 -0.13108033413E+03  0.28612487314E+03  0.46655802419E+03  0.56278405003E+03  0.00000000000E+00 0. -1.
        -13    1    3    3    0    0 -0.16583347968E+03  0.23317337394E+03  0.31205205033E+03  0.42337577566E+03  0.00000000000E+00 0.  1.
         22    1    1    2    0    0  0.29691381381E+03 -0.51929824709E+03  0.18472055268E+04  0.19416479445E+04  0.00000000000E+00 0. -1.
<mgrwt>
<rscale>  0 0.12950486E+04</rscale>
<asrwt>0</asrwt>
<pdfrwt beam="1">  1        2 0.42720176E+00 0.12950486E+04</pdfrwt>
<pdfrwt beam="2">  1       -2 0.23230169E-01 0.12950486E+04</pdfrwt>
<totfact> 0.38674655E+01</totfact>
</mgrwt>
</event>
<event>
 6    1  0.1568961E-005  0.6819501E+03  0.7818608E-02  0.9748608E-01
          2   -1    0    0  501    0  0.00000000000E+00  0.00000000000E+00  0.49447456600E+03  0.49447456600E+03  0.00000000000E+00 0. -1.
         -2   -1    0    0    0  501 -0.00000000000E+00 -0.00000000000E+00 -0.23512630255E+03  0.23512630255E+03  0.00000000000E+00 0.  1.
         23    2    1    2    0    0  0.18496407356E+03 -0.21280760160E+03  0.32517662932E+03  0.44006303413E+03  0.91743391834E+02 0.  0.
         11    1    3    3    0    0  0.43275275159E+02 -0.12992272330E+02  0.21877857250E+02  0.50201486215E+02  0.00000000000E+00 0. -1.
        -11    1    3    3    0    0  0.14168879841E+03 -0.19981532927E+03  0.30329877207E+03  0.38986154792E+03  0.00000000000E+00 0.  1.
         22    1    1    2    0    0 -0.18496407356E+03  0.21280760160E+03 -0.65828365870E+02  0.28953783442E+03  0.00000000000E+00 0. -1.
<mgrwt>
<rscale>  0 0.68195008E+03</rscale>
<asrwt>0</asrwt>
<pdfrwt beam="1">  1        2 0.76073010E-01 0.68195008E+03</pdfrwt>
<pdfrwt beam="2">  1       -2 0.36173278E-01 0.68195008E+03</pdfrwt>
<totfact> 0.45187952E+02</totfact>
</mgrwt>
</event>
<event>
 6    1  0.1568961E-005  0.2060763E+04  0.7818608E-02  0.8578727E-01
         -2   -1    0    0    0  501 -0.00000000000E+00  0.00000000000E+00  0.10001181542E+04  0.10001181542E+04  0.00000000000E+00 0.  1.
          2   -1    0    0  501    0  0.00000000000E+00 -0.00000000000E+00 -0.10615611067E+04  0.10615611067E+04  0.00000000000E+00 0. -1.
         23    2    1    2    0    0 -0.43154140836E+03 -0.86754580714E+03 -0.37536611439E+03  0.10431452820E+04  0.91589546008E+02 0.  0.
         13    1    3    3    0    0 -0.18931988367E+03 -0.31547011937E+03 -0.17856838870E+03  0.40896220364E+03  0.00000000000E+00 0. -1.
        -13    1    3    3    0    0 -0.24222152469E+03 -0.55207568777E+03 -0.19679772569E+03  0.63418307837E+03  0.00000000000E+00 0.  1.
         22    1    1    2    0    0  0.43154140836E+03  0.86754580714E+03  0.31392316182E+03  0.10185339789E+04  0.00000000000E+00 0.  1.
<mgrwt>
<rscale>  0 0.20607635E+04</rscale>
<asrwt>0</asrwt>
<pdfrwt beam="1">  1        2 0.16331709E+00 0.20607635E+04</pdfrwt>
<pdfrwt beam="2">  1       -2 0.15386433E+00 0.20607635E+04</pdfrwt>
<totfact> 0.59583032E+00</totfact>
</mgrwt>
</event>
<event>
 6    1  0.1568961E-005  0.2367068E+04  0.7818608E-02  0.8451937E-01
         -2   -1    0    0    0  501 -0.00000000000E+00  0.00000000000E+00  0.12519619623E+04  0.12519619623E+04  0.00000000000E+00 0.  1.
          2   -1    0    0  501    0  0.00000000000E+00 -0.00000000000E+00 -0.11188459411E+04  0.11188459411E+04  0.00000000000E+00 0. -1.
         23    2    1    2    0    0  0.99508336998E+03 -0.39366439947E+03  0.56908775531E+03  0.12152846775E+04  0.88844817379E+02 0.  0.
         13    1    3    3    0    0  0.55784189966E+03 -0.17354990457E+03  0.30278481341E+03  0.65801656334E+03  0.00000000000E+00 0.  1.
        -13    1    3    3    0    0  0.43724147031E+03 -0.22011449490E+03  0.26630294191E+03  0.55726811419E+03  0.00000000000E+00 0. -1.
         22    1    1    2    0    0 -0.99508336998E+03  0.39366439947E+03 -0.43597173404E+03  0.11555232259E+04  0.00000000000E+00 0. -1.
<mgrwt>
<rscale>  0 0.23670679E+04</rscale>
<asrwt>0</asrwt>
<pdfrwt beam="1">  1        2 0.17213014E+00 0.23670679E+04</pdfrwt>
<pdfrwt beam="2">  1       -2 0.19260953E+00 0.23670679E+04</pdfrwt>
<totfact> 0.28472583E+00</totfact>
</mgrwt>
</event>
<event>
 6    1  0.1568961E-005  0.4541574E+04  0.7818608E-02  0.7903399E-01
         -1   -1    0    0    0  501 -0.00000000000E+00  0.00000000000E+00  0.17630838698E+04  0.17630838698E+04  0.00000000000E+00 0.  1.
          1   -1    0    0  501    0  0.00000000000E+00 -0.00000000000E+00 -0.29246903418E+04  0.29246903418E+04  0.00000000000E+00 0. -1.
         23    2    1    2    0    0  0.39328469592E+03 -0.22104672087E+04 -0.92585120088E+03  0.24302493102E+04  0.89850601358E+02 0.  0.
         11    1    3    3    0    0  0.19332497679E+02 -0.93993890594E+02 -0.59771567744E+02  0.11305413414E+03  0.00000000000E+00 0. -1.
        -11    1    3    3    0    0  0.37395219824E+03 -0.21164733181E+04 -0.86607963314E+03  0.23171951760E+04  0.00000000000E+00 0.  1.
         22    1    1    2    0    0 -0.39328469592E+03  0.22104672087E+04 -0.23575527115E+03  0.22575249015E+04  0.00000000000E+00 0.  1.
<mgrwt>
<rscale>  0 0.45415743E+04</rscale>
<asrwt>0</asrwt>
<pdfrwt beam="1">  1        1 0.44995236E+00 0.45415743E+04</pdfrwt>
<pdfrwt beam="2">  1       -1 0.27124367E+00 0.45415743E+04</pdfrwt>
<totfact> 0.25750409E-02</totfact>
</mgrwt>
</event>
<event>
 6    1  0.1568961E-005  0.1087514E+04  0.7818608E-02  0.9217447E-01
          3   -1    0    0  501    0  0.00000000000E+00  0.00000000000E+00  0.35206654035E+03  0.35206654035E+03  0.00000000000E+00 0.  1.
         -3   -1    0    0    0  501 -0.00000000000E+00 -0.00000000000E+00 -0.83981820921E+03  0.83981820921E+03  0.00000000000E+00 0. -1.
         23    2    1    2    0    0 -0.17520639595E+02  0.32990050919E+03  0.22297948139E+03  0.40812452683E+03  0.87775061948E+02 0.  0.
         13    1    3    3    0    0  0.34717426141E+02  0.94131564910E+02  0.66924958053E+02  0.12060265835E+03  0.00000000000E+00 0.  1.
        -13    1    3    3    0    0 -0.52238065736E+02  0.23576894428E+03  0.15605452334E+03  0.28752186848E+03  0.00000000000E+00 0. -1.
         22    1    1    2    0    0  0.17520639595E+02 -0.32990050919E+03 -0.71073115026E+03  0.78376022273E+03  0.00000000000E+00 0. -1.
<mgrwt>
<rscale>  0 0.10875144E+04</rscale>
<asrwt>0</asrwt>
<pdfrwt beam="1">  1        3 0.54164083E-01 0.10875144E+04</pdfrwt>
<pdfrwt beam="2">  1       -3 0.12920280E+00 0.10875144E+04</pdfrwt>
<totfact> 0.41278614E+00</totfact>
</mgrwt>
</event>
<event>
 6    1  0.1568961E-005  0.3257980E+04  0.7818608E-02  0.8173670E-01
          2   -1    0    0  501    0  0.00000000000E+00  0.00000000000E+00  0.30120501628E+04  0.30120501628E+04  0.00000000000E+00 0. -1.
         -2   -1    0    0    0  501 -0.00000000000E+00 -0.00000000000E+00 -0.88099728864E+03  0.88099728864E+03  0.00000000000E+00 0.  1.
         23    2    1    2    0    0 -0.13425922445E+04  0.85731626858E+03  0.66737090713E+03  0.17297374829E+04  0.95198280346E+02 0.  0.
         11    1    3    3    0    0 -0.10958126163E+04  0.66975318431E+03  0.56751213086E+03  0.14040814209E+04  0.00000000000E+00 0. -1.
        -11    1    3    3    0    0 -0.24677962823E+03  0.18756308427E+03  0.99858776267E+02  0.32565606195E+03  0.00000000000E+00 0.  1.
         22    1    1    2    0    0  0.13425922445E+04 -0.85731626858E+03  0.14636819670E+04  0.21633099685E+04  0.00000000000E+00 0. -1.
<mgrwt>
<rscale>  0 0.32579798E+04</rscale>
<asrwt>0</asrwt>
<pdfrwt beam="1">  1        2 0.46339233E+00 0.32579798E+04</pdfrwt>
<pdfrwt beam="2">  1       -2 0.13553805E+00 0.32579798E+04</pdfrwt>
<totfact> 0.55958713E-01</totfact>
</mgrwt>
</event>
<event>
 6    1  0.1568961E-005  0.3422857E+04  0.7818608E-02  0.8132319E-01
          2   -1    0    0  501    0  0.00000000000E+00  0.00000000000E+00  0.10837050260E+04  0.10837050260E+04  0.00000000000E+00 0. -1.
         -2   -1    0    0    0  501 -0.00000000000E+00 -0.00000000000E+00 -0.27027536586E+04  0.27027536586E+04  0.00000000000E+00 0.  1.
         23    2    1    2    0    0 -0.12240979570E+04 -0.32296073142E+03 -0.20820408343E+04  0.24384671337E+04  0.92241445648E+02 0.  0.
         11    1    3    3    0    0 -0.67187321185E+03 -0.21910026328E+03 -0.12010312448E+04  0.13935187796E+04  0.00000000000E+00 0.  1.
        -11    1    3    3    0    0 -0.55222474512E+03 -0.10386046815E+03 -0.88100958946E+03  0.10449483541E+04  0.00000000000E+00 0. -1.
         22    1    1    2    0    0  0.12240979570E+04  0.32296073142E+03  0.46299220174E+03  0.13479915509E+04  0.00000000000E+00 0. -1.
<mgrwt>
<rscale>  0 0.34228571E+04</rscale>
<asrwt>0</asrwt>
<pdfrwt beam="1">  1        2 0.16672385E+00 0.34228571E+04</pdfrwt>
<pdfrwt beam="2">  1       -2 0.41580825E+00 0.34228571E+04</pdfrwt>
<totfact> 0.10764090E-01</totfact>
</mgrwt>
</event>
<event>
 6    1  0.1568961E-005  0.2344096E+04  0.7818608E-02  0.8460735E-01
          1   -1    0    0  501    0  0.00000000000E+00  0.00000000000E+00  0.15791460815E+04  0.15791460815E+04  0.00000000000E+00 0. -1.
         -1   -1    0    0    0  501 -0.00000000000E+00 -0.00000000000E+00 -0.86989843976E+03  0.86989843976E+03  0.00000000000E+00 0.  1.
         23    2    1    2    0    0  0.44646726458E+03 -0.16425971647E+03 -0.76196018939E+03  0.90283407142E+03  0.90618748132E+02 0.  0.
         13    1    3    3    0    0  0.20781697621E+03 -0.11937007888E+03 -0.33979093032E+03  0.41580643052E+03  0.00000000000E+00 0. -1.
        -13    1    3    3    0    0  0.23865028837E+03 -0.44889637587E+02 -0.42216925907E+03  0.48702764090E+03  0.00000000000E+00 0.  1.
         22    1    1    2    0    0 -0.44646726458E+03  0.16425971647E+03  0.14712078311E+04  0.15462104498E+04  0.00000000000E+00 0. -1.
<mgrwt>
<rscale>  0 0.23440962E+04</rscale>
<asrwt>0</asrwt>
<pdfrwt beam="1">  1        1 0.24294555E+00 0.23440962E+04</pdfrwt>
<pdfrwt beam="2">  1       -1 0.13383053E+00 0.23440962E+04</pdfrwt>
<totfact> 0.24462325E+00</totfact>
</mgrwt>
</event>
<event>
 6    1  0.1568961E-005  0.2331150E+04  0.7818608E-02  0.8465739E-01
          2   -1    0    0  501    0  0.00000000000E+00  0.00000000000E+00  0.88789519262E+03  0.88789519262E+03  0.00000000000E+00 0. -1.
         -2   -1    0    0    0  501 -0.00000000000E+00 -0.00000000000E+00 -0.15300967273E+04  0.15300967273E+04  0.00000000000E+00 0.  1.
         23    2    1    2    0    0  0.91772839231E+03 -0.71039400722E+03 -0.41102681069E+03  0.12346378729E+04  0.92209492812E+02 0.  0.
         13    1    3    3    0    0  0.26118630461E+03 -0.23767625328E+03 -0.15889882326E+03  0.38724297685E+03  0.00000000000E+00 0.  1.
        -13    1    3    3    0    0  0.65654208770E+03 -0.47271775394E+03 -0.25212798742E+03  0.84739489605E+03  0.00000000000E+00 0. -1.
         22    1    1    2    0    0 -0.91772839231E+03  0.71039400722E+03 -0.23117472397E+03  0.11833540470E+04  0.00000000000E+00 0. -1.
<mgrwt>
<rscale>  0 0.23311504E+04</rscale>
<asrwt>0</asrwt>
<pdfrwt beam="1">  1        2 0.13659926E+00 0.23311504E+04</pdfrwt>
<pdfrwt beam="2">  1       -2 0.23539949E+00 0.23311504E+04</pdfrwt>
<totfact> 0.21373677E+00</totfact>
</mgrwt>
</event>
<event>
 6    1  0.1568961E-005  0.1190358E+04  0.7818608E-02  0.9121339E-01
          1   -1    0    0  501    0  0.00000000000E+00  0.00000000000E+00  0.14443914656E+04  0.14443914656E+04  0.00000000000E+00 0. -1.
         -1   -1    0    0    0  501 -0.00000000000E+00 -0.00000000000E+00 -0.24525056955E+03  0.24525056955E+03  0.00000000000E+00 0.  1.
         23    2    1    2    0    0 -0.61637551391E+02  0.38167661863E+03  0.12387000699E+04  0.13010018967E+04  0.93551285263E+02 0.  0.
         11    1    3    3    0    0  0.24466035076E+02  0.60516601523E+02  0.20470815006E+03  0.21486338132E+03  0.00000000000E+00 0.  1.
        -11    1    3    3    0    0 -0.86103586467E+02  0.32116001711E+03  0.10339919199E+04  0.10861385154E+04  0.00000000000E+00 0. -1.
         22    1    1    2    0    0  0.61637551391E+02 -0.38167661863E+03 -0.39559173924E+02  0.38864013842E+03  0.00000000000E+00 0.  1.
<mgrwt>
<rscale>  0 0.11903576E+04</rscale>
<asrwt>0</asrwt>
<pdfrwt beam="1">  1        1 0.22221407E+00 0.11903576E+04</pdfrwt>
<pdfrwt beam="2">  1       -1 0.37730858E-01 0.11903576E+04</pdfrwt>
<totfact> 0.47975785E+01</totfact>
</mgrwt>
</event>
<event>
 6    1  0.1568961E-005  0.1693781E+04  0.7818608E-02  0.8764919E-01
          2   -1    0    0  501    0  0.00000000000E+00  0.00000000000E+00  0.23426154006E+04  0.23426154006E+04  0.00000000000E+00 0. -1.
         -2   -1    0    0    0  501 -0.00000000000E+00 -0.00000000000E+00 -0.30616356144E+03  0.30616356144E+03  0.00000000000E+00 0.  1.
         23    2    1    2    0    0 -0.75766636876E+03  0.22035905824E+03  0.14915660394E+04  0.16898644843E+04  0.90864098372E+02 0.  0.
         11    1    3    3    0    0 -0.62794358899E+03  0.19836909203E+03  0.11732725346E+04  0.13454485824E+04  0.00000000000E+00 0. -1.
        -11    1    3    3    0    0 -0.12972277977E+03  0.21989966208E+02  0.31829350486E+03  0.34441590184E+03  0.00000000000E+00 0.  1.
         22    1    1    2    0    0  0.75766636876E+03 -0.22035905824E+03  0.54488579971E+03  0.95891447774E+03  0.00000000000E+00 0.  1.
<mgrwt>
<rscale>  0 0.16937809E+04</rscale>
<asrwt>0</asrwt>
<pdfrwt beam="1">  1        2 0.36040236E+00 0.16937809E+04</pdfrwt>
<pdfrwt beam="2">  1       -2 0.47102088E-01 0.16937809E+04</pdfrwt>
<totfact> 0.17455525E+01</totfact>
</mgrwt>
</event>
<event>
 6    1  0.1568961E-005  0.1065084E+04  0.7818608E-02  0.9239908E-01
          2   -1    0    0  501    0  0.00000000000E+00  0.00000000000E+00  0.13226140746E+04  0.13226140746E+04  0.00000000000E+00 0. -1.
         -2   -1    0    0    0  501 -0.00000000000E+00 -0.00000000000E+00 -0.21442440318E+03  0.21442440318E+03  0.00000000000E+00 0.  1.
         23    2    1    2    0    0 -0.25269845813E+03 -0.44267634686E+03  0.35580853746E+03  0.62825014735E+03  0.90992711262E+02 0.  0.
         13    1    3    3    0    0 -0.17234158561E+03 -0.24392973113E+03  0.24842569594E+03  0.38848251217E+03  0.00000000000E+00 0. -1.
        -13    1    3    3    0    0 -0.80356872525E+02 -0.19874661573E+03  0.10738284152E+03  0.23976763518E+03  0.00000000000E+00 0.  1.
         22    1    1    2    0    0  0.25269845813E+03  0.44267634686E+03  0.75238113398E+03  0.90878833046E+03  0.00000000000E+00 0. -1.
<mgrwt>
<rscale>  0 0.10650835E+04</rscale>
<asrwt>0</asrwt>
<pdfrwt beam="1">  1        2 0.20347908E+00 0.10650835E+04</pdfrwt>
<pdfrwt beam="2">  1       -2 0.32988371E-01 0.10650835E+04</pdfrwt>
<totfact> 0.13667959E+02</totfact>
</mgrwt>
</event>
<event>
 6    1  0.2159232E-005  0.3845813E+04  0.7818608E-02  0.8036394E-01
         -2   -1    0    0    0  501 -0.00000000000E+00  0.00000000000E+00  0.13164348429E+04  0.13164348429E+04  0.00000000000E+00 0.  1.
          2   -1    0    0  501    0  0.00000000000E+00 -0.00000000000E+00 -0.28087750244E+04  0.28087750244E+04  0.00000000000E+00 0. -1.
         23    2    1    2    0    0  0.37538666729E+03 -0.10350135225E+04 -0.24362072656E+04  0.26750191162E+04  0.91941770351E+02 0.  0.
         13    1    3    3    0    0  0.16697784395E+03 -0.41133983396E+03 -0.88184936667E+03  0.98728940280E+03  0.00000000000E+00 0. -1.
        -13    1    3    3    0    0  0.20840882334E+03 -0.62367368858E+03 -0.15543578990E+04  0.16877297134E+04  0.00000000000E+00 0.  1.
         22    1    1    2    0    0 -0.37538666729E+03  0.10350135225E+04  0.94386708417E+03  0.14501907510E+04  0.00000000000E+00 0.  1.
<mgrwt>
<rscale>  0 0.38458129E+04</rscale>
<asrwt>0</asrwt>
<pdfrwt beam="1">  1        2 0.43211923E+00 0.38458129E+04</pdfrwt>
<pdfrwt beam="2">  1       -2 0.20252844E+00 0.38458129E+04</pdfrwt>
<totfact> 0.23352237E-01</totfact>
</mgrwt>
</event>
<event>
 6    1  0.1568961E-005  0.1766817E+04  0.7818608E-02  0.8724148E-01
         -2   -1    0    0    0  501 -0.00000000000E+00  0.00000000000E+00  0.54129370086E+03  0.54129370086E+03  0.00000000000E+00 0.  1.
          2   -1    0    0  501    0  0.00000000000E+00 -0.00000000000E+00 -0.14417500949E+04  0.14417500949E+04  0.00000000000E+00 0. -1.
         23    2    1    2    0    0  0.15626433588E+03  0.74036933476E+03  0.54747813044E+02  0.76444608864E+03  0.93889322490E+02 0.  0.
         13    1    3    3    0    0  0.14444401802E+03  0.49615610892E+03  0.57401377710E+02  0.51993256959E+03  0.00000000000E+00 0. -1.
        -13    1    3    3    0    0  0.11820317859E+02  0.24421322585E+03 -0.26535646660E+01  0.24451351905E+03  0.00000000000E+00 0.  1.
         22    1    1    2    0    0 -0.15626433588E+03 -0.74036933476E+03 -0.95520420704E+03  0.12185977071E+04  0.00000000000E+00 0. -1.
<mgrwt>
<rscale>  0 0.17668166E+04</rscale>
<asrwt>0</asrwt>
<pdfrwt beam="1">  1        2 0.22180770E+00 0.17668166E+04</pdfrwt>
<pdfrwt beam="2">  1       -2 0.83275955E-01 0.17668166E+04</pdfrwt>
<totfact> 0.16367938E+01</totfact>
</mgrwt>
</event>
<event>
 6    1  0.1568961E-005  0.3649297E+04  0.7818608E-02  0.8079292E-01
         -1   -1    0    0    0  501 -0.00000000000E+00  0.00000000000E+00  0.10814917800E+04  0.10814917800E+04  0.00000000000E+00 0.  1.
          1   -1    0    0  501    0  0.00000000000E+00 -0.00000000000E+00 -0.30784723374E+04  0.30784723374E+04  0.00000000000E+00 0. -1.
         23    2    1    2    0    0  0.35008795560E+03  0.91867856173E+03 -0.27498294380E+04  0.29216938264E+04  0.90559378837E+02 0.  0.
         11    1    3    3    0    0  0.11615543759E+02  0.48473333709E+02 -0.92167220521E+02  0.10478254376E+03  0.00000000000E+00 0.  1.
        -11    1    3    3    0    0  0.33847241184E+03  0.87020522803E+03 -0.26576622174E+04  0.28169112827E+04  0.00000000000E+00 0. -1.
         22    1    1    2    0    0 -0.35008795560E+03 -0.91867856173E+03  0.75284888063E+03  0.12382702910E+04  0.00000000000E+00 0.  1.
<mgrwt>
<rscale>  0 0.36492972E+04</rscale>
<asrwt>0</asrwt>
<pdfrwt beam="1">  1        1 0.47361111E+00 0.36492972E+04</pdfrwt>
<pdfrwt beam="2">  1       -1 0.16638336E+00 0.36492972E+04</pdfrwt>
<totfact> 0.11029222E-01</totfact>
</mgrwt>
</event>
<event>
 6    1  0.1568961E-005  0.4096075E+04  0.7818608E-02  0.7985441E-01
          2   -1    0    0  501    0  0.00000000000E+00  0.00000000000E+00  0.29786603918E+04  0.29786603918E+04  0.00000000000E+00 0. -1.
         -2   -1    0    0    0  501 -0.00000000000E+00 -0.00000000000E+00 -0.14081690554E+04  0.14081690554E+04  0.00000000000E+00 0.  1.
         23    2    1    2    0    0  0.84669322347E+03 -0.16474311725E+04  0.17189255271E+04  0.25286175131E+04  0.91009213688E+02 0.  0.
         13    1    3    3    0    0  0.76919928063E+03 -0.14366279325E+04  0.14951254165E+04  0.22115531558E+04  0.00000000000E+00 0. -1.
        -13    1    3    3    0    0  0.77493942838E+02 -0.21080323996E+03  0.22380011063E+03  0.31706435731E+03  0.00000000000E+00 0.  1.
         22    1    1    2    0    0 -0.84669322347E+03  0.16474311725E+04 -0.14843419072E+03  0.18582119340E+04  0.00000000000E+00 0.  1.
<mgrwt>
<rscale>  0 0.40960749E+04</rscale>
<asrwt>0</asrwt>
<pdfrwt beam="1">  1        2 0.45825544E+00 0.40960749E+04</pdfrwt>
<pdfrwt beam="2">  1       -2 0.21664139E+00 0.40960749E+04</pdfrwt>
<totfact> 0.14583861E-01</totfact>
</mgrwt>
</event>
<event>
 6    1  0.1568961E-005  0.4342630E+04  0.7818608E-02  0.7938782E-01
          2   -1    0    0  501    0  0.00000000000E+00  0.00000000000E+00  0.25005637383E+04  0.25005637383E+04  0.00000000000E+00 0.  1.
         -2   -1    0    0    0  501 -0.00000000000E+00 -0.00000000000E+00 -0.18854181186E+04  0.18854181186E+04  0.00000000000E+00 0. -1.
         23    2    1    2    0    0  0.20931975802E+04  0.46061694124E+03 -0.36177364656E+02  0.21459225482E+04  0.10015340574E+03 0.  0.
         11    1    3    3    0    0  0.14426257564E+04  0.28859829677E+03  0.12150484937E+02  0.14712598969E+04  0.00000000000E+00 0.  1.
        -11    1    3    3    0    0  0.65057182383E+03  0.17201864447E+03 -0.48327849593E+02  0.67466265130E+03  0.00000000000E+00 0. -1.
         22    1    1    2    0    0 -0.20931975802E+04 -0.46061694124E+03  0.65132298440E+03  0.22400593087E+04  0.00000000000E+00 0. -1.
<mgrwt>
<rscale>  0 0.43426297E+04</rscale>
<asrwt>0</asrwt>
<pdfrwt beam="1">  1        2 0.38470211E+00 0.43426297E+04</pdfrwt>
<pdfrwt beam="2">  1       -2 0.29006433E+00 0.43426297E+04</pdfrwt>
<totfact> 0.97583922E-02</totfact>
</mgrwt>
</event>
<event>
 6    1  0.1568961E-005  0.4852540E+03  0.7818608E-02  0.1017701E+00
          2   -1    0    0  501    0  0.00000000000E+00  0.00000000000E+00  0.14150069880E+04  0.14150069880E+04  0.00000000000E+00 0. -1.
         -2   -1    0    0    0  501 -0.00000000000E+00 -0.00000000000E+00 -0.41602528838E+02  0.41602528838E+02  0.00000000000E+00 0.  1.
         23    2    1    2    0    0 -0.78601131279E+02  0.16269412524E+03  0.11571293634E+04  0.11747896572E+04  0.92384299758E+02 0.  0.
         13    1    3    3    0    0 -0.19311276631E+02  0.99187764757E+02  0.83708798215E+03  0.84316512496E+03  0.00000000000E+00 0.  1.
        -13    1    3    3    0    0 -0.59289854648E+02  0.63506360483E+02  0.32004138122E+03  0.33162453223E+03  0.00000000000E+00 0. -1.
         22    1    1    2    0    0  0.78601131279E+02 -0.16269412524E+03  0.21627509574E+03  0.28181985960E+03  0.00000000000E+00 0.  1.
<mgrwt>
<rscale>  0 0.48525403E+03</rscale>
<asrwt>0</asrwt>
<pdfrwt beam="1">  1        2 0.21769335E+00 0.48525403E+03</pdfrwt>
<pdfrwt beam="2">  1       -2 0.64003901E-02 0.48525403E+03</pdfrwt>
<totfact> 0.20226607E+03</totfact>
</mgrwt>
</event>
<event>
 6    1  0.1568961E-005  0.3234390E+04  0.7818608E-02  0.8179794E-01
          2   -1    0    0  501    0  0.00000000000E+00  0.00000000000E+00  0.14514962421E+04  0.14514962421E+04  0.00000000000E+00 0. -1.
         -2   -1    0    0    0  501 -0.00000000000E+00 -0.00000000000E+00 -0.18018089816E+04  0.18018089816E+04  0.00000000000E+00 0.  1.
         23    2    1    2    0    0 -0.11719774358E+04  0.58776537774E+03 -0.11253891754E+04  0.17302350578E+04  0.90627313122E+02 0.  0.
         11    1    3    3    0    0 -0.25087909327E+03  0.96396704413E+02 -0.26461486543E+03  0.37716531000E+03  0.00000000000E+00 0. -1.
        -11    1    3    3    0    0 -0.92109834250E+03  0.49136867332E+03 -0.86077430993E+03  0.13530697478E+04  0.00000000000E+00 0.  1.
         22    1    1    2    0    0  0.11719774358E+04 -0.58776537774E+03  0.77507643587E+03  0.15230701660E+04  0.00000000000E+00 0. -1.
<mgrwt>
<rscale>  0 0.32343896E+04</rscale>
<asrwt>0</asrwt>
<pdfrwt beam="1">  1        2 0.22330711E+00 0.32343896E+04</pdfrwt>
<pdfrwt beam="2">  1       -2 0.27720138E+00 0.32343896E+04</pdfrwt>
<totfact> 0.49736313E-01</totfact>
</mgrwt>
</event>
<event>
 6    1  0.1634689E-005  0.2774683E+04  0.7818608E-02  0.8311172E-01
         -1   -1    0    0    0  501 -0.00000000000E+00  0.00000000000E+00  0.85160572453E+03  0.85160572453E+03  0.00000000000E+00 0.  1.
          1   -1    0    0  501    0  0.00000000000E+00 -0.00000000000E+00 -0.22601028889E+04  0.22601028889E+04  0.00000000000E+00 0. -1.
         23    2    1    2    0    0  0.32304774118E+03 -0.11241632617E+04 -0.15384643222E+04  0.19348507868E+04  0.93124725865E+02 0.  0.
         11    1    3    3    0    0  0.84585278796E+02 -0.33802121358E+03 -0.39261124460E+03  0.52493485273E+03  0.00000000000E+00 0. -1.
        -11    1    3    3    0    0  0.23846246239E+03 -0.78614204811E+03 -0.11458530776E+04  0.14099159341E+04  0.00000000000E+00 0.  1.
         22    1    1    2    0    0 -0.32304774118E+03  0.11241632617E+04  0.12996715782E+03  0.11768578266E+04  0.00000000000E+00 0.  1.
<mgrwt>
<rscale>  0 0.27746831E+04</rscale>
<asrwt>0</asrwt>
<pdfrwt beam="1">  1        1 0.34770814E+00 0.27746831E+04</pdfrwt>
<pdfrwt beam="2">  1       -1 0.13101627E+00 0.27746831E+04</pdfrwt>
<totfact> 0.85479993E-01</totfact>
</mgrwt>
</event>
<event>
 6    1  0.1568961E-005  0.1656783E+04  0.7818608E-02  0.8786404E-01
          4   -1    0    0  501    0  0.00000000000E+00  0.00000000000E+00  0.13977585429E+04  0.13977585429E+04  0.00000000000E+00 0. -1.
         -4   -1    0    0    0  501 -0.00000000000E+00 -0.00000000000E+00 -0.49095193369E+03  0.49095193369E+03  0.00000000000E+00 0.  1.
         23    2    1    2    0    0  0.10614269333E+03  0.65015763068E+03  0.10227064627E+04  0.12198278321E+04  0.89890015952E+02 0.  0.
         11    1    3    3    0    0  0.78509576897E+02  0.38641427450E+03  0.68577041446E+03  0.79105044501E+03  0.00000000000E+00 0. -1.
        -11    1    3    3    0    0  0.27633116431E+02  0.26374335618E+03  0.33693604828E+03  0.42877738709E+03  0.00000000000E+00 0.  1.
         22    1    1    2    0    0 -0.10614269333E+03 -0.65015763068E+03 -0.11589985351E+03  0.66888264450E+03  0.00000000000E+00 0.  1.
<mgrwt>
<rscale>  0 0.16567827E+04</rscale>
<asrwt>0</asrwt>
<pdfrwt beam="1">  1        4 0.21503977E+00 0.16567827E+04</pdfrwt>
<pdfrwt beam="2">  1       -4 0.75531067E-01 0.16567827E+04</pdfrwt>
<totfact> 0.31691560E-01</totfact>
</mgrwt>
</event>
<event>
 6    1  0.1568961E-005  0.1722235E+04  0.7818608E-02  0.8748783E-01
          1   -1    0    0  501    0  0.00000000000E+00  0.00000000000E+00  0.76468858707E+03  0.76468858707E+03  0.00000000000E+00 0. -1.
         -1   -1    0    0    0  501 -0.00000000000E+00 -0.00000000000E+00 -0.96970669759E+03  0.96970669759E+03  0.00000000000E+00 0.  1.
         23    2    1    2    0    0  0.41965875281E+03  0.29703683636E+02  0.65122736696E+03  0.78037636696E+03  0.88850509274E+02 0.  0.
         11    1    3    3    0    0  0.27939164085E+03 -0.21112042185E+02  0.40484779075E+03  0.49234859701E+03  0.00000000000E+00 0.  1.
        -11    1    3    3    0    0  0.14026711196E+03  0.50815725821E+02  0.24637957621E+03  0.28802776994E+03  0.00000000000E+00 0. -1.
         22    1    1    2    0    0 -0.41965875281E+03 -0.29703683636E+02 -0.85624547748E+03  0.95401891770E+03  0.00000000000E+00 0.  1.
<mgrwt>
<rscale>  0 0.17222353E+04</rscale>
<asrwt>0</asrwt>
<pdfrwt beam="1">  1        1 0.11764440E+00 0.17222353E+04</pdfrwt>
<pdfrwt beam="2">  1       -1 0.14918564E+00 0.17222353E+04</pdfrwt>
<totfact> 0.79904989E+00</totfact>
</mgrwt>
</event>
<event>
 6    1  0.1568961E-005  0.3317257E+04  0.7818608E-02  0.8158518E-01
          2   -1    0    0  501    0  0.00000000000E+00  0.00000000000E+00  0.10704384563E+04  0.10704384563E+04  0.00000000000E+00 0. -1.
         -2   -1    0    0    0  501 -0.00000000000E+00 -0.00000000000E+00 -0.25700204855E+04  0.25700204855E+04  0.00000000000E+00 0.  1.
         23    2    1    2    0    0  0.48340652759E+03  0.15738589934E+03  0.98082692631E+03  0.11084872242E+04  0.90941050091E+02 0.  0.
         11    1    3    3    0    0  0.27953269531E+03  0.48778112679E+02  0.49568965510E+03  0.57116203148E+03  0.00000000000E+00 0.  1.
        -11    1    3    3    0    0  0.20387383228E+03  0.10860778666E+03  0.48513727120E+03  0.53732519271E+03  0.00000000000E+00 0. -1.
         22    1    1    2    0    0 -0.48340652759E+03 -0.15738589934E+03 -0.24804089555E+04  0.25319717176E+04  0.00000000000E+00 0.  1.
<mgrwt>
<rscale>  0 0.33172572E+04</rscale>
<asrwt>0</asrwt>
<pdfrwt beam="1">  1        2 0.16468284E+00 0.33172572E+04</pdfrwt>
<pdfrwt beam="2">  1       -2 0.39538776E+00 0.33172572E+04</pdfrwt>
<totfact> 0.15067400E-01</totfact>
</mgrwt>
</event>
<event>
 6    1  0.1568961E-005  0.1396918E+04  0.7818608E-02  0.8956052E-01
         -2   -1    0    0    0  501 -0.00000000000E+00  0.00000000000E+00  0.38532304870E+03  0.38532304870E+03  0.00000000000E+00 0.  1.
          2   -1    0    0  501    0  0.00000000000E+00 -0.00000000000E+00 -0.12660681715E+04  0.12660681715E+04  0.00000000000E+00 0. -1.
         23    2    1    2    0    0 -0.46307859436E+03 -0.50423699113E+03 -0.58739841654E+03  0.90657646613E+03  0.90262181446E+02 0.  0.
         13    1    3    3    0    0 -0.14635708289E+03 -0.21725429160E+03 -0.24921318678E+03  0.36156193853E+03  0.00000000000E+00 0. -1.
        -13    1    3    3    0    0 -0.31672151148E+03 -0.28698269953E+03 -0.33818522976E+03  0.54501452759E+03  0.00000000000E+00 0.  1.
         22    1    1    2    0    0  0.46307859436E+03  0.50423699113E+03 -0.29334670623E+03  0.74481475404E+03  0.00000000000E+00 0.  1.
<mgrwt>
<rscale>  0 0.13969184E+04</rscale>
<asrwt>0</asrwt>
<pdfrwt beam="1">  1        2 0.19477972E+00 0.13969184E+04</pdfrwt>
<pdfrwt beam="2">  1       -2 0.59280468E-01 0.13969184E+04</pdfrwt>
<totfact> 0.44759868E+01</totfact>
</mgrwt>
</event>
<event>
 6    1  0.1568961E-005  0.2490803E+04  0.7818608E-02  0.8406269E-01
          2   -1    0    0  501    0  0.00000000000E+00  0.00000000000E+00  0.10483411827E+04  0.10483411827E+04  0.00000000000E+00 0. -1.
         -2   -1    0    0    0  501 -0.00000000000E+00 -0.00000000000E+00 -0.14795044786E+04  0.14795044786E+04  0.00000000000E+00 0.  1.
         23    2    1    2    0    0 -0.20298504550E+03  0.81140982089E+03 -0.11499891550E+04  0.14249859958E+04  0.92310376567E+02 0.  0.
         13    1    3    3    0    0  0.72942527783E+01  0.72234454161E+02 -0.87547275491E+02  0.11373455032E+03  0.00000000000E+00 0. -1.
        -13    1    3    3    0    0 -0.21027929828E+03  0.73917536672E+03 -0.10624418795E+04  0.13112514455E+04  0.00000000000E+00 0.  1.
         22    1    1    2    0    0  0.20298504550E+03 -0.81140982089E+03  0.71882585907E+03  0.11028596655E+04  0.00000000000E+00 0. -1.
<mgrwt>
<rscale>  0 0.24908035E+04</rscale>
<asrwt>0</asrwt>
<pdfrwt beam="1">  1        2 0.16128326E+00 0.24908035E+04</pdfrwt>
<pdfrwt beam="2">  1       -2 0.22761607E+00 0.24908035E+04</pdfrwt>
<totfact> 0.18530733E+00</totfact>
</mgrwt>
</event>
<event>
 6    1  0.1673763E-005  0.3517642E+04  0.7818608E-02  0.8109622E-01
         -1   -1    0    0    0  501 -0.00000000000E+00  0.00000000000E+00  0.15741752569E+04  0.15741752569E+04  0.00000000000E+00 0.  1.
          1   -1    0    0  501    0  0.00000000000E+00 -0.00000000000E+00 -0.19651254129E+04  0.19651254129E+04  0.00000000000E+00 0. -1.
         23    2    1    2    0    0  0.12321569900E+04 -0.80891118275E+03 -0.11589687809E+04  0.18772535111E+04  0.91235739251E+02 0.  0.
         13    1    3    3    0    0  0.45308913878E+03 -0.25592289560E+03 -0.37540387786E+03  0.64164972351E+03  0.00000000000E+00 0.  1.
        -13    1    3    3    0    0  0.77906785118E+03 -0.55298828715E+03 -0.78356490307E+03  0.12356037875E+04  0.00000000000E+00 0. -1.
         22    1    1    2    0    0 -0.12321569900E+04  0.80891118275E+03  0.76801862499E+03  0.16620471587E+04  0.00000000000E+00 0. -1.
<mgrwt>
<rscale>  0 0.35176423E+04</rscale>
<asrwt>0</asrwt>
<pdfrwt beam="1">  1        1 0.30232699E+00 0.35176423E+04</pdfrwt>
<pdfrwt beam="2">  1       -1 0.24218081E+00 0.35176423E+04</pdfrwt>
<totfact> 0.20111307E-01</totfact>
</mgrwt>
</event>
<event>
 6    1  0.2031810E-005  0.3442870E+04  0.7818608E-02  0.8127464E-01
          2   -1    0    0  501    0  0.00000000000E+00  0.00000000000E+00  0.12826160669E+04  0.12826160669E+04  0.00000000000E+00 0. -1.
         -2   -1    0    0    0  501 -0.00000000000E+00 -0.00000000000E+00 -0.23103866668E+04  0.23103866668E+04  0.00000000000E+00 0.  1.
         23    2    1    2    0    0  0.32208464509E+03 -0.73623063365E+03  0.10731416891E+04  0.13436458233E+04  0.89313767116E+02 0.  0.
         13    1    3    3    0    0  0.17471505992E+03 -0.39246894360E+03  0.49933943182E+03  0.65870865489E+03  0.00000000000E+00 0. -1.
        -13    1    3    3    0    0  0.14736958517E+03 -0.34376169005E+03  0.57380225731E+03  0.68493716841E+03  0.00000000000E+00 0.  1.
         22    1    1    2    0    0 -0.32208464509E+03  0.73623063365E+03 -0.21009122890E+04  0.22493569104E+04  0.00000000000E+00 0.  1.
<mgrwt>
<rscale>  0 0.34428703E+04</rscale>
<asrwt>0</asrwt>
<pdfrwt beam="1">  1        2 0.19732555E+00 0.34428703E+04</pdfrwt>
<pdfrwt beam="2">  1       -2 0.35544410E+00 0.34428703E+04</pdfrwt>
<totfact> 0.20070936E-01</totfact>
</mgrwt>
</event>
<event>
 6    1  0.1568961E-005  0.1122986E+04  0.7818608E-02  0.9183073E-01
          2   -1    0    0  501    0  0.00000000000E+00  0.00000000000E+00  0.21468892237E+03  0.21468892237E+03  0.00000000000E+00 0. -1.
         -2   -1    0    0    0  501 -0.00000000000E+00 -0.00000000000E+00 -0.14685168157E+04  0.14685168157E+04  0.00000000000E+00 0.  1.
         23    2    1    2    0    0  0.23889607011E+03 -0.10843099212E+03 -0.13687555743E+04  0.13967847469E+04  0.93205120617E+02 0.  0.
         11    1    3    3    0    0  0.78607253829E+02 -0.67925604873E+02 -0.71200548008E+03  0.71954485046E+03  0.00000000000E+00 0. -1.
        -11    1    3    3    0    0  0.16028881628E+03 -0.40505387243E+02 -0.65675009423E+03  0.67723989641E+03  0.00000000000E+00 0.  1.
         22    1    1    2    0    0 -0.23889607011E+03  0.10843099212E+03  0.11492768095E+03  0.28642099123E+03  0.00000000000E+00 0. -1.
<mgrwt>
<rscale>  0 0.11229858E+04</rscale>
<asrwt>0</asrwt>
<pdfrwt beam="1">  1        2 0.33029065E-01 0.11229858E+04</pdfrwt>
<pdfrwt beam="2">  1       -2 0.22592566E+00 0.11229858E+04</pdfrwt>
<totfact> 0.14383249E+01</totfact>
</mgrwt>
</event>
<event>
 6    1  0.1568961E-005  0.1220959E+04  0.7818608E-02  0.9094707E-01
          1   -1    0    0  501    0  0.00000000000E+00  0.00000000000E+00  0.12993107525E+04  0.12993107525E+04  0.00000000000E+00 0. -1.
         -1   -1    0    0    0  501 -0.00000000000E+00 -0.00000000000E+00 -0.28683291243E+03  0.28683291243E+03  0.00000000000E+00 0.  1.
         23    2    1    2    0    0 -0.24607867520E+03 -0.54349656085E+03  0.38150684339E+03  0.71777299252E+03  0.11707848305E+03 0.  0.
         13    1    3    3    0    0 -0.21866973411E+03 -0.35848930076E+03  0.24427225374E+03  0.48579827637E+03  0.00000000000E+00 0. -1.
        -13    1    3    3    0    0 -0.27408941094E+02 -0.18500726009E+03  0.13723458965E+03  0.23197471615E+03  0.00000000000E+00 0.  1.
         22    1    1    2    0    0  0.24607867520E+03  0.54349656085E+03  0.63097099668E+03  0.86837067240E+03  0.00000000000E+00 0. -1.
<mgrwt>
<rscale>  0 0.12209588E+04</rscale>
<asrwt>0</asrwt>
<pdfrwt beam="1">  1        1 0.19989396E+00 0.12209588E+04</pdfrwt>
<pdfrwt beam="2">  1       -1 0.44128141E-01 0.12209588E+04</pdfrwt>
<totfact> 0.45443118E+01</totfact>
</mgrwt>
</event>
<event>
 6    1  0.1568961E-005  0.3650668E+04  0.7818608E-02  0.8078983E-01
         -2   -1    0    0    0  501 -0.00000000000E+00  0.00000000000E+00  0.17355352437E+04  0.17355352437E+04  0.00000000000E+00 0.  1.
          2   -1    0    0  501    0  0.00000000000E+00 -0.00000000000E+00 -0.19197792487E+04  0.19197792487E+04  0.00000000000E+00 0. -1.
         23    2    1    2    0    0  0.37298859851E+03  0.15772305563E+04 -0.93053768386E+03  0.18710132349E+04  0.89517717197E+02 0.  0.
         13    1    3    3    0    0  0.30086352709E+03  0.12516631655E+04 -0.77965433810E+03  0.15050051258E+04  0.00000000000E+00 0.  1.
        -13    1    3    3    0    0  0.72125071424E+02  0.32556739083E+03 -0.15088334576E+03  0.36600810910E+03  0.00000000000E+00 0. -1.
         22    1    1    2    0    0 -0.37298859851E+03 -0.15772305563E+04  0.74629367879E+03  0.17843012575E+04  0.00000000000E+00 0.  1.
<mgrwt>
<rscale>  0 0.36506682E+04</rscale>
<asrwt>0</asrwt>
<pdfrwt beam="1">  1        2 0.29535066E+00 0.36506682E+04</pdfrwt>
<pdfrwt beam="2">  1       -2 0.26700542E+00 0.36506682E+04</pdfrwt>
<totfact> 0.30380803E-01</totfact>
</mgrwt>
</event>
<event>
 6    1  0.1568961E-005  0.1299570E+04  0.7818608E-02  0.9029906E-01
         -1   -1    0    0    0  501 -0.00000000000E+00  0.00000000000E+00  0.57858971140E+03  0.57858971140E+03  0.00000000000E+00 0.  1.
          1   -1    0    0  501    0  0.00000000000E+00 -0.00000000000E+00 -0.72974081271E+03  0.72974081271E+03  0.00000000000E+00 0. -1.
         23    2    1    2    0    0 -0.45990346023E+03 -0.30597947036E+03  0.26238816217E+03  0.61829476312E+03  0.91138561721E+02 0.  0.
         11    1    3    3    0    0 -0.34010327945E+03 -0.18464397831E+03  0.15560020252E+03  0.41710317961E+03  0.00000000000E+00 0. -1.
        -11    1    3    3    0    0 -0.11980018079E+03 -0.12133549205E+03  0.10678795965E+03  0.20119158350E+03  0.00000000000E+00 0.  1.
         22    1    1    2    0    0  0.45990346023E+03  0.30597947036E+03 -0.41353926347E+03  0.69003576100E+03  0.00000000000E+00 0.  1.
<mgrwt>
<rscale>  0 0.12995700E+04</rscale>
<asrwt>0</asrwt>
<pdfrwt beam="1">  1        1 0.11226782E+00 0.12995700E+04</pdfrwt>
<pdfrwt beam="2">  1       -1 0.89013802E-01 0.12995700E+04</pdfrwt>
<totfact> 0.31096090E+01</totfact>
</mgrwt>
</event>
<event>
 6    1  0.1568961E-005  0.2409084E+04  0.7818608E-02  0.8436110E-01
          2   -1    0    0  501    0  0.00000000000E+00  0.00000000000E+00  0.25174904602E+04  0.25174904602E+04  0.00000000000E+00 0.  1.
         -2   -1    0    0    0  501 -0.00000000000E+00 -0.00000000000E+00 -0.57633651037E+03  0.57633651037E+03  0.00000000000E+00 0. -1.
         23    2    1    2    0    0  0.50344587455E+03  0.84230619798E+03  0.78859981154E+02  0.98881478403E+03  0.92727022662E+02 0.  0.
         13    1    3    3    0    0  0.19260840536E+03  0.26959603538E+03 -0.79846882691E+01  0.33142687784E+03  0.00000000000E+00 0.  1.
        -13    1    3    3    0    0  0.31083746919E+03  0.57271016260E+03  0.86844669423E+02  0.65738790619E+03  0.00000000000E+00 0. -1.
         22    1    1    2    0    0 -0.50344587455E+03 -0.84230619798E+03  0.18622939687E+04  0.21050121866E+04  0.00000000000E+00 0.  1.
<mgrwt>
<rscale>  0 0.24090842E+04</rscale>
<asrwt>0</asrwt>
<pdfrwt beam="1">  1        2 0.38730622E+00 0.24090842E+04</pdfrwt>
<pdfrwt beam="2">  1       -2 0.88667157E-01 0.24090842E+04</pdfrwt>
<totfact> 0.33419340E+00</totfact>
</mgrwt>
</event>
<event>
 6    1  0.1568961E-005  0.1077256E+04  0.7818608E-02  0.9227647E-01
         -2   -1    0    0    0  501 -0.00000000000E+00  0.00000000000E+00  0.24509205069E+03  0.24509205069E+03  0.00000000000E+00 0.  1.
          2   -1    0    0  501    0  0.00000000000E+00 -0.00000000000E+00 -0.11837195226E+04  0.11837195226E+04  0.00000000000E+00 0. -1.
         23    2    1    2    0    0  0.11186035520E+03  0.19286550903E+03  0.17217774488E+03  0.29585170054E+03  0.90405803128E+02 0.  0.
         11    1    3    3    0    0  0.80417985674E+02  0.18460428538E+03  0.12008980482E+03  0.23445118004E+03  0.00000000000E+00 0.  1.
        -11    1    3    3    0    0  0.31442369528E+02  0.82612236505E+01  0.52087940057E+02  0.61400520495E+02  0.00000000000E+00 0. -1.
         22    1    1    2    0    0 -0.11186035520E+03 -0.19286550903E+03 -0.11108052168E+04  0.11329598728E+04  0.00000000000E+00 0. -1.
<mgrwt>
<rscale>  0 0.10772562E+04</rscale>
<asrwt>0</asrwt>
<pdfrwt beam="1">  1        2 0.18211069E+00 0.10772562E+04</pdfrwt>
<pdfrwt beam="2">  1       -2 0.37706470E-01 0.10772562E+04</pdfrwt>
<totfact> 0.12768277E+02</totfact>
</mgrwt>
</event>
<event>
 6    1  0.1568961E-005  0.3471679E+04  0.7818608E-02  0.8120535E-01
          2   -1    0    0  501    0  0.00000000000E+00  0.00000000000E+00  0.37184206982E+04  0.37184206982E+04  0.00000000000E+00 0. -1.
         -2   -1    0    0    0  501 -0.00000000000E+00 -0.00000000000E+00 -0.81032761587E+03  0.81032761587E+03  0.00000000000E+00 0.  1.
         23    2    1    2    0    0  0.63774349294E+02 -0.11578130107E+04 -0.22767264991E+03  0.11854528047E+04  0.94156154758E+02 0.  0.
         11    1    3    3    0    0  0.18253905004E+02 -0.23493204956E+03 -0.84055666445E+01  0.23579000511E+03  0.00000000000E+00 0.  1.
        -11    1    3    3    0    0  0.45520444290E+02 -0.92288096109E+03 -0.21926708327E+03  0.94966279962E+03  0.00000000000E+00 0. -1.
         22    1    1    2    0    0 -0.63774349294E+02  0.11578130107E+04  0.31357657322E+04  0.33432955093E+04  0.00000000000E+00 0. -1.
<mgrwt>
<rscale>  0 0.34716791E+04</rscale>
<asrwt>0</asrwt>
<pdfrwt beam="1">  1        2 0.57206472E+00 0.34716791E+04</pdfrwt>
<pdfrwt beam="2">  1       -2 0.12466579E+00 0.34716791E+04</pdfrwt>
<totfact> 0.22442844E-01</totfact>
</mgrwt>
</event>
<event>
 6    1  0.1568961E-005  0.1936546E+04  0.7818608E-02  0.8636876E-01
          2   -1    0    0  501    0  0.00000000000E+00  0.00000000000E+00  0.15716862442E+04  0.15716862442E+04  0.00000000000E+00 0. -1.
         -2   -1    0    0    0  501 -0.00000000000E+00 -0.00000000000E+00 -0.59652675976E+03  0.59652675976E+03  0.00000000000E+00 0.  1.
         23    2    1    2    0    0  0.22560926790E+03 -0.83165018821E+03  0.97754473619E+03  0.13065011805E+04  0.93861845025E+02 0.  0.
         13    1    3    3    0    0  0.23997137472E+02 -0.23157787789E+03  0.29049317175E+03  0.37227739519E+03  0.00000000000E+00 0.  1.
        -13    1    3    3    0    0  0.20161213043E+03 -0.60007231032E+03  0.68705156444E+03  0.93422378526E+03  0.00000000000E+00 0. -1.
         22    1    1    2    0    0 -0.22560926790E+03  0.83165018821E+03 -0.23852517692E+01  0.86171182349E+03  0.00000000000E+00 0.  1.
<mgrwt>
<rscale>  0 0.19365463E+04</rscale>
<asrwt>0</asrwt>
<pdfrwt beam="1">  1        2 0.24179788E+00 0.19365463E+04</pdfrwt>
<pdfrwt beam="2">  1       -2 0.91773348E-01 0.19365463E+04</pdfrwt>
<totfact> 0.10911507E+01</totfact>
</mgrwt>
</event>
<event>
 6    1  0.1568961E-005  0.2371913E+04  0.7818608E-02  0.8450094E-01
          1   -1    0    0  501    0  0.00000000000E+00  0.00000000000E+00  0.15386118701E+04  0.15386118701E+04  0.00000000000E+00 0. -1.
         -1   -1    0    0    0  501 -0.00000000000E+00 -0.00000000000E+00 -0.91413131155E+03  0.91413131155E+03  0.00000000000E+00 0.  1.
         23    2    1    2    0    0  0.10084525114E+04 -0.57016097968E+03  0.56629343985E+03  0.12928096700E+04  0.92782392615E+02 0.  0.
         11    1    3    3    0    0  0.52805555070E+03 -0.32519715573E+03  0.25826394130E+03  0.67178576801E+03  0.00000000000E+00 0. -1.
        -11    1    3    3    0    0  0.48039696073E+03 -0.24496382395E+03  0.30802949855E+03  0.62102390204E+03  0.00000000000E+00 0.  1.
         22    1    1    2    0    0 -0.10084525114E+04  0.57016097968E+03  0.58187118699E+02  0.11599335116E+04  0.00000000000E+00 0. -1.
<mgrwt>
<rscale>  0 0.23719134E+04</rscale>
<asrwt>0</asrwt>
<pdfrwt beam="1">  1        1 0.23670952E+00 0.23719134E+04</pdfrwt>
<pdfrwt beam="2">  1       -1 0.14063559E+00 0.23719134E+04</pdfrwt>
<totfact> 0.22887567E+00</totfact>
</mgrwt>
</event>
<event>
 6    1  0.1568961E-005  0.3664757E+03  0.7818608E-02  0.1056049E+00
          2   -1    0    0  501    0  0.00000000000E+00  0.00000000000E+00  0.55862018930E+03  0.55862018930E+03  0.00000000000E+00 0. -1.
         -2   -1    0    0    0  501 -0.00000000000E+00 -0.00000000000E+00 -0.60105447386E+02  0.60105447386E+02  0.00000000000E+00 0.  1.
         23    2    1    2    0    0 -0.13651069835E+03  0.22888498944E+02  0.43759664656E+03  0.46749710601E+03  0.88902558487E+02 0.  0.
         13    1    3    3    0    0 -0.31568362580E+02  0.34062943704E+02  0.22969459804E+03  0.23434259967E+03  0.00000000000E+00 0. -1.
        -13    1    3    3    0    0 -0.10494233577E+03 -0.11174444760E+02  0.20790204851E+03  0.23315450634E+03  0.00000000000E+00 0.  1.
         22    1    1    2    0    0  0.13651069835E+03 -0.22888498944E+02  0.60918095356E+02  0.15122853067E+03  0.00000000000E+00 0.  1.
<mgrwt>
<rscale>  0 0.36647574E+03</rscale>
<asrwt>0</asrwt>
<pdfrwt beam="1">  1        2 0.85941564E-01 0.36647574E+03</pdfrwt>
<pdfrwt beam="2">  1       -2 0.92469923E-02 0.36647574E+03</pdfrwt>
<totfact> 0.41429693E+03</totfact>
</mgrwt>
</event>
<event>
 6    1  0.1568961E-005  0.1330536E+04  0.7818608E-02  0.9005694E-01
         -2   -1    0    0    0  501 -0.00000000000E+00  0.00000000000E+00  0.26435440473E+03  0.26435440473E+03  0.00000000000E+00 0.  1.
          2   -1    0    0  501    0  0.00000000000E+00 -0.00000000000E+00 -0.16741975195E+04  0.16741975195E+04  0.00000000000E+00 0. -1.
         23    2    1    2    0    0 -0.58770871046E+03 -0.19985151179E+03 -0.10441515631E+04  0.12180850853E+04  0.90203287256E+02 0.  0.
         11    1    3    3    0    0 -0.17032872901E+03 -0.10049124132E+03 -0.30777686985E+03  0.36583735064E+03  0.00000000000E+00 0. -1.
        -11    1    3    3    0    0 -0.41737998145E+03 -0.99360270466E+02 -0.73637469328E+03  0.85224773462E+03  0.00000000000E+00 0.  1.
         22    1    1    2    0    0  0.58770871046E+03  0.19985151179E+03 -0.36569155165E+03  0.72046683898E+03  0.00000000000E+00 0.  1.
<mgrwt>
<rscale>  0 0.13305360E+04</rscale>
<asrwt>0</asrwt>
<pdfrwt beam="1">  1        2 0.25756886E+00 0.13305360E+04</pdfrwt>
<pdfrwt beam="2">  1       -2 0.40669907E-01 0.13305360E+04</pdfrwt>
<totfact> 0.56747699E+01</totfact>
</mgrwt>
</event>
<event>
 6    1  0.1568961E-005  0.1255335E+04  0.7818608E-02  0.9065754E-01
         -1   -1    0    0    0  501 -0.00000000000E+00  0.00000000000E+00  0.67807738643E+03  0.67807738643E+03  0.00000000000E+00 0.  1.
          1   -1    0    0  501    0  0.00000000000E+00 -0.00000000000E+00 -0.58100542665E+03  0.58100542665E+03  0.00000000000E+00 0. -1.
         23    2    1    2    0    0 -0.50680624390E+03 -0.56778087321E+02  0.40978676835E+03  0.66086306119E+03  0.93479784331E+02 0.  0.
         11    1    3    3    0    0 -0.79264551197E+02  0.77496671694E+00  0.25902081049E+02  0.83392970043E+02  0.00000000000E+00 0. -1.
        -11    1    3    3    0    0 -0.42754169270E+03 -0.57553054038E+02  0.38388468730E+03  0.57747009114E+03  0.00000000000E+00 0.  1.
         22    1    1    2    0    0  0.50680624390E+03  0.56778087321E+02 -0.31271480858E+03  0.59821975189E+03  0.00000000000E+00 0. -1.
<mgrwt>
<rscale>  0 0.12553352E+04</rscale>
<asrwt>0</asrwt>
<pdfrwt beam="1">  1        1 0.89385450E-01 0.12553352E+04</pdfrwt>
<pdfrwt beam="2">  1       -1 0.10431960E+00 0.12553352E+04</pdfrwt>
<totfact> 0.30583194E+01</totfact>
</mgrwt>
</event>
<event>
 6    1  0.1568961E-005  0.3828728E+04  0.7818608E-02  0.8040018E-01
         -2   -1    0    0    0  501 -0.00000000000E+00  0.00000000000E+00  0.96182268155E+03  0.96182268155E+03  0.00000000000E+00 0.  1.
          2   -1    0    0  501    0  0.00000000000E+00 -0.00000000000E+00 -0.38102555660E+04  0.38102555660E+04  0.00000000000E+00 0. -1.
         23    2    1    2    0    0  0.90047562194E+02 -0.17474401860E+04 -0.46036030220E+03  0.18115805824E+04  0.90756990914E+02 0.  0.
         11    1    3    3    0    0  0.83530619111E+02 -0.11469855822E+04 -0.33903071075E+03  0.11989558428E+04  0.00000000000E+00 0.  1.
        -11    1    3    3    0    0  0.65169430832E+01 -0.60045460381E+03 -0.12132959145E+03  0.61262473958E+03  0.00000000000E+00 0. -1.
         22    1    1    2    0    0 -0.90047562194E+02  0.17474401860E+04 -0.23880725822E+04  0.29604976651E+04  0.00000000000E+00 0.  1.
<mgrwt>
<rscale>  0 0.38287284E+04</rscale>
<asrwt>0</asrwt>
<pdfrwt beam="1">  1        2 0.58619316E+00 0.38287284E+04</pdfrwt>
<pdfrwt beam="2">  1       -2 0.14797272E+00 0.38287284E+04</pdfrwt>
<totfact> 0.11952474E-01</totfact>
</mgrwt>
</event>
<event>
 6    1  0.1568961E-005  0.3420712E+04  0.7818608E-02  0.8132842E-01
          2   -1    0    0  501    0  0.00000000000E+00  0.00000000000E+00  0.10211279887E+04  0.10211279887E+04  0.00000000000E+00 0. -1.
         -2   -1    0    0    0  501 -0.00000000000E+00 -0.00000000000E+00 -0.28647900642E+04  0.28647900642E+04  0.00000000000E+00 0.  1.
         23    2    1    2    0    0  0.86811120496E+03  0.26679584085E+03 -0.25672107491E+04  0.27247463309E+04  0.94204311412E+02 0.  0.
         11    1    3    3    0    0  0.25222625649E+03  0.39988873707E+02 -0.65400945624E+03  0.70210082135E+03  0.00000000000E+00 0. -1.
        -11    1    3    3    0    0  0.61588494847E+03  0.22680696715E+03 -0.19132012929E+04  0.20226455095E+04  0.00000000000E+00 0.  1.
         22    1    1    2    0    0 -0.86811120496E+03 -0.26679584085E+03  0.72354867366E+03  0.11611717220E+04  0.00000000000E+00 0. -1.
<mgrwt>
<rscale>  0 0.34207118E+04</rscale>
<asrwt>0</asrwt>
<pdfrwt beam="1">  1        2 0.15709661E+00 0.34207118E+04</pdfrwt>
<pdfrwt beam="2">  1       -2 0.44073693E+00 0.34207118E+04</pdfrwt>
<totfact> 0.80617740E-02</totfact>
</mgrwt>
</event>
<event>
 6    1  0.1568961E-005  0.1703929E+04  0.7818608E-02  0.8759127E-01
         -2   -1    0    0    0  501 -0.00000000000E+00  0.00000000000E+00  0.44019112886E+03  0.44019112886E+03  0.00000000000E+00 0.  1.
          2   -1    0    0  501    0  0.00000000000E+00 -0.00000000000E+00 -0.16489277911E+04  0.16489277911E+04  0.00000000000E+00 0. -1.
         23    2    1    2    0    0  0.35447701038E+03 -0.66422668530E+03 -0.10883332019E+04  0.13266570956E+04  0.93267629276E+02 0.  0.
         13    1    3    3    0    0  0.21478870887E+03 -0.43598037306E+03 -0.77284978120E+03  0.91296761139E+03  0.00000000000E+00 0. -1.
        -13    1    3    3    0    0  0.13968830151E+03 -0.22824631225E+03 -0.31548342069E+03  0.41368948423E+03  0.00000000000E+00 0.  1.
         22    1    1    2    0    0 -0.35447701038E+03  0.66422668530E+03 -0.12040346039E+03  0.76246182438E+03  0.00000000000E+00 0.  1.
<mgrwt>
<rscale>  0 0.17039289E+04</rscale>
<asrwt>0</asrwt>
<pdfrwt beam="1">  1        2 0.25368120E+00 0.17039289E+04</pdfrwt>
<pdfrwt beam="2">  1       -2 0.67721712E-01 0.17039289E+04</pdfrwt>
<totfact> 0.19898626E+01</totfact>
</mgrwt>
</event>
<event>
 6    1  0.1568961E-005  0.9470433E+03  0.7818608E-02  0.9368613E-01
         -2   -1    0    0    0  501 -0.00000000000E+00  0.00000000000E+00  0.20568267477E+03  0.20568267477E+03  0.00000000000E+00 0.  1.
          2   -1    0    0  501    0  0.00000000000E+00 -0.00000000000E+00 -0.10901391227E+04  0.10901391227E+04  0.00000000000E+00 0. -1.
         23    2    1    2    0    0 -0.21135433954E+03 -0.41429961364E+03 -0.36122660778E+03  0.59576159125E+03  0.90179735780E+02 0.  0.
         13    1    3    3    0    0 -0.60255674498E+02 -0.20666449698E+03 -0.13976010082E+03  0.25665900802E+03  0.00000000000E+00 0. -1.
        -13    1    3    3    0    0 -0.15109866504E+03 -0.20763511666E+03 -0.22146650696E+03  0.33910258323E+03  0.00000000000E+00 0.  1.
         22    1    1    2    0    0  0.21135433954E+03  0.41429961364E+03 -0.52322984018E+03  0.70006020624E+03  0.00000000000E+00 0. -1.
<mgrwt>
<rscale>  0 0.94704325E+03</rscale>
<asrwt>0</asrwt>
<pdfrwt beam="1">  1        2 0.16771371E+00 0.94704325E+03</pdfrwt>
<pdfrwt beam="2">  1       -2 0.31643488E-01 0.94704325E+03</pdfrwt>
<totfact> 0.20485715E+02</totfact>
</mgrwt>
</event>
<event>
 6    1  0.1568961E-005  0.4295070E+04  0.7818608E-02  0.7947530E-01
          2   -1    0    0  501    0  0.00000000000E+00  0.00000000000E+00  0.32137928792E+04  0.32137928792E+04  0.00000000000E+00 0.  1.
         -2   -1    0    0    0  501 -0.00000000000E+00 -0.00000000000E+00 -0.14350353330E+04  0.14350353330E+04  0.00000000000E+00 0. -1.
         23    2    1    2    0    0  0.58210092579E+03  0.12095349294E+04 -0.92323230238E+03  0.16317824097E+04  0.92410579404E+02 0.  0.
         11    1    3    3    0    0  0.26549557605E+03  0.58323134413E+03 -0.38728482638E+03  0.74875646136E+03  0.00000000000E+00 0.  1.
        -11    1    3    3    0    0  0.31660534974E+03  0.62630358523E+03 -0.53594747600E+03  0.88302594831E+03  0.00000000000E+00 0. -1.
         22    1    1    2    0    0 -0.58210092579E+03 -0.12095349294E+04  0.27019898486E+04  0.30170458026E+04  0.00000000000E+00 0.  1.
<mgrwt>
<rscale>  0 0.42950699E+04</rscale>
<asrwt>0</asrwt>
<pdfrwt beam="1">  1        2 0.49442967E+00 0.42950699E+04</pdfrwt>
<pdfrwt beam="2">  1       -2 0.22077467E+00 0.42950699E+04</pdfrwt>
<totfact> 0.95516729E-02</totfact>
</mgrwt>
</event>
<event>
 6    1  0.1762254E-005  0.2441948E+04  0.7818608E-02  0.8423964E-01
          1   -1    0    0  501    0  0.00000000000E+00  0.00000000000E+00  0.16708190683E+04  0.16708190683E+04  0.00000000000E+00 0. -1.
         -1   -1    0    0    0  501 -0.00000000000E+00 -0.00000000000E+00 -0.89224333558E+03  0.89224333558E+03  0.00000000000E+00 0.  1.
         23    2    1    2    0    0 -0.11141944561E+04  0.48537961584E+03  0.49259522457E+03  0.13145402741E+04  0.91342320544E+02 0.  0.
         11    1    3    3    0    0 -0.35728233063E+03  0.13301038957E+03  0.11494837740E+03  0.39819035270E+03  0.00000000000E+00 0. -1.
        -11    1    3    3    0    0 -0.75691212546E+03  0.35236922627E+03  0.37764684716E+03  0.91634992140E+03  0.00000000000E+00 0.  1.
         22    1    1    2    0    0  0.11141944561E+04 -0.48537961584E+03  0.28598050811E+03  0.12485221297E+04  0.00000000000E+00 0.  1.
<mgrwt>
<rscale>  0 0.24419477E+04</rscale>
<asrwt>0</asrwt>
<pdfrwt beam="1">  1        1 0.25704909E+00 0.24419477E+04</pdfrwt>
<pdfrwt beam="2">  1       -1 0.13726821E+00 0.24419477E+04</pdfrwt>
<totfact> 0.19659725E+00</totfact>
</mgrwt>
</event>
<event>
 6    1  0.1568961E-005  0.1437100E+04  0.7818608E-02  0.8927393E-01
          2   -1    0    0  501    0  0.00000000000E+00  0.00000000000E+00  0.57064929808E+03  0.57064929808E+03  0.00000000000E+00 0. -1.
         -2   -1    0    0    0  501 -0.00000000000E+00 -0.00000000000E+00 -0.90478371585E+03  0.90478371585E+03  0.00000000000E+00 0.  1.
         23    2    1    2    0    0  0.15892028052E+03  0.68441263909E+03 -0.30047584400E+02  0.70983186560E+03  0.96343676482E+02 0.  0.
         13    1    3    3    0    0  0.66109473845E+02  0.47993473708E+03 -0.27839712366E+02  0.48526576633E+03  0.00000000000E+00 0. -1.
        -13    1    3    3    0    0  0.92810806671E+02  0.20447790201E+03 -0.22078720341E+01  0.22456609927E+03  0.00000000000E+00 0.  1.
         22    1    1    2    0    0 -0.15892028052E+03 -0.68441263909E+03 -0.30408683337E+03  0.76560114833E+03  0.00000000000E+00 0.  1.
<mgrwt>
<rscale>  0 0.14371001E+04</rscale>
<asrwt>0</asrwt>
<pdfrwt beam="1">  1        2 0.87792200E-01 0.14371001E+04</pdfrwt>
<pdfrwt beam="2">  1       -2 0.13919749E+00 0.14371001E+04</pdfrwt>
<totfact> 0.18632783E+01</totfact>
</mgrwt>
</event>
<event>
 6    1  0.1568961E-005  0.2045648E+04  0.7818608E-02  0.8585571E-01
          1   -1    0    0  501    0  0.00000000000E+00  0.00000000000E+00  0.13521552246E+04  0.13521552246E+04  0.00000000000E+00 0. -1.
         -1   -1    0    0    0  501 -0.00000000000E+00 -0.00000000000E+00 -0.77370505117E+03  0.77370505117E+03  0.00000000000E+00 0.  1.
         23    2    1    2    0    0 -0.50755477650E+03  0.40857471725E+03  0.11063880681E+04  0.12872521603E+04  0.91533689800E+02 0.  0.
         13    1    3    3    0    0 -0.22551545228E+03  0.22722044085E+03  0.59674575912E+03  0.67719409994E+03  0.00000000000E+00 0. -1.
        -13    1    3    3    0    0 -0.28203932422E+03  0.18135427640E+03  0.50964230893E+03  0.61005806037E+03  0.00000000000E+00 0.  1.
         22    1    1    2    0    0  0.50755477650E+03 -0.40857471725E+03 -0.52793789463E+03  0.83860811545E+03  0.00000000000E+00 0.  1.
<mgrwt>
<rscale>  0 0.20456484E+04</rscale>
<asrwt>0</asrwt>
<pdfrwt beam="1">  1        1 0.20802388E+00 0.20456484E+04</pdfrwt>
<pdfrwt beam="2">  1       -1 0.11903155E+00 0.20456484E+04</pdfrwt>
<totfact> 0.48457915E+00</totfact>
</mgrwt>
</event>
<event>
 6    1  0.1568961E-005  0.1985128E+04  0.7818608E-02  0.8613606E-01
         -1   -1    0    0    0  501 -0.00000000000E+00  0.00000000000E+00  0.40753631613E+03  0.40753631613E+03  0.00000000000E+00 0.  1.
          1   -1    0    0  501    0  0.00000000000E+00 -0.00000000000E+00 -0.24174117742E+04  0.24174117742E+04  0.00000000000E+00 0. -1.
         23    2    1    2    0    0 -0.79966198579E+03 -0.58074771966E+03 -0.10956541650E+04  0.14786465720E+04  0.95970986922E+02 0.  0.
         11    1    3    3    0    0 -0.36075198558E+03 -0.32127474442E+03 -0.53255913547E+03  0.71901230120E+03  0.00000000000E+00 0. -1.
        -11    1    3    3    0    0 -0.43891000020E+03 -0.25947297524E+03 -0.56309502953E+03  0.75963427085E+03  0.00000000000E+00 0.  1.
         22    1    1    2    0    0  0.79966198579E+03  0.58074771966E+03 -0.91422129302E+03  0.13463015182E+04  0.00000000000E+00 0. -1.
<mgrwt>
<rscale>  0 0.19851278E+04</rscale>
<asrwt>0</asrwt>
<pdfrwt beam="1">  1        1 0.37190951E+00 0.19851278E+04</pdfrwt>
<pdfrwt beam="2">  1       -1 0.62697893E-01 0.19851278E+04</pdfrwt>
<totfact> 0.37049377E+00</totfact>
</mgrwt>
</event>
<event>
 6    1  0.1568961E-005  0.1800740E+04  0.7818608E-02  0.8705906E-01
         -1   -1    0    0    0  501 -0.00000000000E+00  0.00000000000E+00  0.84675246924E+03  0.84675246924E+03  0.00000000000E+00 0.  1.
          1   -1    0    0  501    0  0.00000000000E+00 -0.00000000000E+00 -0.95738262238E+03  0.95738262238E+03  0.00000000000E+00 0. -1.
         23    2    1    2    0    0  0.67898954153E+03  0.21883628975E+03 -0.60200295524E+03  0.93789993309E+03  0.91283115343E+02 0.  0.
         13    1    3    3    0    0  0.21571762454E+03  0.45764523611E+02 -0.14054007565E+03  0.26149569407E+03  0.00000000000E+00 0.  1.
        -13    1    3    3    0    0  0.46327191700E+03  0.17307176614E+03 -0.46146287960E+03  0.67640423902E+03  0.00000000000E+00 0. -1.
         22    1    1    2    0    0 -0.67898954153E+03 -0.21883628975E+03  0.49137280211E+03  0.86623515853E+03  0.00000000000E+00 0.  1.
<mgrwt>
<rscale>  0 0.18007400E+04</rscale>
<asrwt>0</asrwt>
<pdfrwt beam="1">  1        1 0.14728963E+00 0.18007400E+04</pdfrwt>
<pdfrwt beam="2">  1       -1 0.13026961E+00 0.18007400E+04</pdfrwt>
<totfact> 0.77845540E+00</totfact>
</mgrwt>
</event>
<event>
 6    1  0.1568961E-005  0.6099573E+04  0.7818608E-02  0.7678177E-01
         -2   -1    0    0    0  501 -0.00000000000E+00  0.00000000000E+00  0.28240706495E+04  0.28240706495E+04  0.00000000000E+00 0.  1.
          2   -1    0    0  501    0  0.00000000000E+00 -0.00000000000E+00 -0.32935430560E+04  0.32935430560E+04  0.00000000000E+00 0. -1.
         23    2    1    2    0    0 -0.98002285278E+03  0.70742176857E+03  0.25728129899E+04  0.28440238130E+04  0.90633421253E+02 0.  0.
         11    1    3    3    0    0 -0.48919483216E+03  0.30023655166E+03  0.11848208448E+04  0.13165310498E+04  0.00000000000E+00 0. -1.
        -11    1    3    3    0    0 -0.49082802062E+03  0.40718521691E+03  0.13879921451E+04  0.15274927632E+04  0.00000000000E+00 0.  1.
         22    1    1    2    0    0  0.98002285278E+03 -0.70742176857E+03 -0.30422853965E+04  0.32735898925E+04  0.00000000000E+00 0. -1.
<mgrwt>
<rscale>  0 0.60995732E+04</rscale>
<asrwt>0</asrwt>
<pdfrwt beam="1">  1        2 0.50669893E+00 0.60995732E+04</pdfrwt>
<pdfrwt beam="2">  1       -2 0.43447241E+00 0.60995732E+04</pdfrwt>
<totfact> 0.33121415E-03</totfact>
</mgrwt>
</event>
<event>
 6    1  0.1568961E-005  0.1892275E+04  0.7818608E-02  0.8658711E-01
          1   -1    0    0  501    0  0.00000000000E+00  0.00000000000E+00  0.13714851395E+04  0.13714851395E+04  0.00000000000E+00 0. -1.
         -1   -1    0    0    0  501 -0.00000000000E+00 -0.00000000000E+00 -0.65270586721E+03  0.65270586721E+03  0.00000000000E+00 0.  1.
         23    2    1    2    0    0  0.10901101306E+03 -0.93707985984E+03  0.32684805016E+03  0.10026176381E+04  0.91708317928E+02 0.  0.
         11    1    3    3    0    0  0.81192343149E+02 -0.51418918786E+03  0.13734133616E+03  0.53837288204E+03  0.00000000000E+00 0.  1.
        -11    1    3    3    0    0  0.27818669906E+02 -0.42289067198E+03  0.18950671401E+03  0.46424475602E+03  0.00000000000E+00 0. -1.
         22    1    1    2    0    0 -0.10901101306E+03  0.93707985984E+03  0.39193122215E+03  0.10215733687E+04  0.00000000000E+00 0.  1.
<mgrwt>
<rscale>  0 0.18922752E+04</rscale>
<asrwt>0</asrwt>
<pdfrwt beam="1">  1        1 0.21099771E+00 0.18922752E+04</pdfrwt>
<pdfrwt beam="2">  1       -1 0.10041629E+00 0.18922752E+04</pdfrwt>
<totfact> 0.71124415E+00</totfact>
</mgrwt>
</event>
<event>
 6    1  0.1568961E-005  0.4220669E+04  0.7818608E-02  0.7961452E-01
          1   -1    0    0  501    0  0.00000000000E+00  0.00000000000E+00  0.23012276221E+04  0.23012276221E+04  0.00000000000E+00 0. -1.
         -1   -1    0    0    0  501 -0.00000000000E+00 -0.00000000000E+00 -0.19352768377E+04  0.19352768377E+04  0.00000000000E+00 0.  1.
         23    2    1    2    0    0  0.14317512512E+04  0.52489585923E+03 -0.12798101897E+04  0.19928564276E+04  0.90195958155E+02 0.  0.
         13    1    3    3    0    0  0.83931540563E+03  0.35236297739E+03 -0.78118450822E+03  0.11995245949E+04  0.00000000000E+00 0.  1.
        -13    1    3    3    0    0  0.59243584560E+03  0.17253288183E+03 -0.49862568149E+03  0.79333183266E+03  0.00000000000E+00 0. -1.
         22    1    1    2    0    0 -0.14317512512E+04 -0.52489585923E+03  0.16457609741E+04  0.22436480322E+04  0.00000000000E+00 0. -1.
<mgrwt>
<rscale>  0 0.42206694E+04</rscale>
<asrwt>0</asrwt>
<pdfrwt beam="1">  1        1 0.35403502E+00 0.42206694E+04</pdfrwt>
<pdfrwt beam="2">  1       -1 0.29773490E+00 0.42206694E+04</pdfrwt>
<totfact> 0.48779927E-02</totfact>
</mgrwt>
</event>
<event>
 6    1  0.1568961E-005  0.1506365E+04  0.7818608E-02  0.8880231E-01
         -2   -1    0    0    0  501 -0.00000000000E+00  0.00000000000E+00  0.36150059084E+03  0.36150059084E+03  0.00000000000E+00 0.  1.
          2   -1    0    0  501    0  0.00000000000E+00 -0.00000000000E+00 -0.15692479845E+04  0.15692479845E+04  0.00000000000E+00 0. -1.
         23    2    1    2    0    0 -0.57818943342E+03 -0.47260737449E+03 -0.51219729758E+03  0.91023366241E+03  0.92295705179E+02 0.  0.
         11    1    3    3    0    0 -0.22462112885E+03 -0.12801842098E+03 -0.16622539502E+03  0.30736663707E+03  0.00000000000E+00 0. -1.
        -11    1    3    3    0    0 -0.35356830458E+03 -0.34458895351E+03 -0.34597190256E+03  0.60286702534E+03  0.00000000000E+00 0.  1.
         22    1    1    2    0    0  0.57818943342E+03  0.47260737449E+03 -0.69555009603E+03  0.10205149129E+04  0.00000000000E+00 0. -1.
<mgrwt>
<rscale>  0 0.15063653E+04</rscale>
<asrwt>0</asrwt>
<pdfrwt beam="1">  1        2 0.24142278E+00 0.15063653E+04</pdfrwt>
<pdfrwt beam="2">  1       -2 0.55615474E-01 0.15063653E+04</pdfrwt>
<totfact> 0.34034778E+01</totfact>
</mgrwt>
</event>
<event>
 6    1  0.1568961E-005  0.2980014E+04  0.7818608E-02  0.8249461E-01
         -1   -1    0    0    0  501 -0.00000000000E+00  0.00000000000E+00  0.18191967379E+04  0.18191967379E+04  0.00000000000E+00 0.  1.
          1   -1    0    0  501    0  0.00000000000E+00 -0.00000000000E+00 -0.12203852692E+04  0.12203852692E+04  0.00000000000E+00 0. -1.
         23    2    1    2    0    0 -0.12409408368E+04 -0.76694150469E+03 -0.24719156246E+01  0.14617115623E+04  0.91984503138E+02 0.  0.
         13    1    3    3    0    0 -0.99309566690E+03 -0.61612048262E+03 -0.38680074085E+02  0.11693329726E+04  0.00000000000E+00 0.  1.
        -13    1    3    3    0    0 -0.24784516993E+03 -0.15082102207E+03  0.36208158461E+02  0.29237858967E+03  0.00000000000E+00 0. -1.
         22    1    1    2    0    0  0.12409408368E+04  0.76694150469E+03  0.60128338433E+03  0.15778704448E+04  0.00000000000E+00 0.  1.
<mgrwt>
<rscale>  0 0.29800140E+04</rscale>
<asrwt>0</asrwt>
<pdfrwt beam="1">  1        1 0.18775158E+00 0.29800140E+04</pdfrwt>
<pdfrwt beam="2">  1       -1 0.27987642E+00 0.29800140E+04</pdfrwt>
<totfact> 0.39246962E-01</totfact>
</mgrwt>
</event>
<event>
 6    1  0.1568961E-005  0.2028037E+04  0.7818608E-02  0.8593623E-01
         -2   -1    0    0    0  501 -0.00000000000E+00  0.00000000000E+00  0.73687290608E+03  0.73687290608E+03  0.00000000000E+00 0.  1.
          2   -1    0    0  501    0  0.00000000000E+00 -0.00000000000E+00 -0.13954019350E+04  0.13954019350E+04  0.00000000000E+00 0. -1.
         23    2    1    2    0    0 -0.20803410747E+03  0.87880181708E+03  0.14958765998E+03  0.92040710635E+03  0.95926794105E+02 0.  0.
         11    1    3    3    0    0 -0.13797302260E+03  0.37633721543E+03  0.63626306479E+02  0.40585041771E+03  0.00000000000E+00 0. -1.
        -11    1    3    3    0    0 -0.70061084877E+02  0.50246460165E+03  0.85961353505E+02  0.51455668864E+03  0.00000000000E+00 0.  1.
         22    1    1    2    0    0  0.20803410747E+03 -0.87880181708E+03 -0.80811668889E+03  0.12118677347E+04  0.00000000000E+00 0. -1.
<mgrwt>
<rscale>  0 0.20280374E+04</rscale>
<asrwt>0</asrwt>
<pdfrwt beam="1">  1        2 0.21467722E+00 0.20280374E+04</pdfrwt>
<pdfrwt beam="2">  1       -2 0.11336506E+00 0.20280374E+04</pdfrwt>
<totfact> 0.82418929E+00</totfact>
</mgrwt>
</event>
<event>
 6    1  0.1568961E-005  0.3030838E+04  0.7818608E-02  0.8234979E-01
         -1   -1    0    0    0  501 -0.00000000000E+00  0.00000000000E+00  0.54050783510E+03  0.54050783510E+03  0.00000000000E+00 0.  1.
          1   -1    0    0  501    0  0.00000000000E+00 -0.00000000000E+00 -0.42487722575E+04  0.42487722575E+04  0.00000000000E+00 0. -1.
         23    2    1    2    0    0  0.14377577120E+04  0.42472051670E+03 -0.15159038727E+04  0.21333471990E+04  0.75305805797E+02 0.  0.
         13    1    3    3    0    0  0.25109789659E+03  0.10383393636E+03 -0.26662852761E+03  0.38068676329E+03  0.00000000000E+00 0. -1.
        -13    1    3    3    0    0  0.11866598154E+04  0.32088658034E+03 -0.12492753451E+04  0.17526604357E+04  0.00000000000E+00 0.  1.
         22    1    1    2    0    0 -0.14377577120E+04 -0.42472051670E+03 -0.21923605497E+04  0.26559328936E+04  0.00000000000E+00 0. -1.
<mgrwt>
<rscale>  0 0.30308380E+04</rscale>
<asrwt>0</asrwt>
<pdfrwt beam="1">  1        1 0.65365730E+00 0.30308380E+04</pdfrwt>
<pdfrwt beam="2">  1       -1 0.83155047E-01 0.30308380E+04</pdfrwt>
<totfact> 0.69317872E-02</totfact>
</mgrwt>
</event>
<event>
 6    1  0.1568961E-005  0.2687699E+04  0.7818608E-02  0.8339007E-01
         -2   -1    0    0    0  501 -0.00000000000E+00  0.00000000000E+00  0.56853169447E+03  0.56853169447E+03  0.00000000000E+00 0.  1.
          2   -1    0    0  501    0  0.00000000000E+00 -0.00000000000E+00 -0.31764824120E+04  0.31764824120E+04  0.00000000000E+00 0. -1.
         23    2    1    2    0    0 -0.45767828452E+03  0.98600464929E+03 -0.20827676877E+03  0.11106053225E+04  0.91599069287E+02 0.  0.
         11    1    3    3    0    0 -0.32058365220E+03  0.77397219525E+03 -0.17638053666E+03  0.85610567735E+03  0.00000000000E+00 0. -1.
        -11    1    3    3    0    0 -0.13709463232E+03  0.21203245404E+03 -0.31896232108E+02  0.25449964518E+03  0.00000000000E+00 0.  1.
         22    1    1    2    0    0  0.45767828452E+03 -0.98600464929E+03 -0.23996739488E+04  0.26344087839E+04  0.00000000000E+00 0. -1.
<mgrwt>
<rscale>  0 0.26876986E+04</rscale>
<asrwt>0</asrwt>
<pdfrwt beam="1">  1        2 0.48868961E+00 0.26876986E+04</pdfrwt>
<pdfrwt beam="2">  1       -2 0.87466413E-01 0.26876986E+04</pdfrwt>
<totfact> 0.13311945E+00</totfact>
</mgrwt>
</event>
<event>
 6    1  0.1568961E-005  0.3194548E+04  0.7818608E-02  0.8190259E-01
          2   -1    0    0  501    0  0.00000000000E+00  0.00000000000E+00  0.21894135446E+04  0.21894135446E+04  0.00000000000E+00 0. -1.
         -2   -1    0    0    0  501 -0.00000000000E+00 -0.00000000000E+00 -0.11652819159E+04  0.11652819159E+04  0.00000000000E+00 0.  1.
         23    2    1    2    0    0 -0.38603331161E+03 -0.11784062864E+04  0.15676147998E+04  0.20007984737E+04  0.90084838604E+02 0.  0.
         11    1    3    3    0    0 -0.31116564217E+03 -0.89919521823E+03  0.12563467635E+04  0.15760023120E+04  0.00000000000E+00 0.  1.
        -11    1    3    3    0    0 -0.74867669443E+02 -0.27921106819E+03  0.31126803632E+03  0.42479616166E+03  0.00000000000E+00 0. -1.
         22    1    1    2    0    0  0.38603331161E+03  0.11784062864E+04 -0.54348317120E+03  0.13538969868E+04  0.00000000000E+00 0.  1.
<mgrwt>
<rscale>  0 0.31945479E+04</rscale>
<asrwt>0</asrwt>
<pdfrwt beam="1">  1        2 0.33683285E+00 0.31945479E+04</pdfrwt>
<pdfrwt beam="2">  1       -2 0.17927414E+00 0.31945479E+04</pdfrwt>
<totfact> 0.80902058E-01</totfact>
</mgrwt>
</event>
<event>
 6    1  0.1568961E-005  0.1536815E+04  0.7818608E-02  0.8860334E-01
          1   -1    0    0  501    0  0.00000000000E+00  0.00000000000E+00  0.16546207576E+04  0.16546207576E+04  0.00000000000E+00 0. -1.
         -1   -1    0    0    0  501 -0.00000000000E+00 -0.00000000000E+00 -0.35684918317E+03  0.35684918317E+03  0.00000000000E+00 0.  1.
         23    2    1    2    0    0 -0.82781448676E+02 -0.71959511840E+03  0.32631128133E+03  0.79969231937E+03  0.91426750288E+02 0.  0.
         11    1    3    3    0    0  0.15222002286E+02 -0.17143545400E+03  0.96180175271E+02  0.19716097575E+03  0.00000000000E+00 0. -1.
        -11    1    3    3    0    0 -0.98003450962E+02 -0.54815966439E+03  0.23013110606E+03  0.60253134362E+03  0.00000000000E+00 0.  1.
         22    1    1    2    0    0  0.82781448676E+02  0.71959511840E+03  0.97146029314E+03  0.12117776214E+04  0.00000000000E+00 0. -1.
<mgrwt>
<rscale>  0 0.15368150E+04</rscale>
<asrwt>0</asrwt>
<pdfrwt beam="1">  1        1 0.25455703E+00 0.15368150E+04</pdfrwt>
<pdfrwt beam="2">  1       -1 0.54899875E-01 0.15368150E+04</pdfrwt>
<totfact> 0.16553711E+01</totfact>
</mgrwt>
</event>
<event>
 6    1  0.1568961E-005  0.4014013E+04  0.7818608E-02  0.8001726E-01
         -2   -1    0    0    0  501 -0.00000000000E+00  0.00000000000E+00  0.24338050727E+04  0.24338050727E+04  0.00000000000E+00 0.  1.
          2   -1    0    0  501    0  0.00000000000E+00 -0.00000000000E+00 -0.16550525543E+04  0.16550525543E+04  0.00000000000E+00 0. -1.
         23    2    1    2    0    0 -0.61324046629E+03  0.99271143893E+01 -0.15563935600E+04  0.16745110022E+04  0.73917289803E+02 0.  0.
         11    1    3    3    0    0 -0.36515492261E+03 -0.28883722354E+02 -0.89512337489E+03  0.96717022452E+03  0.00000000000E+00 0. -1.
        -11    1    3    3    0    0 -0.24808554368E+03  0.38810836743E+02 -0.66127018513E+03  0.70734077769E+03  0.00000000000E+00 0.  1.
         22    1    1    2    0    0  0.61324046629E+03 -0.99271143893E+01  0.23351460784E+04  0.24143466248E+04  0.00000000000E+00 0.  1.
<mgrwt>
<rscale>  0 0.40140131E+04</rscale>
<asrwt>0</asrwt>
<pdfrwt beam="1">  1        2 0.25462347E+00 0.40140131E+04</pdfrwt>
<pdfrwt beam="2">  1       -2 0.37443155E+00 0.40140131E+04</pdfrwt>
<totfact> 0.88988142E-02</totfact>
</mgrwt>
</event>
<event>
 6    1  0.1568961E-005  0.2495300E+04  0.7818608E-02  0.8404662E-01
          2   -1    0    0  501    0  0.00000000000E+00  0.00000000000E+00  0.33010547723E+04  0.33010547723E+04  0.00000000000E+00 0. -1.
         -2   -1    0    0    0  501 -0.00000000000E+00 -0.00000000000E+00 -0.47155531776E+03  0.47155531776E+03  0.00000000000E+00 0.  1.
         23    2    1    2    0    0 -0.41288264343E+03 -0.38952293955E+03 -0.26029433928E+03  0.63110951134E+03  0.91355758254E+02 0.  0.
         11    1    3    3    0    0 -0.14648061828E+03 -0.10374701285E+03 -0.12035601080E+03  0.21611474624E+03  0.00000000000E+00 0. -1.
        -11    1    3    3    0    0 -0.26640202515E+03 -0.28577592670E+03 -0.13993832849E+03  0.41499476511E+03  0.00000000000E+00 0.  1.
         22    1    1    2    0    0  0.41288264343E+03  0.38952293955E+03  0.30897937938E+04  0.31415005787E+04  0.00000000000E+00 0. -1.
<mgrwt>
<rscale>  0 0.24952995E+04</rscale>
<asrwt>0</asrwt>
<pdfrwt beam="1">  1        2 0.50785457E+00 0.24952995E+04</pdfrwt>
<pdfrwt beam="2">  1       -2 0.72546974E-01 0.24952995E+04</pdfrwt>
<totfact> 0.17065550E+00</totfact>
</mgrwt>
</event>
<event>
 6    1  0.1568961E-005  0.2208553E+04  0.7818608E-02  0.8514876E-01
          2   -1    0    0  501    0  0.00000000000E+00  0.00000000000E+00  0.23840432288E+04  0.23840432288E+04  0.00000000000E+00 0. -1.
         -2   -1    0    0    0  501 -0.00000000000E+00 -0.00000000000E+00 -0.51149538505E+03  0.51149538505E+03  0.00000000000E+00 0.  1.
         23    2    1    2    0    0  0.81017499924E+03 -0.73043215344E+03  0.11465750879E+04  0.15852138059E+04  0.91398675910E+02 0.  0.
         11    1    3    3    0    0  0.20460407561E+03 -0.13493319019E+03  0.27100139065E+03  0.36539231972E+03  0.00000000000E+00 0.  1.
        -11    1    3    3    0    0  0.60557092363E+03 -0.59549896324E+03  0.87557369727E+03  0.12198214862E+04  0.00000000000E+00 0. -1.
         22    1    1    2    0    0 -0.81017499924E+03  0.73043215344E+03  0.72597275586E+03  0.13103248080E+04  0.00000000000E+00 0. -1.
<mgrwt>
<rscale>  0 0.22085535E+04</rscale>
<asrwt>0</asrwt>
<pdfrwt beam="1">  1        2 0.36677588E+00 0.22085535E+04</pdfrwt>
<pdfrwt beam="2">  1       -2 0.78691599E-01 0.22085535E+04</pdfrwt>
<totfact> 0.53195459E+00</totfact>
</mgrwt>
</event>
<event>
 6    1  0.1719730E-005  0.3738852E+04  0.7818608E-02  0.8059406E-01
          2   -1    0    0  501    0  0.00000000000E+00  0.00000000000E+00  0.30848419723E+04  0.30848419723E+04  0.00000000000E+00 0.  1.
         -2   -1    0    0    0  501 -0.00000000000E+00 -0.00000000000E+00 -0.11328794242E+04  0.11328794242E+04  0.00000000000E+00 0. -1.
         23    2    1    2    0    0  0.14706055517E+04 -0.69348874296E+03 -0.61410684726E+02  0.16298112164E+04  0.94371625403E+02 0.  0.
         11    1    3    3    0    0  0.32206913585E+03 -0.15801552039E+03 -0.52399753612E+02  0.36255091660E+03  0.00000000000E+00 0. -1.
        -11    1    3    3    0    0  0.11485364159E+04 -0.53547322258E+03 -0.90109311136E+01  0.12672602998E+04  0.00000000000E+00 0.  1.
         22    1    1    2    0    0 -0.14706055517E+04  0.69348874296E+03  0.20133732328E+04  0.25879101801E+04  0.00000000000E+00 0.  1.
<mgrwt>
<rscale>  0 0.37388522E+04</rscale>
<asrwt>0</asrwt>
<pdfrwt beam="1">  1        2 0.47459107E+00 0.37388522E+04</pdfrwt>
<pdfrwt beam="2">  1       -2 0.17428914E+00 0.37388522E+04</pdfrwt>
<totfact> 0.24625476E-01</totfact>
</mgrwt>
</event>
<event>
 6    1  0.1568961E-005  0.2405261E+04  0.7818608E-02  0.8437537E-01
         -1   -1    0    0    0  501 -0.00000000000E+00  0.00000000000E+00  0.50529708282E+03  0.50529708282E+03  0.00000000000E+00 0.  1.
          1   -1    0    0  501    0  0.00000000000E+00 -0.00000000000E+00 -0.28623166813E+04  0.28623166813E+04  0.00000000000E+00 0. -1.
         23    2    1    2    0    0 -0.10019345713E+04  0.62231595973E+03 -0.86401700112E+03  0.14649296614E+04  0.91342738362E+02 0.  0.
         13    1    3    3    0    0 -0.66465955813E+03  0.38833228610E+03 -0.61023313307E+03  0.98232314914E+03  0.00000000000E+00 0.  1.
        -13    1    3    3    0    0 -0.33727501317E+03  0.23398367364E+03 -0.25378386805E+03  0.48260651231E+03  0.00000000000E+00 0. -1.
         22    1    1    2    0    0  0.10019345713E+04 -0.62231595973E+03 -0.14930025974E+04  0.19026841027E+04  0.00000000000E+00 0.  1.
<mgrwt>
<rscale>  0 0.24052611E+04</rscale>
<asrwt>0</asrwt>
<pdfrwt beam="1">  1        1 0.44035642E+00 0.24052611E+04</pdfrwt>
<pdfrwt beam="2">  1       -1 0.77738012E-01 0.24052611E+04</pdfrwt>
<totfact> 0.11168129E+00</totfact>
</mgrwt>
</event>
<event>
 6    1  0.1568961E-005  0.2938568E+04  0.7818608E-02  0.8261494E-01
          2   -1    0    0  501    0  0.00000000000E+00  0.00000000000E+00  0.50696349763E+04  0.50696349763E+04  0.00000000000E+00 0. -1.
         -2   -1    0    0    0  501 -0.00000000000E+00 -0.00000000000E+00 -0.42582870846E+03  0.42582870846E+03  0.00000000000E+00 0.  1.
         23    2    1    2    0    0  0.13361803354E+04 -0.60203804035E+03  0.24782527649E+04  0.28806119366E+04  0.91436709418E+02 0.  0.
         11    1    3    3    0    0  0.26778730899E+03 -0.12676194790E+03  0.57505616191E+03  0.64689119923E+03  0.00000000000E+00 0. -1.
        -11    1    3    3    0    0  0.10683930264E+04 -0.47527609245E+03  0.19031966030E+04  0.22337207374E+04  0.00000000000E+00 0.  1.
         22    1    1    2    0    0 -0.13361803354E+04  0.60203804035E+03  0.21655535030E+04  0.26148517482E+04  0.00000000000E+00 0.  1.
<mgrwt>
<rscale>  0 0.29385684E+04</rscale>
<asrwt>0</asrwt>
<pdfrwt beam="1">  1        2 0.77994380E+00 0.29385684E+04</pdfrwt>
<pdfrwt beam="2">  1       -2 0.65512113E-01 0.29385684E+04</pdfrwt>
<totfact> 0.51567078E-02</totfact>
</mgrwt>
</event>
<event>
 6    1  0.1568961E-005  0.9534855E+03  0.7818608E-02  0.9361086E-01
          2   -1    0    0  501    0  0.00000000000E+00  0.00000000000E+00  0.14158003235E+04  0.14158003235E+04  0.00000000000E+00 0. -1.
         -2   -1    0    0    0  501 -0.00000000000E+00 -0.00000000000E+00 -0.16053368105E+03  0.16053368105E+03  0.00000000000E+00 0.  1.
         23    2    1    2    0    0  0.40792046864E+03  0.93991260676E+02  0.27119876813E+03  0.50693087800E+03  0.90535503595E+02 0.  0.
         13    1    3    3    0    0  0.28812074304E+03  0.32135417972E+02  0.15391828100E+03  0.32823327815E+03  0.00000000000E+00 0.  1.
        -13    1    3    3    0    0  0.11979972561E+03  0.61855842704E+02  0.11728048712E+03  0.17869759985E+03  0.00000000000E+00 0. -1.
         22    1    1    2    0    0 -0.40792046864E+03 -0.93991260676E+02  0.98406787433E+03  0.10694031266E+04  0.00000000000E+00 0. -1.
<mgrwt>
<rscale>  0 0.95348547E+03</rscale>
<asrwt>0</asrwt>
<pdfrwt beam="1">  1        2 0.21781543E+00 0.95348547E+03</pdfrwt>
<pdfrwt beam="2">  1       -2 0.24697490E-01 0.95348547E+03</pdfrwt>
<totfact> 0.20775433E+02</totfact>
</mgrwt>
</event>
<event>
 6    1  0.1568961E-005  0.3394559E+04  0.7818608E-02  0.8139243E-01
          1   -1    0    0  501    0  0.00000000000E+00  0.00000000000E+00  0.12829186575E+04  0.12829186575E+04  0.00000000000E+00 0. -1.
         -1   -1    0    0    0  501 -0.00000000000E+00 -0.00000000000E+00 -0.22454717394E+04  0.22454717394E+04  0.00000000000E+00 0.  1.
         23    2    1    2    0    0 -0.16498041848E+04  0.34339379961E+03 -0.68135135694E+03  0.18199268884E+04  0.90116912270E+02 0.  0.
         11    1    3    3    0    0 -0.48364037970E+03  0.11075612161E+03 -0.24397500768E+03  0.55290029818E+03  0.00000000000E+00 0. -1.
        -11    1    3    3    0    0 -0.11661638051E+04  0.23263767800E+03 -0.43737634926E+03  0.12670265903E+04  0.00000000000E+00 0.  1.
         22    1    1    2    0    0  0.16498041848E+04 -0.34339379961E+03 -0.28120172497E+03  0.17084635085E+04  0.00000000000E+00 0. -1.
<mgrwt>
<rscale>  0 0.33945589E+04</rscale>
<asrwt>0</asrwt>
<pdfrwt beam="1">  1        1 0.19737210E+00 0.33945589E+04</pdfrwt>
<pdfrwt beam="2">  1       -1 0.34545719E+00 0.33945589E+04</pdfrwt>
<totfact> 0.12747426E-01</totfact>
</mgrwt>
</event>
<event>
 6    1  0.1568961E-005  0.1984045E+04  0.7818608E-02  0.8614117E-01
         -1   -1    0    0    0  501 -0.00000000000E+00  0.00000000000E+00  0.98642248873E+03  0.98642248873E+03  0.00000000000E+00 0.  1.
          1   -1    0    0  501    0  0.00000000000E+00 -0.00000000000E+00 -0.99765433158E+03  0.99765433158E+03  0.00000000000E+00 0. -1.
         23    2    1    2    0    0  0.13698373190E+03 -0.26750244558E+03  0.93764852091E+03  0.98873966842E+03  0.89996010729E+02 0.  0.
         11    1    3    3    0    0  0.10599543649E+03 -0.12549476540E+03  0.57628790399E+03  0.59924261947E+03  0.00000000000E+00 0. -1.
        -11    1    3    3    0    0  0.30988295403E+02 -0.14200768018E+03  0.36136061692E+03  0.38949704895E+03  0.00000000000E+00 0.  1.
         22    1    1    2    0    0 -0.13698373190E+03  0.26750244558E+03 -0.94888036376E+03  0.99533715189E+03  0.00000000000E+00 0. -1.
<mgrwt>
<rscale>  0 0.19840450E+04</rscale>
<asrwt>0</asrwt>
<pdfrwt beam="1">  1        1 0.15348528E+00 0.19840450E+04</pdfrwt>
<pdfrwt beam="2">  1       -1 0.15175731E+00 0.19840450E+04</pdfrwt>
<totfact> 0.47722767E+00</totfact>
</mgrwt>
</event>
<event>
 6    1  0.1568961E-005  0.2206236E+04  0.7818608E-02  0.8515837E-01
         -1   -1    0    0    0  501 -0.00000000000E+00  0.00000000000E+00  0.13236080938E+04  0.13236080938E+04  0.00000000000E+00 0.  1.
          1   -1    0    0  501    0  0.00000000000E+00 -0.00000000000E+00 -0.91935768841E+03  0.91935768841E+03  0.00000000000E+00 0. -1.
         23    2    1    2    0    0  0.53901525223E+03  0.29039832470E+03  0.11331186049E+04  0.12910637487E+04  0.89549993303E+02 0.  0.
         13    1    3    3    0    0  0.25357958736E+03  0.86677753577E+02  0.50325263203E+03  0.57015686590E+03  0.00000000000E+00 0.  1.
        -13    1    3    3    0    0  0.28543566487E+03  0.20372057113E+03  0.62986597285E+03  0.72090688278E+03  0.00000000000E+00 0. -1.
         22    1    1    2    0    0 -0.53901525223E+03 -0.29039832470E+03 -0.72886819951E+03  0.95190203350E+03  0.00000000000E+00 0. -1.
<mgrwt>
<rscale>  0 0.22062360E+04</rscale>
<asrwt>0</asrwt>
<pdfrwt beam="1">  1        1 0.14143964E+00 0.22062360E+04</pdfrwt>
<pdfrwt beam="2">  1       -1 0.20363201E+00 0.22062360E+04</pdfrwt>
<totfact> 0.22715662E+00</totfact>
</mgrwt>
</event>
<event>
 6    1  0.1568961E-005  0.1874083E+04  0.7818608E-02  0.8667866E-01
          1   -1    0    0  501    0  0.00000000000E+00  0.00000000000E+00  0.72290565196E+03  0.72290565196E+03  0.00000000000E+00 0. -1.
         -1   -1    0    0    0  501 -0.00000000000E+00 -0.00000000000E+00 -0.12146073747E+04  0.12146073747E+04  0.00000000000E+00 0.  1.
         23    2    1    2    0    0  0.51621854597E+03  0.73368986255E+03 -0.51786196940E+03  0.10400350269E+04  0.93324360135E+02 0.  0.
         11    1    3    3    0    0  0.11405909782E+03  0.21760304641E+03 -0.17256953595E+03  0.30023458885E+03  0.00000000000E+00 0. -1.
        -11    1    3    3    0    0  0.40215944815E+03  0.51608681614E+03 -0.34529243345E+03  0.73980043804E+03  0.00000000000E+00 0.  1.
         22    1    1    2    0    0 -0.51621854597E+03 -0.73368986255E+03  0.26160246627E+02  0.89747799980E+03  0.00000000000E+00 0.  1.
<mgrwt>
<rscale>  0 0.18740827E+04</rscale>
<asrwt>0</asrwt>
<pdfrwt beam="1">  1        1 0.11121625E+00 0.18740827E+04</pdfrwt>
<pdfrwt beam="2">  1       -1 0.18686267E+00 0.18740827E+04</pdfrwt>
<totfact> 0.45206597E+00</totfact>
</mgrwt>
</event>
<event>
 6    1  0.1568961E-005  0.3277679E+04  0.7818608E-02  0.8168598E-01
          1   -1    0    0  501    0  0.00000000000E+00  0.00000000000E+00  0.35362405710E+04  0.35362405710E+04  0.00000000000E+00 0. -1.
         -1   -1    0    0    0  501 -0.00000000000E+00 -0.00000000000E+00 -0.75950564874E+03  0.75950564874E+03  0.00000000000E+00 0.  1.
         23    2    1    2    0    0  0.14352052276E+04  0.78825338184E+03  0.14116292156E+04  0.21639228148E+04  0.93313808687E+02 0.  0.
         11    1    3    3    0    0  0.11663169358E+04  0.64257063330E+03  0.10985792700E+04  0.17262875271E+04  0.00000000000E+00 0. -1.
        -11    1    3    3    0    0  0.26888829180E+03  0.14568274854E+03  0.31304994553E+03  0.43763528776E+03  0.00000000000E+00 0.  1.
         22    1    1    2    0    0 -0.14352052276E+04 -0.78825338184E+03  0.13651057067E+04  0.21318234049E+04  0.00000000000E+00 0.  1.
<mgrwt>
<rscale>  0 0.32776789E+04</rscale>
<asrwt>0</asrwt>
<pdfrwt beam="1">  1        1 0.54403700E+00 0.32776789E+04</pdfrwt>
<pdfrwt beam="2">  1       -1 0.11684702E+00 0.32776789E+04</pdfrwt>
<totfact> 0.12824888E-01</totfact>
</mgrwt>
</event>
<event>
 6    1  0.1568961E-005  0.1320932E+04  0.7818608E-02  0.9013129E-01
         -2   -1    0    0    0  501 -0.00000000000E+00  0.00000000000E+00  0.52122424324E+03  0.52122424324E+03  0.00000000000E+00 0.  1.
          2   -1    0    0  501    0  0.00000000000E+00 -0.00000000000E+00 -0.83690524400E+03  0.83690524400E+03  0.00000000000E+00 0. -1.
         23    2    1    2    0    0  0.62793322210E+03  0.16565450542E+03 -0.54295138067E+02  0.65808369174E+03  0.91567662048E+02 0.  0.
         11    1    3    3    0    0  0.27278542740E+03  0.72186218623E+02 -0.69212714836E+02  0.29053939399E+03  0.00000000000E+00 0.  1.
        -11    1    3    3    0    0  0.35514779470E+03  0.93468286797E+02  0.14917576768E+02  0.36754429775E+03  0.00000000000E+00 0. -1.
         22    1    1    2    0    0 -0.62793322210E+03 -0.16565450542E+03 -0.26138586269E+03  0.70004579550E+03  0.00000000000E+00 0.  1.
<mgrwt>
<rscale>  0 0.13209319E+04</rscale>
<asrwt>0</asrwt>
<pdfrwt beam="1">  1        2 0.12875465E+00 0.13209319E+04</pdfrwt>
<pdfrwt beam="2">  1       -2 0.80188347E-01 0.13209319E+04</pdfrwt>
<totfact> 0.43644420E+01</totfact>
</mgrwt>
</event>
<event>
 6    1  0.1568961E-005  0.1585050E+04  0.7818608E-02  0.8829786E-01
          2   -1    0    0  501    0  0.00000000000E+00  0.00000000000E+00  0.44023771270E+03  0.44023771270E+03  0.00000000000E+00 0. -1.
         -2   -1    0    0    0  501 -0.00000000000E+00 -0.00000000000E+00 -0.14267193636E+04  0.14267193636E+04  0.00000000000E+00 0.  1.
         23    2    1    2    0    0 -0.49083981601E+03 -0.48097706719E+03 -0.36181269902E+02  0.69421094936E+03  0.91417141526E+02 0.  0.
         11    1    3    3    0    0 -0.20147023776E+03 -0.17455856602E+03 -0.55585475304E+02  0.27230625174E+03  0.00000000000E+00 0. -1.
        -11    1    3    3    0    0 -0.28936957825E+03 -0.30641850118E+03  0.19404205402E+02  0.42190469761E+03  0.00000000000E+00 0.  1.
         22    1    1    2    0    0  0.49083981601E+03  0.48097706719E+03 -0.95030038102E+03  0.11727461270E+04  0.00000000000E+00 0.  1.
<mgrwt>
<rscale>  0 0.15850497E+04</rscale>
<asrwt>0</asrwt>
<pdfrwt beam="1">  1        2 0.67728879E-01 0.15850497E+04</pdfrwt>
<pdfrwt beam="2">  1       -2 0.21949529E+00 0.15850497E+04</pdfrwt>
<totfact> 0.68121062E+00</totfact>
</mgrwt>
</event>
<event>
 6    1  0.1568961E-005  0.1428897E+04  0.7818608E-02  0.8933163E-01
          2   -1    0    0  501    0  0.00000000000E+00  0.00000000000E+00  0.15913031738E+04  0.15913031738E+04  0.00000000000E+00 0. -1.
         -2   -1    0    0    0  501 -0.00000000000E+00 -0.00000000000E+00 -0.32076658519E+03  0.32076658519E+03  0.00000000000E+00 0.  1.
         23    2    1    2    0    0 -0.52075883565E+03  0.28073297796E+03  0.11669817610E+04  0.13114664189E+04  0.89983150716E+02 0.  0.
         13    1    3    3    0    0 -0.13336807655E+03  0.64119249114E+02  0.38256315757E+03  0.41018641065E+03  0.00000000000E+00 0. -1.
        -13    1    3    3    0    0 -0.38739075910E+03  0.21661372884E+03  0.78441860347E+03  0.90128000822E+03  0.00000000000E+00 0.  1.
         22    1    1    2    0    0  0.52075883565E+03 -0.28073297796E+03  0.10355482754E+03  0.60060334009E+03  0.00000000000E+00 0.  1.
<mgrwt>
<rscale>  0 0.14288973E+04</rscale>
<asrwt>0</asrwt>
<pdfrwt beam="1">  1        2 0.24481587E+00 0.14288973E+04</pdfrwt>
<pdfrwt beam="2">  1       -2 0.49348706E-01 0.14288973E+04</pdfrwt>
<totfact> 0.42567426E+01</totfact>
</mgrwt>
</event>
<event>
 6    1  0.1568961E-005  0.2215225E+04  0.7818608E-02  0.8512118E-01
          2   -1    0    0  501    0  0.00000000000E+00  0.00000000000E+00  0.18674621400E+04  0.18674621400E+04  0.00000000000E+00 0. -1.
         -2   -1    0    0    0  501 -0.00000000000E+00 -0.00000000000E+00 -0.65693753501E+03  0.65693753501E+03  0.00000000000E+00 0.  1.
         23    2    1    2    0    0 -0.55942794872E+03  0.83999197803E+03  0.11210023066E+04  0.15112065074E+04  0.92481261119E+02 0.  0.
         11    1    3    3    0    0 -0.27693407827E+03  0.36803882712E+03  0.45498073424E+03  0.64741990278E+03  0.00000000000E+00 0. -1.
        -11    1    3    3    0    0 -0.28249387045E+03  0.47195315091E+03  0.66602157237E+03  0.86378660464E+03  0.00000000000E+00 0.  1.
         22    1    1    2    0    0  0.55942794872E+03 -0.83999197803E+03  0.89522298389E+02  0.10131931676E+04  0.00000000000E+00 0.  1.
<mgrwt>
<rscale>  0 0.22152255E+04</rscale>
<asrwt>0</asrwt>
<pdfrwt beam="1">  1        2 0.28730187E+00 0.22152255E+04</pdfrwt>
<pdfrwt beam="2">  1       -2 0.10106731E+00 0.22152255E+04</pdfrwt>
<totfact> 0.58201096E+00</totfact>
</mgrwt>
</event>
<event>
 6    1  0.1568961E-005  0.2422560E+04  0.7818608E-02  0.8431105E-01
          2   -1    0    0  501    0  0.00000000000E+00  0.00000000000E+00  0.15758821423E+04  0.15758821423E+04  0.00000000000E+00 0. -1.
         -2   -1    0    0    0  501 -0.00000000000E+00 -0.00000000000E+00 -0.93103392554E+03  0.93103392554E+03  0.00000000000E+00 0.  1.
         23    2    1    2    0    0 -0.42052852255E+03 -0.11000076102E+04  0.37660933870E+02  0.11819491334E+04  0.93404642540E+02 0.  0.
         11    1    3    3    0    0 -0.36320960343E+03 -0.99262167816E+03  0.95939733962E+01  0.10570293545E+04  0.00000000000E+00 0. -1.
        -11    1    3    3    0    0 -0.57318919122E+02 -0.10738593206E+03  0.28066960474E+02  0.12491977891E+03  0.00000000000E+00 0.  1.
         22    1    1    2    0    0  0.42052852255E+03  0.11000076102E+04  0.60718728293E+03  0.13249669344E+04  0.00000000000E+00 0. -1.
<mgrwt>
<rscale>  0 0.24225604E+04</rscale>
<asrwt>0</asrwt>
<pdfrwt beam="1">  1        2 0.24244341E+00 0.24225604E+04</pdfrwt>
<pdfrwt beam="2">  1       -2 0.14323599E+00 0.24225604E+04</pdfrwt>
<totfact> 0.34946110E+00</totfact>
</mgrwt>
</event>
<event>
 6    1  0.1568961E-005  0.1087641E+04  0.7818608E-02  0.9217322E-01
         -1   -1    0    0    0  501 -0.00000000000E+00  0.00000000000E+00  0.84859678282E+02  0.84859678282E+02  0.00000000000E+00 0.  1.
          1   -1    0    0  501    0  0.00000000000E+00 -0.00000000000E+00 -0.34850591970E+04  0.34850591970E+04  0.00000000000E+00 0. -1.
         23    2    1    2    0    0  0.39566253985E+03 -0.27404239083E+03 -0.25156562647E+04  0.25629110076E+04  0.91314364675E+02 0.  0.
         11    1    3    3    0    0  0.15651198793E+03 -0.16375391492E+03 -0.11704084484E+04  0.11921272093E+04  0.00000000000E+00 0.  1.
        -11    1    3    3    0    0  0.23915055191E+03 -0.11028847591E+03 -0.13452478163E+04  0.13707837983E+04  0.00000000000E+00 0. -1.
         22    1    1    2    0    0 -0.39566253985E+03  0.27404239083E+03 -0.88454325404E+03  0.10070078677E+04  0.00000000000E+00 0.  1.
<mgrwt>
<rscale>  0 0.10876415E+04</rscale>
<asrwt>0</asrwt>
<pdfrwt beam="1">  1        1 0.53616303E+00 0.10876415E+04</pdfrwt>
<pdfrwt beam="2">  1       -1 0.13055333E-01 0.10876415E+04</pdfrwt>
<totfact> 0.10859808E+01</totfact>
</mgrwt>
</event>
<event>
 6    1  0.1568961E-005  0.2827580E+04  0.7818608E-02  0.8294757E-01
          1   -1    0    0  501    0  0.00000000000E+00  0.00000000000E+00  0.16524865377E+04  0.16524865377E+04  0.00000000000E+00 0. -1.
         -1   -1    0    0    0  501 -0.00000000000E+00 -0.00000000000E+00 -0.12095727143E+04  0.12095727143E+04  0.00000000000E+00 0.  1.
         23    2    1    2    0    0  0.12964151718E+04 -0.47646250595E+03 -0.76464373774E+02  0.13864364923E+04  0.93008222264E+02 0.  0.
         13    1    3    3    0    0  0.37822633377E+03 -0.12514601803E+03  0.18036572344E+02  0.39880070627E+03  0.00000000000E+00 0. -1.
        -13    1    3    3    0    0  0.91818883803E+03 -0.35131648792E+03 -0.94500946118E+02  0.98763578600E+03  0.00000000000E+00 0.  1.
         22    1    1    2    0    0 -0.12964151718E+04  0.47646250595E+03  0.51937819723E+03  0.14756227597E+04  0.00000000000E+00 0. -1.
<mgrwt>
<rscale>  0 0.28275803E+04</rscale>
<asrwt>0</asrwt>
<pdfrwt beam="1">  1        1 0.25422870E+00 0.28275803E+04</pdfrwt>
<pdfrwt beam="2">  1       -1 0.18608811E+00 0.28275803E+04</pdfrwt>
<totfact> 0.83532392E-01</totfact>
</mgrwt>
</event>
<event>
 6    1  0.1568961E-005  0.1995028E+04  0.7818608E-02  0.8608949E-01
          2   -1    0    0  501    0  0.00000000000E+00  0.00000000000E+00  0.16628661786E+04  0.16628661786E+04  0.00000000000E+00 0. -1.
         -2   -1    0    0    0  501 -0.00000000000E+00 -0.00000000000E+00 -0.59838511423E+03  0.59838511423E+03  0.00000000000E+00 0.  1.
         23    2    1    2    0    0 -0.21453317800E+03  0.38882203833E+03 -0.47680237248E+03  0.65726822101E+03  0.86336261235E+02 0.  0.
         13    1    3    3    0    0 -0.17464368411E+03  0.28927263334E+03 -0.30760688087E+03  0.45694755274E+03  0.00000000000E+00 0.  1.
        -13    1    3    3    0    0 -0.39889493884E+02  0.99549404990E+02 -0.16919549161E+03  0.20032066827E+03  0.00000000000E+00 0. -1.
         22    1    1    2    0    0  0.21453317800E+03 -0.38882203833E+03  0.15412834368E+04  0.16039830718E+04  0.00000000000E+00 0. -1.
<mgrwt>
<rscale>  0 0.19950282E+04</rscale>
<asrwt>0</asrwt>
<pdfrwt beam="1">  1        2 0.25582556E+00 0.19950282E+04</pdfrwt>
<pdfrwt beam="2">  1       -2 0.92059249E-01 0.19950282E+04</pdfrwt>
<totfact> 0.95872229E+00</totfact>
</mgrwt>
</event>
<event>
 6    1  0.1568961E-005  0.3285140E+04  0.7818608E-02  0.8166687E-01
          2   -1    0    0  501    0  0.00000000000E+00  0.00000000000E+00  0.16734454337E+04  0.16734454337E+04  0.00000000000E+00 0. -1.
         -2   -1    0    0    0  501 -0.00000000000E+00 -0.00000000000E+00 -0.16122641156E+04  0.16122641156E+04  0.00000000000E+00 0.  1.
         23    2    1    2    0    0  0.15066811868E+04 -0.51943379740E+03 -0.36182140272E+03  0.16368217513E+04  0.91493439059E+02 0.  0.
         11    1    3    3    0    0  0.93657382855E+03 -0.30293462860E+03 -0.26458872838E+03  0.10192875555E+04  0.00000000000E+00 0. -1.
        -11    1    3    3    0    0  0.57010735826E+03 -0.21649916880E+03 -0.97232674337E+02  0.61753419581E+03  0.00000000000E+00 0.  1.
         22    1    1    2    0    0 -0.15066811868E+04  0.51943379740E+03  0.42300272089E+03  0.16488877980E+04  0.00000000000E+00 0. -1.
<mgrwt>
<rscale>  0 0.32851399E+04</rscale>
<asrwt>0</asrwt>
<pdfrwt beam="1">  1        2 0.25745314E+00 0.32851399E+04</pdfrwt>
<pdfrwt beam="2">  1       -2 0.24804063E+00 0.32851399E+04</pdfrwt>
<totfact> 0.56064060E-01</totfact>
</mgrwt>
</event>
<event>
 6    1  0.1568961E-005  0.9971952E+03  0.7818608E-02  0.9311626E-01
         -2   -1    0    0    0  501 -0.00000000000E+00  0.00000000000E+00  0.14563150972E+03  0.14563150972E+03  0.00000000000E+00 0.  1.
          2   -1    0    0  501    0  0.00000000000E+00 -0.00000000000E+00 -0.17070451348E+04  0.17070451348E+04  0.00000000000E+00 0. -1.
         23    2    1    2    0    0  0.18330351008E+02  0.32094352991E+03 -0.14852547309E+04  0.15223118033E+04  0.90060310476E+02 0.  0.
         11    1    3    3    0    0 -0.26974844581E+02  0.22257628873E+03 -0.93553692568E+03  0.96202764298E+03  0.00000000000E+00 0. -1.
        -11    1    3    3    0    0  0.45305195590E+02  0.98367241174E+02 -0.54971780525E+03  0.56028416031E+03  0.00000000000E+00 0.  1.
         22    1    1    2    0    0 -0.18330351008E+02 -0.32094352991E+03 -0.76158894130E+02  0.33036484122E+03  0.00000000000E+00 0.  1.
<mgrwt>
<rscale>  0 0.99719519E+03</rscale>
<asrwt>0</asrwt>
<pdfrwt beam="1">  1        2 0.26262233E+00 0.99719519E+03</pdfrwt>
<pdfrwt beam="2">  1       -2 0.22404847E-01 0.99719519E+03</pdfrwt>
<totfact> 0.16969708E+02</totfact>
</mgrwt>
</event>
<event>
 6    1  0.1568961E-005  0.1193465E+04  0.7818608E-02  0.9118596E-01
         -1   -1    0    0    0  501 -0.00000000000E+00  0.00000000000E+00  0.33078206538E+03  0.33078206538E+03  0.00000000000E+00 0.  1.
          1   -1    0    0  501    0  0.00000000000E+00 -0.00000000000E+00 -0.10765076853E+04  0.10765076853E+04  0.00000000000E+00 0. -1.
         23    2    1    2    0    0 -0.28162781793E+03 -0.36972159233E+03  0.57167874941E+02  0.47957953313E+03  0.10353781437E+03 0.  0.
         11    1    3    3    0    0 -0.14631176951E+03 -0.17039631896E+03  0.78027718341E+02  0.23776114956E+03  0.00000000000E+00 0. -1.
        -11    1    3    3    0    0 -0.13531604842E+03 -0.19932527337E+03 -0.20859843400E+02  0.24181838357E+03  0.00000000000E+00 0.  1.
         22    1    1    2    0    0  0.28162781793E+03  0.36972159233E+03 -0.80289349490E+03  0.92771021759E+03  0.00000000000E+00 0. -1.
<mgrwt>
<rscale>  0 0.11934646E+04</rscale>
<asrwt>0</asrwt>
<pdfrwt beam="1">  1        1 0.16561657E+00 0.11934646E+04</pdfrwt>
<pdfrwt beam="2">  1       -1 0.50889548E-01 0.11934646E+04</pdfrwt>
<totfact> 0.50745245E+01</totfact>
</mgrwt>
</event>
<event>
 6    1  0.1568961E-005  0.3303474E+04  0.7818608E-02  0.8162012E-01
         -2   -1    0    0    0  501 -0.00000000000E+00  0.00000000000E+00  0.89406899614E+03  0.89406899614E+03  0.00000000000E+00 0.  1.
          2   -1    0    0  501    0  0.00000000000E+00 -0.00000000000E+00 -0.30514820866E+04  0.30514820866E+04  0.00000000000E+00 0. -1.
         23    2    1    2    0    0  0.70382087220E+03  0.19839239341E+03  0.68704952725E+03  0.10085984196E+04  0.10252003328E+03 0.  0.
         11    1    3    3    0    0  0.55032753888E+03  0.19713624404E+03  0.53174110344E+03  0.79023521805E+03  0.00000000000E+00 0. -1.
        -11    1    3    3    0    0  0.15349333332E+03  0.12561493739E+01  0.15530842381E+03  0.21836320155E+03  0.00000000000E+00 0.  1.
         22    1    1    2    0    0 -0.70382087220E+03 -0.19839239341E+03 -0.28444626177E+04  0.29369526631E+04  0.00000000000E+00 0. -1.
<mgrwt>
<rscale>  0 0.33034742E+04</rscale>
<asrwt>0</asrwt>
<pdfrwt beam="1">  1        2 0.46945878E+00 0.33034742E+04</pdfrwt>
<pdfrwt beam="2">  1       -2 0.13754908E+00 0.33034742E+04</pdfrwt>
<totfact> 0.50687024E-01</totfact>
</mgrwt>
</event>
<event>
 6    1  0.1568961E-005  0.2345453E+04  0.7818608E-02  0.8460212E-01
         -2   -1    0    0    0  501 -0.00000000000E+00  0.00000000000E+00  0.78996676933E+03  0.78996676933E+03  0.00000000000E+00 0.  1.
          2   -1    0    0  501    0  0.00000000000E+00 -0.00000000000E+00 -0.17409436460E+04  0.17409436460E+04  0.00000000000E+00 0. -1.
         23    2    1    2    0    0  0.64845585122E+03  0.11740193756E+03  0.56740092677E+03  0.87569158994E+03  0.10302302204E+03 0.  0.
         11    1    3    3    0    0  0.87178644281E+02  0.51535736553E+02  0.99940480282E+02  0.14228193054E+03  0.00000000000E+00 0. -1.
        -11    1    3    3    0    0  0.56127720694E+03  0.65866201009E+02  0.46746044648E+03  0.73340965940E+03  0.00000000000E+00 0.  1.
         22    1    1    2    0    0 -0.64845585122E+03 -0.11740193756E+03 -0.15183778034E+04  0.16552188254E+04  0.00000000000E+00 0. -1.
<mgrwt>
<rscale>  0 0.23454532E+04</rscale>
<asrwt>0</asrwt>
<pdfrwt beam="1">  1        2 0.26783748E+00 0.23454532E+04</pdfrwt>
<pdfrwt beam="2">  1       -2 0.12153335E+00 0.23454532E+04</pdfrwt>
<totfact> 0.43248146E+00</totfact>
</mgrwt>
</event>
<event>
 6    1  0.1568961E-005  0.2295155E+04  0.7818608E-02  0.8479834E-01
         -1   -1    0    0    0  501 -0.00000000000E+00  0.00000000000E+00  0.93829648671E+03  0.93829648671E+03  0.00000000000E+00 0.  1.
          1   -1    0    0  501    0  0.00000000000E+00 -0.00000000000E+00 -0.14035368572E+04  0.14035368572E+04  0.00000000000E+00 0. -1.
         23    2    1    2    0    0  0.47064260100E+03 -0.57125461088E+03 -0.11255137273E+04  0.13499678319E+04  0.88293309507E+02 0.  0.
         13    1    3    3    0    0  0.11005182579E+03 -0.17271354403E+03 -0.25716600282E+03  0.32874872723E+03  0.00000000000E+00 0.  1.
        -13    1    3    3    0    0  0.36059077521E+03 -0.39854106685E+03 -0.86834772444E+03  0.10212191046E+04  0.00000000000E+00 0. -1.
         22    1    1    2    0    0 -0.47064260100E+03  0.57125461088E+03  0.66027335676E+03  0.99186551204E+03  0.00000000000E+00 0.  1.
<mgrwt>
<rscale>  0 0.22951546E+04</rscale>
<asrwt>0</asrwt>
<pdfrwt beam="1">  1        1 0.21592875E+00 0.22951546E+04</pdfrwt>
<pdfrwt beam="2">  1       -1 0.14435331E+00 0.22951546E+04</pdfrwt>
<totfact> 0.26709639E+00</totfact>
</mgrwt>
</event>
<event>
 6    1  0.1568961E-005  0.2687390E+04  0.7818608E-02  0.8339108E-01
          1   -1    0    0  501    0  0.00000000000E+00  0.00000000000E+00  0.17821701806E+04  0.17821701806E+04  0.00000000000E+00 0. -1.
         -1   -1    0    0    0  501 -0.00000000000E+00 -0.00000000000E+00 -0.10131001414E+04  0.10131001414E+04  0.00000000000E+00 0.  1.
         23    2    1    2    0    0 -0.10924006995E+04  0.35769615762E+03 -0.33582108149E+03  0.12008832242E+04  0.89771320139E+02 0.  0.
         11    1    3    3    0    0 -0.60820420575E+03  0.21240738675E+03 -0.14353634801E+03  0.66002419428E+03  0.00000000000E+00 0. -1.
        -11    1    3    3    0    0 -0.48419649371E+03  0.14528877087E+03 -0.19228473348E+03  0.54085902987E+03  0.00000000000E+00 0.  1.
         22    1    1    2    0    0  0.10924006995E+04 -0.35769615762E+03  0.11048911207E+04  0.15943870979E+04  0.00000000000E+00 0. -1.
<mgrwt>
<rscale>  0 0.26873905E+04</rscale>
<asrwt>0</asrwt>
<pdfrwt beam="1">  1        1 0.27418003E+00 0.26873905E+04</pdfrwt>
<pdfrwt beam="2">  1       -1 0.15586156E+00 0.26873905E+04</pdfrwt>
<totfact> 0.11509054E+00</totfact>
</mgrwt>
</event>
<event>
 6    1  0.1568961E-005  0.1879423E+04  0.7818608E-02  0.8665167E-01
         -2   -1    0    0    0  501 -0.00000000000E+00  0.00000000000E+00  0.60349100784E+03  0.60349100784E+03  0.00000000000E+00 0.  1.
          2   -1    0    0  501    0  0.00000000000E+00 -0.00000000000E+00 -0.14632491438E+04  0.14632491438E+04  0.00000000000E+00 0. -1.
         23    2    1    2    0    0 -0.71161253615E+03  0.60061955023E+03 -0.55061489130E+03  0.10855644327E+04  0.90206060301E+02 0.  0.
         11    1    3    3    0    0 -0.15026854871E+03  0.17728326150E+03 -0.14296743907E+03  0.27285468692E+03  0.00000000000E+00 0. -1.
        -11    1    3    3    0    0 -0.56134398744E+03  0.42333628873E+03 -0.40764745223E+03  0.81270974579E+03  0.00000000000E+00 0.  1.
         22    1    1    2    0    0  0.71161253615E+03 -0.60061955023E+03 -0.30914324466E+03  0.98117571894E+03  0.00000000000E+00 0. -1.
<mgrwt>
<rscale>  0 0.18794230E+04</rscale>
<asrwt>0</asrwt>
<pdfrwt beam="1">  1        2 0.22511525E+00 0.18794230E+04</pdfrwt>
<pdfrwt beam="2">  1       -2 0.92844772E-01 0.18794230E+04</pdfrwt>
<totfact> 0.12284795E+01</totfact>
</mgrwt>
</event>
<event>
 6    1  0.1568961E-005  0.8927819E+03  0.7818608E-02  0.9434650E-01
         -2   -1    0    0    0  501 -0.00000000000E+00  0.00000000000E+00  0.15190324780E+03  0.15190324780E+03  0.00000000000E+00 0.  1.
          2   -1    0    0  501    0  0.00000000000E+00 -0.00000000000E+00 -0.13117881488E+04  0.13117881488E+04  0.00000000000E+00 0. -1.
         23    2    1    2    0    0 -0.12158867650E+03 -0.40912412999E+03 -0.77193224560E+03  0.88691273643E+03  0.92565923805E+02 0.  0.
         11    1    3    3    0    0 -0.99312836340E+01 -0.18399697829E+03 -0.35895759661E+03  0.40348986923E+03  0.00000000000E+00 0. -1.
        -11    1    3    3    0    0 -0.11165739286E+03 -0.22512715171E+03 -0.41297464899E+03  0.48342286720E+03  0.00000000000E+00 0.  1.
         22    1    1    2    0    0  0.12158867650E+03  0.40912412999E+03 -0.38795265538E+03  0.57677866016E+03  0.00000000000E+00 0.  1.
<mgrwt>
<rscale>  0 0.89278190E+03</rscale>
<asrwt>0</asrwt>
<pdfrwt beam="1">  1        2 0.20181357E+00 0.89278190E+03</pdfrwt>
<pdfrwt beam="2">  1       -2 0.23369729E-01 0.89278190E+03</pdfrwt>
<totfact> 0.26413419E+02</totfact>
</mgrwt>
</event>
<event>
 6    1  0.1568961E-005  0.7879036E+03  0.7818608E-02  0.9577693E-01
          2   -1    0    0  501    0  0.00000000000E+00  0.00000000000E+00  0.32939027509E+03  0.32939027509E+03  0.00000000000E+00 0. -1.
         -2   -1    0    0    0  501 -0.00000000000E+00 -0.00000000000E+00 -0.47116755364E+03  0.47116755364E+03  0.00000000000E+00 0.  1.
         23    2    1    2    0    0 -0.32345147491E+02 -0.33195396800E+03  0.13105471651E+03  0.36965535373E+03  0.90719878660E+02 0.  0.
         11    1    3    3    0    0 -0.57305517207E+02 -0.13994354340E+03  0.69947739602E+02  0.16661573731E+03  0.00000000000E+00 0.  1.
        -11    1    3    3    0    0  0.24960369717E+02 -0.19201042460E+03  0.61106976905E+02  0.20303961642E+03  0.00000000000E+00 0. -1.
         22    1    1    2    0    0  0.32345147491E+02  0.33195396800E+03 -0.27283199505E+03  0.43090247500E+03  0.00000000000E+00 0.  1.
<mgrwt>
<rscale>  0 0.78790357E+03</rscale>
<asrwt>0</asrwt>
<pdfrwt beam="1">  1        2 0.50675427E-01 0.78790357E+03</pdfrwt>
<pdfrwt beam="2">  1       -2 0.72487315E-01 0.78790357E+03</pdfrwt>
<totfact> 0.17167103E+02</totfact>
</mgrwt>
</event>
<event>
 6    1  0.1568961E-005  0.1337369E+04  0.7818608E-02  0.9000445E-01
         -4   -1    0    0    0  501 -0.00000000000E+00  0.00000000000E+00  0.24786766389E+03  0.24786766389E+03  0.00000000000E+00 0. -1.
          4   -1    0    0  501    0  0.00000000000E+00 -0.00000000000E+00 -0.18039433109E+04  0.18039433109E+04  0.00000000000E+00 0.  1.
         23    2    1    2    0    0 -0.92363496709E+02 -0.52202044318E+03 -0.16460910277E+03  0.56277924163E+03  0.92671243997E+02 0.  0.
         13    1    3    3    0    0  0.23138497231E+01 -0.23981627245E+03 -0.87504716226E+02  0.25529252593E+03  0.00000000000E+00 0. -1.
        -13    1    3    3    0    0 -0.94677346432E+02 -0.28220417073E+03 -0.77104386548E+02  0.30748671570E+03  0.00000000000E+00 0.  1.
         22    1    1    2    0    0  0.92363496709E+02  0.52202044318E+03 -0.13914665442E+04  0.14890317331E+04  0.00000000000E+00 0.  1.
<mgrwt>
<rscale>  0 0.13373694E+04</rscale>
<asrwt>0</asrwt>
<pdfrwt beam="1">  1        4 0.27752974E+00 0.13373694E+04</pdfrwt>
<pdfrwt beam="2">  1       -4 0.38133487E-01 0.13373694E+04</pdfrwt>
<totfact> 0.56269448E-01</totfact>
</mgrwt>
</event>
<event>
 6    1  0.1568961E-005  0.3905919E+03  0.7818608E-02  0.1047087E+00
          1   -1    0    0  501    0  0.00000000000E+00  0.00000000000E+00  0.14863686606E+04  0.14863686606E+04  0.00000000000E+00 0.  1.
         -1   -1    0    0    0  501 -0.00000000000E+00 -0.00000000000E+00 -0.25660193825E+02  0.25660193825E+02  0.00000000000E+00 0. -1.
         23    2    1    2    0    0  0.15528984656E+03  0.75334627927E+02  0.10283252618E+04  0.10464695364E+04  0.88630717340E+02 0.  0.
         11    1    3    3    0    0  0.10456984852E+03  0.91737712820E+02  0.67927928435E+03  0.69337652637E+03  0.00000000000E+00 0. -1.
        -11    1    3    3    0    0  0.50719998037E+02 -0.16403084892E+02  0.34904597744E+03  0.35309301007E+03  0.00000000000E+00 0.  1.
         22    1    1    2    0    0 -0.15528984656E+03 -0.75334627927E+02  0.43238320501E+03  0.46555931801E+03  0.00000000000E+00 0. -1.
<mgrwt>
<rscale>  0 0.39059190E+03</rscale>
<asrwt>0</asrwt>
<pdfrwt beam="1">  1        1 0.22867204E+00 0.39059190E+03</pdfrwt>
<pdfrwt beam="2">  1       -1 0.39477233E-02 0.39059190E+03</pdfrwt>
<totfact> 0.18281401E+03</totfact>
</mgrwt>
</event>
<event>
 6    1  0.1568961E-005  0.2502635E+04  0.7818608E-02  0.8402047E-01
         -1   -1    0    0    0  501 -0.00000000000E+00  0.00000000000E+00  0.10167754836E+04  0.10167754836E+04  0.00000000000E+00 0.  1.
          1   -1    0    0  501    0  0.00000000000E+00 -0.00000000000E+00 -0.15399617594E+04  0.15399617594E+04  0.00000000000E+00 0. -1.
         23    2    1    2    0    0  0.11507913991E+04 -0.48636933176E+03 -0.28903744472E+03  0.12856347113E+04  0.91858561303E+02 0.  0.
         11    1    3    3    0    0  0.70589444880E+03 -0.28921618565E+03 -0.22146153582E+03  0.79434135404E+03  0.00000000000E+00 0.  1.
        -11    1    3    3    0    0  0.44489695033E+03 -0.19715314611E+03 -0.67575908898E+02  0.49129335727E+03  0.00000000000E+00 0. -1.
         22    1    1    2    0    0 -0.11507913991E+04  0.48636933176E+03 -0.23414883110E+03  0.12711025318E+04  0.00000000000E+00 0. -1.
<mgrwt>
<rscale>  0 0.25026349E+04</rscale>
<asrwt>0</asrwt>
<pdfrwt beam="1">  1        1 0.23691719E+00 0.25026349E+04</pdfrwt>
<pdfrwt beam="2">  1       -1 0.15642700E+00 0.25026349E+04</pdfrwt>
<totfact> 0.16964378E+00</totfact>
</mgrwt>
</event>
<event>
 6    1  0.1568961E-005  0.3524775E+04  0.7818608E-02  0.8107943E-01
          1   -1    0    0  501    0  0.00000000000E+00  0.00000000000E+00  0.40527079304E+04  0.40527079304E+04  0.00000000000E+00 0. -1.
         -1   -1    0    0    0  501 -0.00000000000E+00 -0.00000000000E+00 -0.76640371813E+03  0.76640371813E+03  0.00000000000E+00 0.  1.
         23    2    1    2    0    0  0.13689963895E+04  0.99321494818E+03  0.97290785863E+03  0.19533779315E+04  0.92242042258E+02 0.  0.
         11    1    3    3    0    0  0.75954044931E+03  0.59662198030E+03  0.52393886303E+03  0.10988045384E+04  0.00000000000E+00 0. -1.
        -11    1    3    3    0    0  0.60945594017E+03  0.39659296787E+03  0.44896899560E+03  0.85457339309E+03  0.00000000000E+00 0.  1.
         22    1    1    2    0    0 -0.13689963895E+04 -0.99321494818E+03  0.23133963537E+04  0.28657337170E+04  0.00000000000E+00 0. -1.
<mgrwt>
<rscale>  0 0.35247754E+04</rscale>
<asrwt>0</asrwt>
<pdfrwt beam="1">  1        1 0.62349352E+00 0.35247754E+04</pdfrwt>
<pdfrwt beam="2">  1       -1 0.11790827E+00 0.35247754E+04</pdfrwt>
<totfact> 0.45212120E-02</totfact>
</mgrwt>
</event>
<event>
 6    1  0.1568961E-005  0.1126359E+04  0.7818608E-02  0.9179875E-01
         -1   -1    0    0    0  501 -0.00000000000E+00  0.00000000000E+00  0.17130266684E+03  0.17130266684E+03  0.00000000000E+00 0.  1.
          1   -1    0    0  501    0  0.00000000000E+00 -0.00000000000E+00 -0.18515251801E+04  0.18515251801E+04  0.00000000000E+00 0. -1.
         23    2    1    2    0    0  0.53120420323E+02 -0.21136628617E+03 -0.17707840856E+04  0.17868217361E+04  0.97765805316E+02 0.  0.
         11    1    3    3    0    0  0.60470965090E+02 -0.56540350392E+02 -0.53815461291E+03  0.54448501929E+03  0.00000000000E+00 0. -1.
        -11    1    3    3    0    0 -0.73505447668E+01 -0.15482593578E+03 -0.12326294727E+04  0.12423367168E+04  0.00000000000E+00 0.  1.
         22    1    1    2    0    0 -0.53120420323E+02  0.21136628617E+03  0.90561572336E+02  0.23600611087E+03  0.00000000000E+00 0.  1.
<mgrwt>
<rscale>  0 0.11263591E+04</rscale>
<asrwt>0</asrwt>
<pdfrwt beam="1">  1        1 0.28485001E+00 0.11263591E+04</pdfrwt>
<pdfrwt beam="2">  1       -1 0.26354258E-01 0.11263591E+04</pdfrwt>
<totfact> 0.47887753E+01</totfact>
</mgrwt>
</event>
<event>
 6    1  0.1568961E-005  0.1196581E+04  0.7818608E-02  0.9115855E-01
          2   -1    0    0  501    0  0.00000000000E+00  0.00000000000E+00  0.23620346667E+03  0.23620346667E+03  0.00000000000E+00 0. -1.
         -2   -1    0    0    0  501 -0.00000000000E+00 -0.00000000000E+00 -0.15154364136E+04  0.15154364136E+04  0.00000000000E+00 0.  1.
         23    2    1    2    0    0 -0.43293290801E+03  0.40778483641E+03 -0.65013058196E+03  0.88590945963E+03  0.91904414546E+02 0.  0.
         11    1    3    3    0    0 -0.20608436110E+03  0.25265407199E+03 -0.37732701446E+03  0.49867877419E+03  0.00000000000E+00 0. -1.
        -11    1    3    3    0    0 -0.22684854691E+03  0.15513076442E+03 -0.27280356750E+03  0.38723068544E+03  0.00000000000E+00 0.  1.
         22    1    1    2    0    0  0.43293290801E+03 -0.40778483641E+03 -0.62910236500E+03  0.86573042068E+03  0.00000000000E+00 0.  1.
<mgrwt>
<rscale>  0 0.11965807E+04</rscale>
<asrwt>0</asrwt>
<pdfrwt beam="1">  1        2 0.36338996E-01 0.11965807E+04</pdfrwt>
<pdfrwt beam="2">  1       -2 0.23314405E+00 0.11965807E+04</pdfrwt>
<totfact> 0.11584911E+01</totfact>
</mgrwt>
</event>
<event>
 6    1  0.1568961E-005  0.3671466E+04  0.7818608E-02  0.8074315E-01
         -2   -1    0    0    0  501 -0.00000000000E+00  0.00000000000E+00  0.96738288355E+03  0.96738288355E+03  0.00000000000E+00 0.  1.
          2   -1    0    0  501    0  0.00000000000E+00 -0.00000000000E+00 -0.34835378998E+04  0.34835378998E+04  0.00000000000E+00 0. -1.
         23    2    1    2    0    0  0.15846979649E+04  0.13002146972E+02 -0.13828129496E+03  0.15933483643E+04  0.90557152516E+02 0.  0.
         11    1    3    3    0    0  0.46074614331E+03  0.12123961380E+02  0.13126818189E+00  0.46090564788E+03  0.00000000000E+00 0. -1.
        -11    1    3    3    0    0  0.11239518215E+04  0.87818559149E+00 -0.13841256314E+03  0.11324427164E+04  0.00000000000E+00 0.  1.
         22    1    1    2    0    0 -0.15846979649E+04 -0.13002146972E+02 -0.23778737213E+04  0.28575724191E+04  0.00000000000E+00 0. -1.
<mgrwt>
<rscale>  0 0.36714656E+04</rscale>
<asrwt>0</asrwt>
<pdfrwt beam="1">  1        2 0.53592890E+00 0.36714656E+04</pdfrwt>
<pdfrwt beam="2">  1       -2 0.14882814E+00 0.36714656E+04</pdfrwt>
<totfact> 0.20658348E-01</totfact>
</mgrwt>
</event>
<event>
 6    1  0.1568961E-005  0.5444680E+03  0.7818608E-02  0.1002783E+00
         -1   -1    0    0    0  501 -0.00000000000E+00  0.00000000000E+00  0.84128447353E+02  0.84128447353E+02  0.00000000000E+00 0.  1.
          1   -1    0    0  501    0  0.00000000000E+00 -0.00000000000E+00 -0.88093098500E+03  0.88093098500E+03  0.00000000000E+00 0. -1.
         23    2    1    2    0    0  0.15985831819E+03 -0.84868380323E+02 -0.67644514864E+02  0.21377470200E+03  0.91468677438E+02 0.  0.
         13    1    3    3    0    0  0.12986702233E+03 -0.24342282269E+02 -0.62111267347E+02  0.14599931413E+03  0.00000000000E+00 0. -1.
        -13    1    3    3    0    0  0.29991295853E+02 -0.60526098054E+02 -0.55332475168E+01  0.67775387868E+02  0.00000000000E+00 0.  1.
         22    1    1    2    0    0 -0.15985831819E+03  0.84868380323E+02 -0.72915802278E+03  0.75128473035E+03  0.00000000000E+00 0. -1.
<mgrwt>
<rscale>  0 0.54446802E+03</rscale>
<asrwt>0</asrwt>
<pdfrwt beam="1">  1        1 0.13552784E+00 0.54446802E+03</pdfrwt>
<pdfrwt beam="2">  1       -1 0.12942838E-01 0.54446802E+03</pdfrwt>
<totfact> 0.79790550E+02</totfact>
</mgrwt>
</event>
<event>
 6    1  0.1568961E-005  0.4209111E+04  0.7818608E-02  0.7963641E-01
         -2   -1    0    0    0  501 -0.00000000000E+00  0.00000000000E+00  0.29309918480E+04  0.29309918480E+04  0.00000000000E+00 0.  1.
          2   -1    0    0  501    0  0.00000000000E+00 -0.00000000000E+00 -0.15111449524E+04  0.15111449524E+04  0.00000000000E+00 0. -1.
         23    2    1    2    0    0 -0.11270191897E+04 -0.10347315695E+04 -0.81337786033E+03  0.17350840699E+04  0.89952826888E+02 0.  0.
         11    1    3    3    0    0 -0.25757676666E+02 -0.39915185053E+02 -0.36983943540E+02  0.60203753910E+02  0.00000000000E+00 0. -1.
        -11    1    3    3    0    0 -0.11012615131E+04 -0.99481638444E+03 -0.77639391679E+03  0.16748803160E+04  0.00000000000E+00 0.  1.
         22    1    1    2    0    0  0.11270191897E+04  0.10347315695E+04  0.22332247560E+04  0.27070527305E+04  0.00000000000E+00 0.  1.
<mgrwt>
<rscale>  0 0.42091108E+04</rscale>
<asrwt>0</asrwt>
<pdfrwt beam="1">  1        2 0.23248384E+00 0.42091108E+04</pdfrwt>
<pdfrwt beam="2">  1       -2 0.45092182E+00 0.42091108E+04</pdfrwt>
<totfact> 0.33232977E-02</totfact>
</mgrwt>
</event>
<event>
 6    1  0.1568961E-005  0.1076060E+04  0.7818608E-02  0.9228845E-01
         -1   -1    0    0    0  501 -0.00000000000E+00  0.00000000000E+00  0.17135640850E+03  0.17135640850E+03  0.00000000000E+00 0.  1.
          1   -1    0    0  501    0  0.00000000000E+00 -0.00000000000E+00 -0.16893231177E+04  0.16893231177E+04  0.00000000000E+00 0. -1.
         23    2    1    2    0    0 -0.22264294127E+03 -0.26947450971E+03 -0.65336292746E+02  0.36658397453E+03  0.89042622129E+02 0.  0.
         11    1    3    3    0    0 -0.18300471192E+03 -0.23913086390E+03 -0.85067118465E+02  0.31290687001E+03  0.00000000000E+00 0.  1.
        -11    1    3    3    0    0 -0.39638229345E+02 -0.30343645815E+02  0.19730825719E+02  0.53677104528E+02  0.00000000000E+00 0. -1.
         22    1    1    2    0    0  0.22264294127E+03  0.26947450971E+03 -0.14526304165E+04  0.14940955517E+04  0.00000000000E+00 0. -1.
<mgrwt>
<rscale>  0 0.10760601E+04</rscale>
<asrwt>0</asrwt>
<pdfrwt beam="1">  1        1 0.25989587E+00 0.10760601E+04</pdfrwt>
<pdfrwt beam="2">  1       -1 0.26362524E-01 0.10760601E+04</pdfrwt>
<totfact> 0.61876995E+01</totfact>
</mgrwt>
</event>
<event>
 6    1  0.1568961E-005  0.6831616E+03  0.7818608E-02  0.9746469E-01
          2   -1    0    0  501    0  0.00000000000E+00  0.00000000000E+00  0.34510263876E+03  0.34510263876E+03  0.00000000000E+00 0. -1.
         -2   -1    0    0    0  501 -0.00000000000E+00 -0.00000000000E+00 -0.33809491174E+03  0.33809491174E+03  0.00000000000E+00 0.  1.
         23    2    1    2    0    0 -0.10684291198E+03  0.29005428134E+03 -0.12792521237E+03  0.34592348969E+03  0.88041506079E+02 0.  0.
         13    1    3    3    0    0 -0.64994796796E+02  0.64015762208E+02 -0.29723754497E+02  0.95947084391E+02  0.00000000000E+00 0. -1.
        -13    1    3    3    0    0 -0.41848115182E+02  0.22603851913E+03 -0.98201457877E+02  0.24997640530E+03  0.00000000000E+00 0.  1.
         22    1    1    2    0    0  0.10684291198E+03 -0.29005428134E+03  0.13493293940E+03  0.33727406081E+03  0.00000000000E+00 0. -1.
<mgrwt>
<rscale>  0 0.68316161E+03</rscale>
<asrwt>0</asrwt>
<pdfrwt beam="1">  1        2 0.53092714E-01 0.68316161E+03</pdfrwt>
<pdfrwt beam="2">  1       -2 0.52014601E-01 0.68316161E+03</pdfrwt>
<totfact> 0.33072367E+02</totfact>
</mgrwt>
</event>
<event>
 6    1  0.1568961E-005  0.3693389E+04  0.7818608E-02  0.8069428E-01
         -2   -1    0    0    0  501 -0.00000000000E+00  0.00000000000E+00  0.22940793528E+04  0.22940793528E+04  0.00000000000E+00 0.  1.
          2   -1    0    0  501    0  0.00000000000E+00 -0.00000000000E+00 -0.14865577327E+04  0.14865577327E+04  0.00000000000E+00 0. -1.
         23    2    1    2    0    0  0.10284727262E+03  0.10342322590E+04 -0.11572948242E+04  0.15578645855E+04  0.86004822056E+02 0.  0.
         11    1    3    3    0    0  0.63386032410E+02  0.90143680198E+03 -0.98366849665E+03  0.13357431671E+04  0.00000000000E+00 0. -1.
        -11    1    3    3    0    0  0.39461240212E+02  0.13279545707E+03 -0.17362632753E+03  0.22212141839E+03  0.00000000000E+00 0.  1.
         22    1    1    2    0    0 -0.10284727262E+03 -0.10342322590E+04  0.19648164443E+04  0.22227725001E+04  0.00000000000E+00 0.  1.
<mgrwt>
<rscale>  0 0.36933894E+04</rscale>
<asrwt>0</asrwt>
<pdfrwt beam="1">  1        2 0.22870119E+00 0.36933894E+04</pdfrwt>
<pdfrwt beam="2">  1       -2 0.35293529E+00 0.36933894E+04</pdfrwt>
<totfact> 0.15570543E-01</totfact>
</mgrwt>
</event>
<event>
 6    1  0.1568961E-005  0.2420298E+04  0.7818608E-02  0.8431943E-01
         -2   -1    0    0    0  501 -0.00000000000E+00  0.00000000000E+00  0.72701364372E+03  0.72701364372E+03  0.00000000000E+00 0.  1.
          2   -1    0    0  501    0  0.00000000000E+00 -0.00000000000E+00 -0.20143507516E+04  0.20143507516E+04  0.00000000000E+00 0. -1.
         23    2    1    2    0    0 -0.31723332927E+03  0.11627359904E+04 -0.54443891052E+03  0.13255643741E+04  0.90084482599E+02 0.  0.
         13    1    3    3    0    0 -0.32929657738E+01  0.30082126762E+02 -0.29814388635E+02  0.42481475301E+02  0.00000000000E+00 0. -1.
        -13    1    3    3    0    0 -0.31394036350E+03  0.11326538636E+04 -0.51462452188E+03  0.12830828988E+04  0.00000000000E+00 0.  1.
         22    1    1    2    0    0  0.31723332927E+03 -0.11627359904E+04 -0.74289819736E+03  0.14158000212E+04  0.00000000000E+00 0.  1.
<mgrwt>
<rscale>  0 0.24202979E+04</rscale>
<asrwt>0</asrwt>
<pdfrwt beam="1">  1        2 0.30990012E+00 0.24202979E+04</pdfrwt>
<pdfrwt beam="2">  1       -2 0.11184825E+00 0.24202979E+04</pdfrwt>
<totfact> 0.37154376E+00</totfact>
</mgrwt>
</event>
<event>
 6    1  0.1568961E-005  0.9218838E+03  0.7818608E-02  0.9398632E-01
         -1   -1    0    0    0  501 -0.00000000000E+00  0.00000000000E+00  0.19407360799E+03  0.19407360799E+03  0.00000000000E+00 0.  1.
          1   -1    0    0  501    0  0.00000000000E+00 -0.00000000000E+00 -0.10947775418E+04  0.10947775418E+04  0.00000000000E+00 0. -1.
         23    2    1    2    0    0  0.14028094241E+03 -0.23190117607E+03 -0.96821797083E+03  0.10095394180E+04  0.90922490560E+02 0.  0.
         11    1    3    3    0    0  0.11329241751E+03 -0.10233725055E+03 -0.55742496679E+03  0.57795387213E+03  0.00000000000E+00 0.  1.
        -11    1    3    3    0    0  0.26988524897E+02 -0.12956392552E+03 -0.41079300404E+03  0.43158554592E+03  0.00000000000E+00 0. -1.
         22    1    1    2    0    0 -0.14028094241E+03  0.23190117607E+03  0.67514037068E+02  0.27931173170E+03  0.00000000000E+00 0.  1.
<mgrwt>
<rscale>  0 0.92188378E+03</rscale>
<asrwt>0</asrwt>
<pdfrwt beam="1">  1        1 0.16842732E+00 0.92188378E+03</pdfrwt>
<pdfrwt beam="2">  1       -1 0.29857478E-01 0.92188378E+03</pdfrwt>
<totfact> 0.13235039E+02</totfact>
</mgrwt>
</event>
<event>
 6    1  0.1568961E-005  0.2013211E+04  0.7818608E-02  0.8600469E-01
          1   -1    0    0  501    0  0.00000000000E+00  0.00000000000E+00  0.18347177417E+04  0.18347177417E+04  0.00000000000E+00 0. -1.
         -1   -1    0    0    0  501 -0.00000000000E+00 -0.00000000000E+00 -0.55226719668E+03  0.55226719668E+03  0.00000000000E+00 0.  1.
         23    2    1    2    0    0  0.27046240525E+03  0.68924231115E+03  0.14475290058E+04  0.16283969248E+04  0.90174530778E+02 0.  0.
         13    1    3    3    0    0  0.78304651963E+02  0.28007290070E+03  0.63943062972E+03  0.70245567721E+03  0.00000000000E+00 0.  1.
        -13    1    3    3    0    0  0.19215775329E+03  0.40916941045E+03  0.80809837604E+03  0.92594124757E+03  0.00000000000E+00 0. -1.
         22    1    1    2    0    0 -0.27046240525E+03 -0.68924231115E+03 -0.16507846077E+03  0.75858801357E+03  0.00000000000E+00 0.  1.
<mgrwt>
<rscale>  0 0.20132108E+04</rscale>
<asrwt>0</asrwt>
<pdfrwt beam="1">  1        1 0.28226426E+00 0.20132108E+04</pdfrwt>
<pdfrwt beam="2">  1       -1 0.84964185E-01 0.20132108E+04</pdfrwt>
<totfact> 0.48988560E+00</totfact>
</mgrwt>
</event>
<event>
 6    1  0.1568961E-005  0.2434868E+04  0.7818608E-02  0.8426564E-01
         -2   -1    0    0    0  501 -0.00000000000E+00  0.00000000000E+00  0.51546701237E+03  0.51546701237E+03  0.00000000000E+00 0. -1.
          2   -1    0    0  501    0  0.00000000000E+00 -0.00000000000E+00 -0.28753440708E+04  0.28753440708E+04  0.00000000000E+00 0.  1.
         23    2    1    2    0    0 -0.65515290022E+03 -0.51766823762E+03 -0.24121770446E+04  0.25541863074E+04  0.89799059932E+02 0.  0.
         11    1    3    3    0    0 -0.40425343061E+03 -0.27494353959E+03 -0.13235869856E+04  0.14109915997E+04  0.00000000000E+00 0. -1.
        -11    1    3    3    0    0 -0.25089946961E+03 -0.24272469803E+03 -0.10885900591E+04  0.11431947077E+04  0.00000000000E+00 0.  1.
         22    1    1    2    0    0  0.65515290022E+03  0.51766823762E+03  0.52299986218E+02  0.83662477579E+03  0.00000000000E+00 0. -1.
<mgrwt>
<rscale>  0 0.24348676E+04</rscale>
<asrwt>0</asrwt>
<pdfrwt beam="1">  1        2 0.44236062E+00 0.24348676E+04</pdfrwt>
<pdfrwt beam="2">  1       -2 0.79302619E-01 0.24348676E+04</pdfrwt>
<totfact> 0.26302795E+00</totfact>
</mgrwt>
</event>
<event>
 6    1  0.1568961E-005  0.8188476E+03  0.7818608E-02  0.9533130E-01
         -2   -1    0    0    0  501 -0.00000000000E+00  0.00000000000E+00  0.65859364973E+02  0.65859364973E+02  0.00000000000E+00 0.  1.
          2   -1    0    0  501    0  0.00000000000E+00 -0.00000000000E+00 -0.25452393482E+04  0.25452393482E+04  0.00000000000E+00 0. -1.
         23    2    1    2    0    0  0.23111474043E+03 -0.30373807166E+02 -0.23083435856E+04  0.23219792902E+04  0.93814305181E+02 0.  0.
         13    1    3    3    0    0  0.17970041634E+03  0.17538446918E+02 -0.17215134109E+04  0.17309558806E+04  0.00000000000E+00 0. -1.
        -13    1    3    3    0    0  0.51414324092E+02 -0.47912254084E+02 -0.58683017469E+03  0.59102340964E+03  0.00000000000E+00 0.  1.
         22    1    1    2    0    0 -0.23111474043E+03  0.30373807166E+02 -0.17103639771E+03  0.28911942298E+03  0.00000000000E+00 0.  1.
<mgrwt>
<rscale>  0 0.81884760E+03</rscale>
<asrwt>0</asrwt>
<pdfrwt beam="1">  1        2 0.39157532E+00 0.81884760E+03</pdfrwt>
<pdfrwt beam="2">  1       -2 0.10132209E-01 0.81884760E+03</pdfrwt>
<totfact> 0.22729119E+02</totfact>
</mgrwt>
</event>
<event>
 6    1  0.1568961E-005  0.3276097E+04  0.7818608E-02  0.8169004E-01
         -2   -1    0    0    0  501 -0.00000000000E+00  0.00000000000E+00  0.88562435498E+03  0.88562435498E+03  0.00000000000E+00 0.  1.
          2   -1    0    0  501    0  0.00000000000E+00 -0.00000000000E+00 -0.30297309689E+04  0.30297309689E+04  0.00000000000E+00 0. -1.
         23    2    1    2    0    0  0.14843367613E+04  0.40660625436E+03 -0.17389780648E+04  0.23239052277E+04  0.88918673399E+02 0.  0.
         11    1    3    3    0    0  0.13524915780E+04  0.36445369928E+03 -0.16177899775E+04  0.21399309285E+04  0.00000000000E+00 0. -1.
        -11    1    3    3    0    0  0.13184518338E+03  0.42152555082E+02 -0.12118808726E+03  0.18397429922E+03  0.00000000000E+00 0.  1.
         22    1    1    2    0    0 -0.14843367613E+04 -0.40660625436E+03 -0.40512854910E+03  0.15914500961E+04  0.00000000000E+00 0.  1.
<mgrwt>
<rscale>  0 0.32760974E+04</rscale>
<asrwt>0</asrwt>
<pdfrwt beam="1">  1        2 0.46611245E+00 0.32760974E+04</pdfrwt>
<pdfrwt beam="2">  1       -2 0.13624990E+00 0.32760974E+04</pdfrwt>
<totfact> 0.53734484E-01</totfact>
</mgrwt>
</event>
<event>
 6    1  0.1568961E-005  0.2463246E+04  0.7818608E-02  0.8416197E-01
         -1   -1    0    0    0  501 -0.00000000000E+00  0.00000000000E+00  0.56288315764E+03  0.56288315764E+03  0.00000000000E+00 0.  1.
          1   -1    0    0  501    0  0.00000000000E+00 -0.00000000000E+00 -0.26948679267E+04  0.26948679267E+04  0.00000000000E+00 0. -1.
         23    2    1    2    0    0 -0.95231711937E+03  0.25153041611E+03 -0.20416859470E+04  0.22686457698E+04  0.89981533088E+02 0.  0.
         13    1    3    3    0    0 -0.31558877741E+03  0.11996106389E+03 -0.75333731525E+03  0.82553258193E+03  0.00000000000E+00 0.  1.
        -13    1    3    3    0    0 -0.63672834196E+03  0.13156935223E+03 -0.12883486318E+04  0.14431131878E+04  0.00000000000E+00 0. -1.
         22    1    1    2    0    0  0.95231711937E+03 -0.25153041611E+03 -0.90298822035E+02  0.98910531458E+03  0.00000000000E+00 0.  1.
<mgrwt>
<rscale>  0 0.24632464E+04</rscale>
<asrwt>0</asrwt>
<pdfrwt beam="1">  1        1 0.41459506E+00 0.24632464E+04</pdfrwt>
<pdfrwt beam="2">  1       -1 0.86597410E-01 0.24632464E+04</pdfrwt>
<totfact> 0.11592680E+00</totfact>
</mgrwt>
</event>
<event>
 6    1  0.1568961E-005  0.1548288E+04  0.7818608E-02  0.8852962E-01
          2   -1    0    0  501    0  0.00000000000E+00  0.00000000000E+00  0.15631114710E+04  0.15631114710E+04  0.00000000000E+00 0. -1.
         -2   -1    0    0    0  501 -0.00000000000E+00 -0.00000000000E+00 -0.38340134427E+03  0.38340134427E+03  0.00000000000E+00 0.  1.
         23    2    1    2    0    0  0.36261396647E+03 -0.17603711186E+03 -0.23500784227E+03  0.47549110052E+03  0.91570450015E+02 0.  0.
         11    1    3    3    0    0  0.11853306314E+03 -0.53172489107E+02 -0.12694885179E+03  0.18164088644E+03  0.00000000000E+00 0.  1.
        -11    1    3    3    0    0  0.24408090332E+03 -0.12286462276E+03 -0.10805899049E+03  0.29385021408E+03  0.00000000000E+00 0. -1.
         22    1    1    2    0    0 -0.36261396647E+03  0.17603711186E+03  0.14147179690E+04  0.14710217148E+04  0.00000000000E+00 0. -1.
<mgrwt>
<rscale>  0 0.15482881E+04</rscale>
<asrwt>0</asrwt>
<pdfrwt beam="1">  1        2 0.24047868E+00 0.15482881E+04</pdfrwt>
<pdfrwt beam="2">  1       -2 0.58984823E-01 0.15482881E+04</pdfrwt>
<totfact> 0.30228598E+01</totfact>
</mgrwt>
</event>
<event>
 6    1  0.1568961E-005  0.3342048E+04  0.7818608E-02  0.8152278E-01
         -2   -1    0    0    0  501 -0.00000000000E+00  0.00000000000E+00  0.10605573900E+04  0.10605573900E+04  0.00000000000E+00 0.  1.
          2   -1    0    0  501    0  0.00000000000E+00 -0.00000000000E+00 -0.26328807515E+04  0.26328807515E+04  0.00000000000E+00 0. -1.
         23    2    1    2    0    0 -0.62570749242E+03 -0.90850136890E+03  0.59859551144E+03  0.12583255452E+04  0.90454342257E+02 0.  0.
         13    1    3    3    0    0 -0.45859717289E+03 -0.66789163111E+03  0.48413416094E+03  0.94380955901E+03  0.00000000000E+00 0.  1.
        -13    1    3    3    0    0 -0.16711031953E+03 -0.24060973780E+03  0.11446135050E+03  0.31451598620E+03  0.00000000000E+00 0. -1.
         22    1    1    2    0    0  0.62570749242E+03  0.90850136890E+03 -0.21709188730E+04  0.24351125962E+04  0.00000000000E+00 0. -1.
<mgrwt>
<rscale>  0 0.33420480E+04</rscale>
<asrwt>0</asrwt>
<pdfrwt beam="1">  1        2 0.40505858E+00 0.33420480E+04</pdfrwt>
<pdfrwt beam="2">  1       -2 0.16316268E+00 0.33420480E+04</pdfrwt>
<totfact> 0.57824969E-01</totfact>
</mgrwt>
</event>
<event>
 6    1  0.1568961E-005  0.4111317E+04  0.7818608E-02  0.7982459E-01
         -2   -1    0    0    0  501 -0.00000000000E+00  0.00000000000E+00  0.11998331990E+04  0.11998331990E+04  0.00000000000E+00 0.  1.
          2   -1    0    0  501    0  0.00000000000E+00 -0.00000000000E+00 -0.35219332716E+04  0.35219332716E+04  0.00000000000E+00 0. -1.
         23    2    1    2    0    0 -0.19822953967E+03 -0.19892603829E+04 -0.61668670254E+03  0.20940513824E+04  0.91087220186E+02 0.  0.
         13    1    3    3    0    0 -0.16564622623E+02 -0.27698526996E+03 -0.11690491832E+03  0.30110128931E+03  0.00000000000E+00 0. -1.
        -13    1    3    3    0    0 -0.18166491705E+03 -0.17122751130E+04 -0.49978178422E+03  0.17929500931E+04  0.00000000000E+00 0.  1.
         22    1    1    2    0    0  0.19822953967E+03  0.19892603829E+04 -0.17054133701E+04  0.26277150881E+04  0.00000000000E+00 0. -1.
<mgrwt>
<rscale>  0 0.41113173E+04</rscale>
<asrwt>0</asrwt>
<pdfrwt beam="1">  1        2 0.54183588E+00 0.41113173E+04</pdfrwt>
<pdfrwt beam="2">  1       -2 0.18458973E+00 0.41113173E+04</pdfrwt>
<totfact> 0.10325215E-01</totfact>
</mgrwt>
</event>
<event>
 6    1  0.1568961E-005  0.7073101E+03  0.7818608E-02  0.9704812E-01
         -2   -1    0    0    0  501 -0.00000000000E+00  0.00000000000E+00  0.16263342922E+03  0.16263342922E+03  0.00000000000E+00 0.  1.
          2   -1    0    0  501    0  0.00000000000E+00 -0.00000000000E+00 -0.76904163233E+03  0.76904163233E+03  0.00000000000E+00 0. -1.
         23    2    1    2    0    0 -0.22608759207E+01  0.33968591242E+03 -0.40544428783E+03  0.53698768412E+03  0.92623278427E+02 0.  0.
         11    1    3    3    0    0  0.42831209750E+02  0.21733076013E+03 -0.26353498560E+03  0.34426423058E+03  0.00000000000E+00 0.  1.
        -11    1    3    3    0    0 -0.45092085671E+02  0.12235515229E+03 -0.14190930223E+03  0.19272345353E+03  0.00000000000E+00 0. -1.
         22    1    1    2    0    0  0.22608759207E+01 -0.33968591242E+03 -0.20096391529E+03  0.39468737743E+03  0.00000000000E+00 0.  1.
<mgrwt>
<rscale>  0 0.70731005E+03</rscale>
<asrwt>0</asrwt>
<pdfrwt beam="1">  1        2 0.11831410E+00 0.70731005E+03</pdfrwt>
<pdfrwt beam="2">  1       -2 0.25020528E-01 0.70731005E+03</pdfrwt>
<totfact> 0.52246228E+02</totfact>
</mgrwt>
</event>
<event>
 6    1  0.1568961E-005  0.1804134E+04  0.7818608E-02  0.8704104E-01
         -2   -1    0    0    0  501 -0.00000000000E+00  0.00000000000E+00  0.36941916847E+03  0.36941916847E+03  0.00000000000E+00 0.  1.
          2   -1    0    0  501    0  0.00000000000E+00 -0.00000000000E+00 -0.22027140677E+04  0.22027140677E+04  0.00000000000E+00 0. -1.
         23    2    1    2    0    0  0.46308656131E+03  0.74073490364E+03 -0.12260805177E+04  0.15082504109E+04  0.91697903221E+02 0.  0.
         13    1    3    3    0    0  0.24911668326E+03  0.42682641898E+03 -0.61876372586E+03  0.79190180090E+03  0.00000000000E+00 0.  1.
        -13    1    3    3    0    0  0.21396987805E+03  0.31390848466E+03 -0.60731679182E+03  0.71634861003E+03  0.00000000000E+00 0. -1.
         22    1    1    2    0    0 -0.46308656131E+03 -0.74073490364E+03 -0.60721438157E+03  0.10638828253E+04  0.00000000000E+00 0.  1.
<mgrwt>
<rscale>  0 0.18041339E+04</rscale>
<asrwt>0</asrwt>
<pdfrwt beam="1">  1        2 0.33887909E+00 0.18041339E+04</pdfrwt>
<pdfrwt beam="2">  1       -2 0.56833717E-01 0.18041339E+04</pdfrwt>
<totfact> 0.14102617E+01</totfact>
</mgrwt>
</event>
<event>
 6    1  0.1568961E-005  0.2057547E+04  0.7818608E-02  0.8580178E-01
          2   -1    0    0  501    0  0.00000000000E+00  0.00000000000E+00  0.24047754198E+04  0.24047754198E+04  0.00000000000E+00 0. -1.
         -2   -1    0    0    0  501 -0.00000000000E+00 -0.00000000000E+00 -0.44011380588E+03  0.44011380588E+03  0.00000000000E+00 0.  1.
         23    2    1    2    0    0 -0.58440664261E+02 -0.40638453629E+03 -0.31700685555E+03  0.52657632463E+03  0.90694964702E+02 0.  0.
         13    1    3    3    0    0 -0.59724124214E+02 -0.19669384399E+03 -0.11565812833E+03  0.23586488066E+03  0.00000000000E+00 0. -1.
        -13    1    3    3    0    0  0.12834599527E+01 -0.20969069230E+03 -0.20134872722E+03  0.29071144398E+03  0.00000000000E+00 0.  1.
         22    1    1    2    0    0  0.58440664261E+02  0.40638453629E+03  0.22816684695E+04  0.23183129010E+04  0.00000000000E+00 0. -1.
<mgrwt>
<rscale>  0 0.20575469E+04</rscale>
<asrwt>0</asrwt>
<pdfrwt beam="1">  1        2 0.36996544E+00 0.20575469E+04</pdfrwt>
<pdfrwt beam="2">  1       -2 0.67709818E-01 0.20575469E+04</pdfrwt>
<totfact> 0.73030716E+00</totfact>
</mgrwt>
</event>
<event>
 6    1  0.1568961E-005  0.3059008E+04  0.7818608E-02  0.8227079E-01
         -2   -1    0    0    0  501 -0.00000000000E+00  0.00000000000E+00  0.99937906627E+03  0.99937906627E+03  0.00000000000E+00 0.  1.
          2   -1    0    0  501    0  0.00000000000E+00 -0.00000000000E+00 -0.23408365295E+04  0.23408365295E+04  0.00000000000E+00 0. -1.
         23    2    1    2    0    0  0.19474382296E+03  0.75379898573E+03 -0.21071519830E+04  0.22482329195E+04  0.91234386989E+02 0.  0.
         11    1    3    3    0    0  0.29503405616E+01  0.56601878950E+01 -0.34884104773E+01  0.72740115544E+01  0.00000000000E+00 0.  1.
        -11    1    3    3    0    0  0.19179348240E+03  0.74813879784E+03 -0.21036635726E+04  0.22409589080E+04  0.00000000000E+00 0. -1.
         22    1    1    2    0    0 -0.19474382296E+03 -0.75379898573E+03  0.76569451983E+03  0.10919826762E+04  0.00000000000E+00 0.  1.
<mgrwt>
<rscale>  0 0.30590084E+04</rscale>
<asrwt>0</asrwt>
<pdfrwt beam="1">  1        2 0.36012869E+00 0.30590084E+04</pdfrwt>
<pdfrwt beam="2">  1       -2 0.15375063E+00 0.30590084E+04</pdfrwt>
<totfact> 0.10269417E+00</totfact>
</mgrwt>
</event>
<event>
 6    1  0.1568961E-005  0.3378359E+04  0.7818608E-02  0.8143238E-01
         -1   -1    0    0    0  501 -0.00000000000E+00  0.00000000000E+00  0.72409589853E+03  0.72409589853E+03  0.00000000000E+00 0.  1.
          1   -1    0    0  501    0  0.00000000000E+00 -0.00000000000E+00 -0.39405370752E+04  0.39405370752E+04  0.00000000000E+00 0. -1.
         23    2    1    2    0    0 -0.11157171924E+04  0.86194915907E+03 -0.28911830496E+04  0.32177141593E+04  0.83449258730E+02 0.  0.
         11    1    3    3    0    0 -0.52292510814E+03  0.38470904476E+03 -0.14194571335E+04  0.15608684351E+04  0.00000000000E+00 0. -1.
        -11    1    3    3    0    0 -0.59279208425E+03  0.47724011431E+03 -0.14717259161E+04  0.16568457242E+04  0.00000000000E+00 0.  1.
         22    1    1    2    0    0  0.11157171924E+04 -0.86194915907E+03 -0.32525812710E+03  0.14469188144E+04  0.00000000000E+00 0.  1.
<mgrwt>
<rscale>  0 0.33783586E+04</rscale>
<asrwt>0</asrwt>
<pdfrwt beam="1">  1        1 0.60623648E+00 0.33783586E+04</pdfrwt>
<pdfrwt beam="2">  1       -1 0.11139937E+00 0.33783586E+04</pdfrwt>
<totfact> 0.65876681E-02</totfact>
</mgrwt>
</event>
<event>
 6    1  0.1568961E-005  0.2704123E+04  0.7818608E-02  0.8333669E-01
          1   -1    0    0  501    0  0.00000000000E+00  0.00000000000E+00  0.24593763721E+04  0.24593763721E+04  0.00000000000E+00 0. -1.
         -1   -1    0    0    0  501 -0.00000000000E+00 -0.00000000000E+00 -0.74330632547E+03  0.74330632547E+03  0.00000000000E+00 0.  1.
         23    2    1    2    0    0  0.53390799660E+03  0.85763661939E+03  0.19205308034E+04  0.21719535766E+04  0.91353446801E+02 0.  0.
         11    1    3    3    0    0  0.17742051776E+03  0.32593957904E+03  0.78848006276E+03  0.87144446678E+03  0.00000000000E+00 0. -1.
        -11    1    3    3    0    0  0.35648747884E+03  0.53169704035E+03  0.11320507407E+04  0.13005091098E+04  0.00000000000E+00 0.  1.
         22    1    1    2    0    0 -0.53390799660E+03 -0.85763661939E+03 -0.20446075680E+03  0.10307291210E+04  0.00000000000E+00 0.  1.
<mgrwt>
<rscale>  0 0.27041228E+04</rscale>
<asrwt>0</asrwt>
<pdfrwt beam="1">  1        1 0.37836559E+00 0.27041228E+04</pdfrwt>
<pdfrwt beam="2">  1       -1 0.11435482E+00 0.27041228E+04</pdfrwt>
<totfact> 0.87744897E-01</totfact>
</mgrwt>
</event>
<event>
 6    1  0.1946782E-005  0.4672281E+04  0.7818608E-02  0.7881151E-01
         -2   -1    0    0    0  501 -0.00000000000E+00  0.00000000000E+00  0.21502945633E+04  0.21502945633E+04  0.00000000000E+00 0.  1.
          2   -1    0    0  501    0  0.00000000000E+00 -0.00000000000E+00 -0.25380489551E+04  0.25380489551E+04  0.00000000000E+00 0. -1.
         23    2    1    2    0    0 -0.24625631606E+03  0.23142671668E+04 -0.38673431687E+03  0.23610111973E+04  0.91300326251E+02 0.  0.
         11    1    3    3    0    0 -0.14646671378E+03  0.16016520999E+04 -0.23181596996E+03  0.16249555660E+04  0.00000000000E+00 0. -1.
        -11    1    3    3    0    0 -0.99789602275E+02  0.71261506685E+03 -0.15491834691E+03  0.73605563135E+03  0.00000000000E+00 0.  1.
         22    1    1    2    0    0  0.24625631606E+03 -0.23142671668E+04 -0.10200749207E+01  0.23273323211E+04  0.00000000000E+00 0.  1.
<mgrwt>
<rscale>  0 0.46722812E+04</rscale>
<asrwt>0</asrwt>
<pdfrwt beam="1">  1        2 0.39046907E+00 0.46722812E+04</pdfrwt>
<pdfrwt beam="2">  1       -2 0.33081455E+00 0.46722812E+04</pdfrwt>
<totfact> 0.50720910E-02</totfact>
</mgrwt>
</event>
<event>
 6    1  0.1568961E-005  0.2365155E+04  0.7818608E-02  0.8452665E-01
          2   -1    0    0  501    0  0.00000000000E+00  0.00000000000E+00  0.11230033823E+04  0.11230033823E+04  0.00000000000E+00 0. -1.
         -2   -1    0    0    0  501 -0.00000000000E+00 -0.00000000000E+00 -0.12453116787E+04  0.12453116787E+04  0.00000000000E+00 0.  1.
         23    2    1    2    0    0 -0.75143574590E+03 -0.37589158906E+03 -0.89226928856E+03  0.12286703372E+04  0.86810986295E+02 0.  0.
         11    1    3    3    0    0 -0.49499005177E+03 -0.28717581581E+03 -0.57610755609E+03  0.81202525621E+03  0.00000000000E+00 0.  1.
        -11    1    3    3    0    0 -0.25644569414E+03 -0.88715773251E+02 -0.31616173247E+03  0.41664508103E+03  0.00000000000E+00 0. -1.
         22    1    1    2    0    0  0.75143574590E+03  0.37589158906E+03  0.76996099215E+03  0.11396447238E+04  0.00000000000E+00 0.  1.
<mgrwt>
<rscale>  0 0.23651547E+04</rscale>
<asrwt>0</asrwt>
<pdfrwt beam="1">  1        2 0.17276975E+00 0.23651547E+04</pdfrwt>
<pdfrwt beam="2">  1       -2 0.19158641E+00 0.23651547E+04</pdfrwt>
<totfact> 0.28760440E+00</totfact>
</mgrwt>
</event>
<event>
 6    1  0.1568961E-005  0.1279183E+04  0.7818608E-02  0.9046238E-01
          1   -1    0    0  501    0  0.00000000000E+00  0.00000000000E+00  0.14174027467E+04  0.14174027467E+04  0.00000000000E+00 0. -1.
         -1   -1    0    0    0  501 -0.00000000000E+00 -0.00000000000E+00 -0.28861068419E+03  0.28861068419E+03  0.00000000000E+00 0.  1.
         23    2    1    2    0    0  0.21857485568E+03 -0.96848867105E+02  0.13537490001E+04  0.13777447995E+04  0.91595342695E+02 0.  0.
         11    1    3    3    0    0  0.86001651608E+02 -0.80043340890E+02  0.50120186764E+03  0.51478785206E+03  0.00000000000E+00 0. -1.
        -11    1    3    3    0    0  0.13257320407E+03 -0.16805526215E+02  0.85254713246E+03  0.86295694749E+03  0.00000000000E+00 0.  1.
         22    1    1    2    0    0 -0.21857485568E+03  0.96848867105E+02 -0.22495693756E+03  0.32826863138E+03  0.00000000000E+00 0.  1.
<mgrwt>
<rscale>  0 0.12791835E+04</rscale>
<asrwt>0</asrwt>
<pdfrwt beam="1">  1        1 0.21806196E+00 0.12791835E+04</pdfrwt>
<pdfrwt beam="2">  1       -1 0.44401644E-01 0.12791835E+04</pdfrwt>
<totfact> 0.36901280E+01</totfact>
</mgrwt>
</event>
<event>
 6    1  0.1568961E-005  0.1838230E+04  0.7818608E-02  0.8686229E-01
          2   -1    0    0  501    0  0.00000000000E+00  0.00000000000E+00  0.11229105360E+04  0.11229105360E+04  0.00000000000E+00 0. -1.
         -2   -1    0    0    0  501 -0.00000000000E+00 -0.00000000000E+00 -0.75230613844E+03  0.75230613844E+03  0.00000000000E+00 0.  1.
         23    2    1    2    0    0 -0.80342456488E+03  0.77450532789E+02 -0.25851293783E+03  0.85185054339E+03  0.85620048823E+02 0.  0.
         13    1    3    3    0    0 -0.45518302169E+03  0.30832008992E+02 -0.10345793460E+03  0.46780951277E+03  0.00000000000E+00 0.  1.
        -13    1    3    3    0    0 -0.34824154320E+03  0.46618523797E+02 -0.15505500323E+03  0.38404103062E+03  0.00000000000E+00 0. -1.
         22    1    1    2    0    0  0.80342456488E+03 -0.77450532789E+02  0.62911733538E+03  0.10233661310E+04  0.00000000000E+00 0. -1.
<mgrwt>
<rscale>  0 0.18382301E+04</rscale>
<asrwt>0</asrwt>
<pdfrwt beam="1">  1        2 0.17275547E+00 0.18382301E+04</pdfrwt>
<pdfrwt beam="2">  1       -2 0.11573941E+00 0.18382301E+04</pdfrwt>
<totfact> 0.11524105E+01</totfact>
</mgrwt>
</event>
<event>
 6    1  0.1568961E-005  0.3868822E+04  0.7818608E-02  0.8031545E-01
          2   -1    0    0  501    0  0.00000000000E+00  0.00000000000E+00  0.23257423308E+04  0.23257423308E+04  0.00000000000E+00 0. -1.
         -2   -1    0    0    0  501 -0.00000000000E+00 -0.00000000000E+00 -0.16089253854E+04  0.16089253854E+04  0.00000000000E+00 0.  1.
         23    2    1    2    0    0  0.55109044072E+03 -0.42173686531E+03 -0.14766128787E+04  0.16340814756E+04  0.90961629061E+02 0.  0.
         11    1    3    3    0    0  0.28061486380E+03 -0.26264859343E+03 -0.86975837704E+03  0.95089884838E+03  0.00000000000E+00 0.  1.
        -11    1    3    3    0    0  0.27047557693E+03 -0.15908827189E+03 -0.60685450164E+03  0.68318262722E+03  0.00000000000E+00 0. -1.
         22    1    1    2    0    0 -0.55109044072E+03  0.42173686531E+03  0.21934298240E+04  0.23005862406E+04  0.00000000000E+00 0. -1.
<mgrwt>
<rscale>  0 0.38688220E+04</rscale>
<asrwt>0</asrwt>
<pdfrwt beam="1">  1        2 0.35780651E+00 0.38688220E+04</pdfrwt>
<pdfrwt beam="2">  1       -2 0.24752698E+00 0.38688220E+04</pdfrwt>
<totfact> 0.23262140E-01</totfact>
</mgrwt>
</event>
<event>
 6    1  0.1568961E-005  0.1012870E+04  0.7818608E-02  0.9294540E-01
         -2   -1    0    0    0  501 -0.00000000000E+00  0.00000000000E+00  0.24430203361E+03  0.24430203361E+03  0.00000000000E+00 0.  1.
          2   -1    0    0  501    0  0.00000000000E+00 -0.00000000000E+00 -0.10498341821E+04  0.10498341821E+04  0.00000000000E+00 0. -1.
         23    2    1    2    0    0  0.36080340263E+03 -0.53968283018E+02 -0.84724952821E+03  0.92694142990E+03  0.91087762631E+02 0.  0.
         13    1    3    3    0    0  0.21078366680E+03  0.11680363439E+02 -0.44080051967E+03  0.48874459917E+03  0.00000000000E+00 0.  1.
        -13    1    3    3    0    0  0.15001973583E+03 -0.65648646456E+02 -0.40644900854E+03  0.43819683073E+03  0.00000000000E+00 0. -1.
         22    1    1    2    0    0 -0.36080340263E+03  0.53968283018E+02  0.41717379752E+02  0.36719478576E+03  0.00000000000E+00 0.  1.
<mgrwt>
<rscale>  0 0.10128704E+04</rscale>
<asrwt>0</asrwt>
<pdfrwt beam="1">  1        2 0.16151295E+00 0.10128704E+04</pdfrwt>
<pdfrwt beam="2">  1       -2 0.37584929E-01 0.10128704E+04</pdfrwt>
<totfact> 0.15583091E+02</totfact>
</mgrwt>
</event>
<event>
 6    1  0.1568961E-005  0.2081397E+04  0.7818608E-02  0.8569483E-01
         -1   -1    0    0    0  501 -0.00000000000E+00  0.00000000000E+00  0.25697771587E+04  0.25697771587E+04  0.00000000000E+00 0.  1.
          1   -1    0    0  501    0  0.00000000000E+00 -0.00000000000E+00 -0.42145790138E+03  0.42145790138E+03  0.00000000000E+00 0. -1.
         23    2    1    2    0    0 -0.58095097214E+03 -0.85903547209E+03  0.11651443593E+04  0.15622218151E+04  0.86773539222E+02 0.  0.
         11    1    3    3    0    0 -0.42467501646E+03 -0.69196714546E+03  0.91072144680E+03  0.12200741591E+04  0.00000000000E+00 0.  1.
        -11    1    3    3    0    0 -0.15627595568E+03 -0.16706832663E+03  0.25442291250E+03  0.34214765598E+03  0.00000000000E+00 0. -1.
         22    1    1    2    0    0  0.58095097214E+03  0.85903547209E+03  0.98317489801E+03  0.14290132450E+04  0.00000000000E+00 0.  1.
<mgrwt>
<rscale>  0 0.20813965E+04</rscale>
<asrwt>0</asrwt>
<pdfrwt beam="1">  1        1 0.64839678E-01 0.20813965E+04</pdfrwt>
<pdfrwt beam="2">  1       -1 0.39535032E+00 0.20813965E+04</pdfrwt>
<totfact> 0.39718354E-01</totfact>
</mgrwt>
</event>
<event>
 6    1  0.1568961E-005  0.4259412E+04  0.7818608E-02  0.7954166E-01
         -2   -1    0    0    0  501 -0.00000000000E+00  0.00000000000E+00  0.24022779348E+04  0.24022779348E+04  0.00000000000E+00 0. -1.
          2   -1    0    0  501    0  0.00000000000E+00 -0.00000000000E+00 -0.18880608012E+04  0.18880608012E+04  0.00000000000E+00 0.  1.
         23    2    1    2    0    0 -0.20177842073E+04  0.14322408823E+03  0.92529314160E+03  0.22261319317E+04  0.86774033983E+02 0.  0.
         11    1    3    3    0    0 -0.14822557403E+04  0.14346758163E+03  0.67746581883E+03  0.16360394135E+04  0.00000000000E+00 0. -1.
        -11    1    3    3    0    0 -0.53552846692E+03 -0.24349339935E+00  0.24782732277E+03  0.59009251824E+03  0.00000000000E+00 0.  1.
         22    1    1    2    0    0  0.20177842073E+04 -0.14322408823E+03 -0.41107600791E+03  0.20642068043E+04  0.00000000000E+00 0.  1.
<mgrwt>
<rscale>  0 0.42594116E+04</rscale>
<asrwt>0</asrwt>
<pdfrwt beam="1">  1        2 0.29047089E+00 0.42594116E+04</pdfrwt>
<pdfrwt beam="2">  1       -2 0.36958122E+00 0.42594116E+04</pdfrwt>
<totfact> 0.69570394E-02</totfact>
</mgrwt>
</event>
<event>
 6    1  0.1568961E-005  0.1897479E+04  0.7818608E-02  0.8656112E-01
         -1   -1    0    0    0  501 -0.00000000000E+00  0.00000000000E+00  0.87379525586E+03  0.87379525586E+03  0.00000000000E+00 0. -1.
          1   -1    0    0  501    0  0.00000000000E+00 -0.00000000000E+00 -0.10301116040E+04  0.10301116040E+04  0.00000000000E+00 0.  1.
         23    2    1    2    0    0 -0.23692648894E+03 -0.41345279465E+03 -0.89886232388E+03  0.10216076471E+04  0.93012540993E+02 0.  0.
         13    1    3    3    0    0 -0.37982416525E+02 -0.14063211315E+03 -0.31707922633E+03  0.34894023985E+03  0.00000000000E+00 0.  1.
        -13    1    3    3    0    0 -0.19894407241E+03 -0.27282068150E+03 -0.58178309755E+03  0.67266740727E+03  0.00000000000E+00 0. -1.
         22    1    1    2    0    0  0.23692648894E+03  0.41345279465E+03  0.74254597579E+03  0.88229921270E+03  0.00000000000E+00 0. -1.
<mgrwt>
<rscale>  0 0.18974790E+04</rscale>
<asrwt>0</asrwt>
<pdfrwt beam="1">  1        1 0.15847871E+00 0.18974790E+04</pdfrwt>
<pdfrwt beam="2">  1       -1 0.13443004E+00 0.18974790E+04</pdfrwt>
<totfact> 0.62482463E+00</totfact>
</mgrwt>
</event>
<event>
 6    1  0.1568961E-005  0.3894015E+04  0.7818608E-02  0.8026275E-01
         -1   -1    0    0    0  501 -0.00000000000E+00  0.00000000000E+00  0.21502601236E+04  0.21502601236E+04  0.00000000000E+00 0.  1.
          1   -1    0    0  501    0  0.00000000000E+00 -0.00000000000E+00 -0.17629668587E+04  0.17629668587E+04  0.00000000000E+00 0. -1.
         23    2    1    2    0    0 -0.46677694615E+03 -0.18080881111E+04  0.74390075043E+03  0.20121135629E+04  0.90273630305E+02 0.  0.
         11    1    3    3    0    0 -0.74275464827E+02 -0.18141014028E+03  0.69976603199E+02  0.20814227986E+03  0.00000000000E+00 0. -1.
        -11    1    3    3    0    0 -0.39250148132E+03 -0.16266779708E+04  0.67392414723E+03  0.18039712830E+04  0.00000000000E+00 0.  1.
         22    1    1    2    0    0  0.46677694615E+03  0.18080881111E+04 -0.35660748550E+03  0.19011134195E+04  0.00000000000E+00 0. -1.
<mgrwt>
<rscale>  0 0.38940146E+04</rscale>
<asrwt>0</asrwt>
<pdfrwt beam="1">  1        1 0.27122567E+00 0.38940146E+04</pdfrwt>
<pdfrwt beam="2">  1       -1 0.33080925E+00 0.38940146E+04</pdfrwt>
<totfact> 0.70863452E-02</totfact>
</mgrwt>
</event>
<event>
 6    1  0.1568961E-005  0.3343668E+04  0.7818608E-02  0.8151872E-01
         -2   -1    0    0    0  501 -0.00000000000E+00  0.00000000000E+00  0.11872051231E+04  0.11872051231E+04  0.00000000000E+00 0.  1.
          2   -1    0    0  501    0  0.00000000000E+00 -0.00000000000E+00 -0.23542938708E+04  0.23542938708E+04  0.00000000000E+00 0. -1.
         23    2    1    2    0    0 -0.10170646443E+04 -0.83652647714E+03 -0.16727913358E+04  0.21308494467E+04  0.89952620071E+02 0.  0.
         13    1    3    3    0    0 -0.76317669576E+03 -0.60255486016E+03 -0.12887218485E+04  0.16144085701E+04  0.00000000000E+00 0. -1.
        -13    1    3    3    0    0 -0.25388794849E+03 -0.23397161699E+03 -0.38406948730E+03  0.51644087660E+03  0.00000000000E+00 0.  1.
         22    1    1    2    0    0  0.10170646443E+04  0.83652647714E+03  0.50570258799E+03  0.14106495472E+04  0.00000000000E+00 0.  1.
<mgrwt>
<rscale>  0 0.33436685E+04</rscale>
<asrwt>0</asrwt>
<pdfrwt beam="1">  1        2 0.36219905E+00 0.33436685E+04</pdfrwt>
<pdfrwt beam="2">  1       -2 0.18264694E+00 0.33436685E+04</pdfrwt>
<totfact> 0.61094062E-01</totfact>
</mgrwt>
</event>
<event>
 6    1  0.1568961E-005  0.2791349E+04  0.7818608E-02  0.8305959E-01
          2   -1    0    0  501    0  0.00000000000E+00  0.00000000000E+00  0.23984621484E+04  0.23984621484E+04  0.00000000000E+00 0.  1.
         -2   -1    0    0    0  501 -0.00000000000E+00 -0.00000000000E+00 -0.81214832837E+03  0.81214832837E+03  0.00000000000E+00 0. -1.
         23    2    1    2    0    0  0.78214859260E+03  0.26263930278E+03 -0.49863522962E+03  0.96834636121E+03  0.91223674523E+02 0.  0.
         11    1    3    3    0    0  0.46608139128E+02 -0.22556145475E+01 -0.43119255244E+02  0.63534845579E+02  0.00000000000E+00 0.  1.
        -11    1    3    3    0    0  0.73554045347E+03  0.26489491732E+03 -0.45551597437E+03  0.90481151563E+03  0.00000000000E+00 0. -1.
         22    1    1    2    0    0 -0.78214859260E+03 -0.26263930278E+03  0.20849490496E+04  0.22422641155E+04  0.00000000000E+00 0.  1.
<mgrwt>
<rscale>  0 0.27913488E+04</rscale>
<asrwt>0</asrwt>
<pdfrwt beam="1">  1        2 0.36899417E+00 0.27913488E+04</pdfrwt>
<pdfrwt beam="2">  1       -2 0.12494590E+00 0.27913488E+04</pdfrwt>
<totfact> 0.16647392E+00</totfact>
</mgrwt>
</event>
<event>
 6    1  0.1568961E-005  0.1965070E+04  0.7818608E-02  0.8623128E-01
         -1   -1    0    0    0  501 -0.00000000000E+00  0.00000000000E+00  0.88960909437E+03  0.88960909437E+03  0.00000000000E+00 0.  1.
          1   -1    0    0  501    0  0.00000000000E+00 -0.00000000000E+00 -0.10851678205E+04  0.10851678205E+04  0.00000000000E+00 0. -1.
         23    2    1    2    0    0 -0.46805054983E+03  0.52519732554E+03  0.58832217251E+03  0.92150923228E+03  0.90292516621E+02 0.  0.
         11    1    3    3    0    0 -0.18626763035E+03  0.25653132486E+03  0.22285530400E+03  0.38751572520E+03  0.00000000000E+00 0.  1.
        -11    1    3    3    0    0 -0.28178291948E+03  0.26866600068E+03  0.36546686850E+03  0.53399350708E+03  0.00000000000E+00 0. -1.
         22    1    1    2    0    0  0.46805054983E+03 -0.52519732554E+03 -0.78388089865E+03  0.10532676826E+04  0.00000000000E+00 0. -1.
<mgrwt>
<rscale>  0 0.19650701E+04</rscale>
<asrwt>0</asrwt>
<pdfrwt beam="1">  1        1 0.16694889E+00 0.19650701E+04</pdfrwt>
<pdfrwt beam="2">  1       -1 0.13686294E+00 0.19650701E+04</pdfrwt>
<totfact> 0.53833711E+00</totfact>
</mgrwt>
</event>
<event>
 6    1  0.1568961E-005  0.4095586E+04  0.7818608E-02  0.7985537E-01
          1   -1    0    0  501    0  0.00000000000E+00  0.00000000000E+00  0.19329037856E+04  0.19329037856E+04  0.00000000000E+00 0. -1.
         -1   -1    0    0    0  501 -0.00000000000E+00 -0.00000000000E+00 -0.21695115504E+04  0.21695115504E+04  0.00000000000E+00 0.  1.
         23    2    1    2    0    0 -0.31107182259E+03 -0.18793824043E+03 -0.21359300084E+04  0.21686336921E+04  0.93212814596E+02 0.  0.
         11    1    3    3    0    0 -0.25312478941E+03 -0.12302718144E+03 -0.14363316562E+04  0.14636449272E+04  0.00000000000E+00 0. -1.
        -11    1    3    3    0    0 -0.57947033185E+02 -0.64911058991E+02 -0.69959835223E+03  0.70498876493E+03  0.00000000000E+00 0.  1.
         22    1    1    2    0    0  0.31107182259E+03  0.18793824043E+03  0.18993222436E+04  0.19337816438E+04  0.00000000000E+00 0. -1.
<mgrwt>
<rscale>  0 0.40955864E+04</rscale>
<asrwt>0</asrwt>
<pdfrwt beam="1">  1        1 0.29736981E+00 0.40955864E+04</pdfrwt>
<pdfrwt beam="2">  1       -1 0.33377101E+00 0.40955864E+04</pdfrwt>
<totfact> 0.51095138E-02</totfact>
</mgrwt>
</event>
<event>
 6    1  0.1568961E-005  0.6963532E+03  0.7818608E-02  0.9723489E-01
         -1   -1    0    0    0  501 -0.00000000000E+00  0.00000000000E+00  0.82048910471E+02  0.82048910471E+02  0.00000000000E+00 0.  1.
          1   -1    0    0  501    0  0.00000000000E+00 -0.00000000000E+00 -0.14774959873E+04  0.14774959873E+04  0.00000000000E+00 0. -1.
         23    2    1    2    0    0 -0.30486397137E+03  0.11743723871E+03 -0.49425868001E+03  0.60096570301E+03  0.10067068765E+03 0.  0.
         11    1    3    3    0    0 -0.16889012147E+03  0.10029902361E+03 -0.35412933919E+03  0.40495846225E+03  0.00000000000E+00 0. -1.
        -11    1    3    3    0    0 -0.13597384990E+03  0.17138215097E+02 -0.14012934082E+03  0.19600724076E+03  0.00000000000E+00 0.  1.
         22    1    1    2    0    0  0.30486397137E+03 -0.11743723871E+03 -0.90118839686E+03  0.95857919481E+03  0.00000000000E+00 0. -1.
<mgrwt>
<rscale>  0 0.69635317E+03</rscale>
<asrwt>0</asrwt>
<pdfrwt beam="1">  1        1 0.22730710E+00 0.69635317E+03</pdfrwt>
<pdfrwt beam="2">  1       -1 0.12622908E-01 0.69635317E+03</pdfrwt>
<totfact> 0.30124018E+02</totfact>
</mgrwt>
</event>
<event>
 6    1  0.1568961E-005  0.1727034E+04  0.7818608E-02  0.8746094E-01
          2   -1    0    0  501    0  0.00000000000E+00  0.00000000000E+00  0.22159320780E+04  0.22159320780E+04  0.00000000000E+00 0. -1.
         -2   -1    0    0    0  501 -0.00000000000E+00 -0.00000000000E+00 -0.33650021578E+03  0.33650021578E+03  0.00000000000E+00 0.  1.
         23    2    1    2    0    0 -0.47913191764E+03  0.36186124938E+03  0.30096140866E+02  0.60806772700E+03  0.91266777237E+02 0.  0.
         11    1    3    3    0    0 -0.22884693948E+02  0.45573427560E+02 -0.79314307025E+01  0.51609631946E+02  0.00000000000E+00 0.  1.
        -11    1    3    3    0    0 -0.45624722369E+03  0.31628782182E+03  0.38027571569E+02  0.55645809506E+03  0.00000000000E+00 0. -1.
         22    1    1    2    0    0  0.47913191764E+03 -0.36186124938E+03  0.18493357214E+04  0.19443645668E+04  0.00000000000E+00 0. -1.
<mgrwt>
<rscale>  0 0.17270340E+04</rscale>
<asrwt>0</asrwt>
<pdfrwt beam="1">  1        2 0.34091262E+00 0.17270340E+04</pdfrwt>
<pdfrwt beam="2">  1       -2 0.51769265E-01 0.17270340E+04</pdfrwt>
<totfact> 0.16933316E+01</totfact>
</mgrwt>
</event>
<event>
 6    1  0.1568961E-005  0.1354993E+04  0.7818608E-02  0.8987057E-01
         -2   -1    0    0    0  501 -0.00000000000E+00  0.00000000000E+00  0.12101441774E+04  0.12101441774E+04  0.00000000000E+00 0.  1.
          2   -1    0    0  501    0  0.00000000000E+00 -0.00000000000E+00 -0.37929492827E+03  0.37929492827E+03  0.00000000000E+00 0. -1.
         23    2    1    2    0    0 -0.34783995175E+03 -0.24317149945E+03 -0.19699894932E+03  0.47741530681E+03  0.94824991211E+02 0.  0.
         13    1    3    3    0    0 -0.25546883594E+03 -0.16083253047E+03 -0.93305756496E+02  0.31597055748E+03  0.00000000000E+00 0. -1.
        -13    1    3    3    0    0 -0.92371115813E+02 -0.82338968976E+02 -0.10369319282E+03  0.16144474933E+03  0.00000000000E+00 0.  1.
         22    1    1    2    0    0  0.34783995175E+03  0.24317149945E+03  0.10278481985E+04  0.11120237989E+04  0.00000000000E+00 0.  1.
<mgrwt>
<rscale>  0 0.13549931E+04</rscale>
<asrwt>0</asrwt>
<pdfrwt beam="1">  1        2 0.58353066E-01 0.13549931E+04</pdfrwt>
<pdfrwt beam="2">  1       -2 0.18617603E+00 0.13549931E+04</pdfrwt>
<totfact> 0.13545676E+01</totfact>
</mgrwt>
</event>
<event>
 6    1  0.1568961E-005  0.2305104E+04  0.7818608E-02  0.8475911E-01
          1   -1    0    0  501    0  0.00000000000E+00  0.00000000000E+00  0.10074709501E+04  0.10074709501E+04  0.00000000000E+00 0. -1.
         -1   -1    0    0    0  501 -0.00000000000E+00 -0.00000000000E+00 -0.13185257768E+04  0.13185257768E+04  0.00000000000E+00 0.  1.
         23    2    1    2    0    0 -0.81952521583E+03  0.34028201864E+02  0.65866335100E+03  0.10559050600E+04  0.91206293160E+02 0.  0.
         11    1    3    3    0    0 -0.33055440433E+03 -0.29635947380E+02  0.25086603171E+03  0.41602676532E+03  0.00000000000E+00 0.  1.
        -11    1    3    3    0    0 -0.48897081149E+03  0.63664149244E+02  0.40779731930E+03  0.63987829469E+03  0.00000000000E+00 0. -1.
         22    1    1    2    0    0  0.81952521583E+03 -0.34028201864E+02 -0.96971817773E+03  0.12700916668E+04  0.00000000000E+00 0.  1.
<mgrwt>
<rscale>  0 0.23051043E+04</rscale>
<asrwt>0</asrwt>
<pdfrwt beam="1">  1        1 0.15499553E+00 0.23051043E+04</pdfrwt>
<pdfrwt beam="2">  1       -1 0.20285012E+00 0.23051043E+04</pdfrwt>
<totfact> 0.19402595E+00</totfact>
</mgrwt>
</event>
<event>
 6    1  0.1568961E-005  0.2175988E+04  0.7818608E-02  0.8528490E-01
          1   -1    0    0  501    0  0.00000000000E+00  0.00000000000E+00  0.86847058887E+03  0.86847058887E+03  0.00000000000E+00 0. -1.
         -1   -1    0    0    0  501 -0.00000000000E+00 -0.00000000000E+00 -0.13630059843E+04  0.13630059843E+04  0.00000000000E+00 0.  1.
         23    2    1    2    0    0  0.10361084271E+04  0.21869668312E+03 -0.70588919032E+01  0.10657226311E+04  0.11985819324E+03 0.  0.
         13    1    3    3    0    0  0.72340664875E+03  0.14303945992E+03  0.49469255506E+02  0.73907014132E+03  0.00000000000E+00 0.  1.
        -13    1    3    3    0    0  0.31270177839E+03  0.75657223206E+02 -0.56528147409E+02  0.32665248978E+03  0.00000000000E+00 0. -1.
         22    1    1    2    0    0 -0.10361084271E+04 -0.21869668312E+03 -0.48747650355E+03  0.11657539421E+04  0.00000000000E+00 0. -1.
<mgrwt>
<rscale>  0 0.21759877E+04</rscale>
<asrwt>0</asrwt>
<pdfrwt beam="1">  1        1 0.13361086E+00 0.21759877E+04</pdfrwt>
<pdfrwt beam="2">  1       -1 0.20969323E+00 0.21759877E+04</pdfrwt>
<totfact> 0.22805204E+00</totfact>
</mgrwt>
</event>
<event>
 6    1  0.1568961E-005  0.1338295E+04  0.7818608E-02  0.8999737E-01
         -2   -1    0    0    0  501 -0.00000000000E+00  0.00000000000E+00  0.23348319487E+03  0.23348319487E+03  0.00000000000E+00 0.  1.
          2   -1    0    0  501    0  0.00000000000E+00 -0.00000000000E+00 -0.19177314301E+04  0.19177314301E+04  0.00000000000E+00 0. -1.
         23    2    1    2    0    0  0.18617394029E+03  0.17369437984E+03 -0.18347372027E+04  0.18554488343E+04  0.10770004665E+03 0.  0.
         11    1    3    3    0    0  0.74420499847E+02  0.13642645501E+02 -0.36130279654E+03  0.36913986964E+03  0.00000000000E+00 0. -1.
        -11    1    3    3    0    0  0.11175344045E+03  0.16005173434E+03 -0.14734344061E+04  0.14863089646E+04  0.00000000000E+00 0.  1.
         22    1    1    2    0    0 -0.18617394029E+03 -0.17369437984E+03  0.15048896744E+03  0.29576579071E+03  0.00000000000E+00 0.  1.
<mgrwt>
<rscale>  0 0.13382945E+04</rscale>
<asrwt>0</asrwt>
<pdfrwt beam="1">  1        2 0.29503561E+00 0.13382945E+04</pdfrwt>
<pdfrwt beam="2">  1       -2 0.35920490E-01 0.13382945E+04</pdfrwt>
<totfact> 0.52913168E+01</totfact>
</mgrwt>
</event>
<event>
 6    1  0.1568961E-005  0.2889825E+04  0.7818608E-02  0.8275911E-01
         -1   -1    0    0    0  501 -0.00000000000E+00  0.00000000000E+00  0.11334767210E+04  0.11334767210E+04  0.00000000000E+00 0.  1.
          1   -1    0    0  501    0  0.00000000000E+00 -0.00000000000E+00 -0.18419194123E+04  0.18419194123E+04  0.00000000000E+00 0. -1.
         23    2    1    2    0    0  0.80531799672E+03 -0.53817881856E+03 -0.14565772518E+04  0.17515175293E+04  0.89570354338E+02 0.  0.
         13    1    3    3    0    0  0.44782680362E+03 -0.34405102857E+03 -0.88924583873E+03  0.10534126058E+04  0.00000000000E+00 0.  1.
        -13    1    3    3    0    0  0.35749119310E+03 -0.19412778998E+03 -0.56733141310E+03  0.69810492354E+03  0.00000000000E+00 0. -1.
         22    1    1    2    0    0 -0.80531799672E+03  0.53817881856E+03  0.74813456055E+03  0.12238786040E+04  0.00000000000E+00 0.  1.
<mgrwt>
<rscale>  0 0.28898254E+04</rscale>
<asrwt>0</asrwt>
<pdfrwt beam="1">  1        1 0.28337222E+00 0.28898254E+04</pdfrwt>
<pdfrwt beam="2">  1       -1 0.17438103E+00 0.28898254E+04</pdfrwt>
<totfact> 0.74914177E-01</totfact>
</mgrwt>
</event>
<event>
 6    1  0.1568961E-005  0.2292358E+04  0.7818608E-02  0.8480940E-01
          1   -1    0    0  501    0  0.00000000000E+00  0.00000000000E+00  0.25646460169E+04  0.25646460169E+04  0.00000000000E+00 0. -1.
         -1   -1    0    0    0  501 -0.00000000000E+00 -0.00000000000E+00 -0.51224471248E+03  0.51224471248E+03  0.00000000000E+00 0.  1.
         23    2    1    2    0    0  0.10840627010E+04 -0.88003608027E+02  0.54991324164E+03  0.12220573262E+04  0.89905285709E+02 0.  0.
         13    1    3    3    0    0  0.62346681204E+03 -0.76723529149E+02  0.35735520009E+03  0.72270333103E+03  0.00000000000E+00 0.  1.
        -13    1    3    3    0    0  0.46059588899E+03 -0.11280078877E+02  0.19255804155E+03  0.49935399517E+03  0.00000000000E+00 0. -1.
         22    1    1    2    0    0 -0.10840627010E+04  0.88003608027E+02  0.15024880627E+04  0.18548334032E+04  0.00000000000E+00 0. -1.
<mgrwt>
<rscale>  0 0.22923581E+04</rscale>
<asrwt>0</asrwt>
<pdfrwt beam="1">  1        1 0.39456092E+00 0.22923581E+04</pdfrwt>
<pdfrwt beam="2">  1       -1 0.78806880E-01 0.22923581E+04</pdfrwt>
<totfact> 0.17791820E+00</totfact>
</mgrwt>
</event>
<event>
 6    1  0.1568961E-005  0.2958659E+04  0.7818608E-02  0.8255636E-01
          2   -1    0    0  501    0  0.00000000000E+00  0.00000000000E+00  0.96505460379E+03  0.96505460379E+03  0.00000000000E+00 0. -1.
         -2   -1    0    0    0  501 -0.00000000000E+00 -0.00000000000E+00 -0.22676599884E+04  0.22676599884E+04  0.00000000000E+00 0.  1.
         23    2    1    2    0    0  0.37169324987E+03 -0.27135840014E+03 -0.21863741224E+04  0.22363018087E+04  0.94988016728E+02 0.  0.
         13    1    3    3    0    0  0.21231906900E+03 -0.10365654039E+03 -0.99445332655E+03  0.10221357464E+04  0.00000000000E+00 0.  1.
        -13    1    3    3    0    0  0.15937418086E+03 -0.16770185975E+03 -0.11919207958E+04  0.12141660623E+04  0.00000000000E+00 0. -1.
         22    1    1    2    0    0 -0.37169324987E+03  0.27135840014E+03  0.88376873774E+03  0.99641278350E+03  0.00000000000E+00 0. -1.
<mgrwt>
<rscale>  0 0.29586590E+04</rscale>
<asrwt>0</asrwt>
<pdfrwt beam="1">  1        2 0.14846994E+00 0.29586590E+04</pdfrwt>
<pdfrwt beam="2">  1       -2 0.34887076E+00 0.29586590E+04</pdfrwt>
<totfact> 0.36042787E-01</totfact>
</mgrwt>
</event>
<event>
 6    1  0.1568961E-005  0.2848814E+04  0.7818608E-02  0.8288272E-01
         -1   -1    0    0    0  501 -0.00000000000E+00  0.00000000000E+00  0.12649000540E+04  0.12649000540E+04  0.00000000000E+00 0.  1.
          1   -1    0    0  501    0  0.00000000000E+00 -0.00000000000E+00 -0.16040286231E+04  0.16040286231E+04  0.00000000000E+00 0. -1.
         23    2    1    2    0    0  0.98572133772E+03  0.81058610909E+03 -0.80351759300E+03  0.15108588846E+04  0.91420188823E+02 0.  0.
         11    1    3    3    0    0  0.37738806862E+03  0.26388141589E+03 -0.31946289382E+03  0.56045668567E+03  0.00000000000E+00 0. -1.
        -11    1    3    3    0    0  0.60833326910E+03  0.54670469320E+03 -0.48405469919E+03  0.95040219890E+03  0.00000000000E+00 0.  1.
         22    1    1    2    0    0 -0.98572133772E+03 -0.81058610909E+03  0.46438902387E+03  0.13580697925E+04  0.00000000000E+00 0.  1.
<mgrwt>
<rscale>  0 0.28488144E+04</rscale>
<asrwt>0</asrwt>
<pdfrwt beam="1">  1        1 0.24677364E+00 0.28488144E+04</pdfrwt>
<pdfrwt beam="2">  1       -1 0.19460001E+00 0.28488144E+04</pdfrwt>
<totfact> 0.78431677E-01</totfact>
</mgrwt>
</event>
<event>
 6    1  0.1568961E-005  0.3332151E+04  0.7818608E-02  0.8154762E-01
          2   -1    0    0  501    0  0.00000000000E+00  0.00000000000E+00  0.23996097712E+04  0.23996097712E+04  0.00000000000E+00 0. -1.
         -2   -1    0    0    0  501 -0.00000000000E+00 -0.00000000000E+00 -0.11567747697E+04  0.11567747697E+04  0.00000000000E+00 0.  1.
         23    2    1    2    0    0 -0.10831804432E+04  0.12422690833E+03  0.19644857082E+04  0.22489091340E+04  0.98366652125E+02 0.  0.
         11    1    3    3    0    0 -0.34032763129E+03  0.40433234917E+02  0.71429275024E+03  0.79225745572E+03  0.00000000000E+00 0.  1.
        -11    1    3    3    0    0 -0.74285281186E+03  0.83793673413E+02  0.12501929579E+04  0.14566516783E+04  0.00000000000E+00 0. -1.
         22    1    1    2    0    0  0.10831804432E+04 -0.12422690833E+03 -0.72165070670E+03  0.13074754069E+04  0.00000000000E+00 0.  1.
<mgrwt>
<rscale>  0 0.33321513E+04</rscale>
<asrwt>0</asrwt>
<pdfrwt beam="1">  1        2 0.36917073E+00 0.33321513E+04</pdfrwt>
<pdfrwt beam="2">  1       -2 0.17796535E+00 0.33321513E+04</pdfrwt>
<totfact> 0.62060489E-01</totfact>
</mgrwt>
</event>
<event>
 6    1  0.1568961E-005  0.3395371E+04  0.7818608E-02  0.8139043E-01
          2   -1    0    0  501    0  0.00000000000E+00  0.00000000000E+00  0.36931230053E+04  0.36931230053E+04  0.00000000000E+00 0. -1.
         -2   -1    0    0    0  501 -0.00000000000E+00 -0.00000000000E+00 -0.78040605478E+03  0.78040605478E+03  0.00000000000E+00 0.  1.
         23    2    1    2    0    0  0.91261449181E+03  0.34783195196E+03  0.32850171758E+04  0.34283210735E+04  0.90527677183E+02 0.  0.
         11    1    3    3    0    0  0.36862791066E+03  0.12692024013E+03  0.14619576973E+04  0.15130484436E+04  0.00000000000E+00 0.  1.
        -11    1    3    3    0    0  0.54398658115E+03  0.22091171182E+03  0.18230594785E+04  0.19152726300E+04  0.00000000000E+00 0. -1.
         22    1    1    2    0    0 -0.91261449181E+03 -0.34783195196E+03 -0.37230022527E+03  0.10452079866E+04  0.00000000000E+00 0.  1.
<mgrwt>
<rscale>  0 0.33953707E+04</rscale>
<asrwt>0</asrwt>
<pdfrwt beam="1">  1        2 0.56817276E+00 0.33953707E+04</pdfrwt>
<pdfrwt beam="2">  1       -2 0.12006247E+00 0.33953707E+04</pdfrwt>
<totfact> 0.25907615E-01</totfact>
</mgrwt>
</event>
<event>
 6    1  0.1568961E-005  0.1834299E+04  0.7818608E-02  0.8688269E-01
          1   -1    0    0  501    0  0.00000000000E+00  0.00000000000E+00  0.10169467507E+04  0.10169467507E+04  0.00000000000E+00 0. -1.
         -1   -1    0    0    0  501 -0.00000000000E+00 -0.00000000000E+00 -0.82714553719E+03  0.82714553719E+03  0.00000000000E+00 0.  1.
         23    2    1    2    0    0  0.22373539730E+03  0.79869032104E+03 -0.29331780567E+03  0.88421326239E+03  0.88509893943E+02 0.  0.
         13    1    3    3    0    0  0.15111230177E+03  0.66145086772E+03 -0.24903306162E+03  0.72275143994E+03  0.00000000000E+00 0.  1.
        -13    1    3    3    0    0  0.72623095531E+02  0.13723945332E+03 -0.44284744052E+02  0.16146182245E+03  0.00000000000E+00 0. -1.
         22    1    1    2    0    0 -0.22373539730E+03 -0.79869032104E+03  0.48311901922E+03  0.95987902554E+03  0.00000000000E+00 0. -1.
<mgrwt>
<rscale>  0 0.18342987E+04</rscale>
<asrwt>0</asrwt>
<pdfrwt beam="1">  1        1 0.15645335E+00 0.18342987E+04</pdfrwt>
<pdfrwt beam="2">  1       -1 0.12725316E+00 0.18342987E+04</pdfrwt>
<totfact> 0.73914563E+00</totfact>
</mgrwt>
</event>
<event>
 6    1  0.1568961E-005  0.3065181E+04  0.7818608E-02  0.8225359E-01
          3   -1    0    0  501    0  0.00000000000E+00  0.00000000000E+00  0.18216777704E+04  0.18216777704E+04  0.00000000000E+00 0. -1.
         -3   -1    0    0    0  501 -0.00000000000E+00 -0.00000000000E+00 -0.12893793923E+04  0.12893793923E+04  0.00000000000E+00 0.  1.
         23    2    1    2    0    0 -0.54229733292E+03 -0.22297279087E+03 -0.11694383538E+04  0.13111373958E+04  0.87703731418E+02 0.  0.
         11    1    3    3    0    0 -0.17299305265E+03 -0.10152860254E+03 -0.33254914452E+03  0.38836012529E+03  0.00000000000E+00 0. -1.
        -11    1    3    3    0    0 -0.36930428027E+03 -0.12144418832E+03 -0.83688920927E+03  0.92277727047E+03  0.00000000000E+00 0.  1.
         22    1    1    2    0    0  0.54229733292E+03  0.22297279087E+03  0.17017367319E+04  0.17999197669E+04  0.00000000000E+00 0. -1.
<mgrwt>
<rscale>  0 0.30651811E+04</rscale>
<asrwt>0</asrwt>
<pdfrwt beam="1">  1        3 0.28025812E+00 0.30651811E+04</pdfrwt>
<pdfrwt beam="2">  1       -3 0.19836606E+00 0.30651811E+04</pdfrwt>
<totfact> 0.16481456E-02</totfact>
</mgrwt>
</event>
<event>
 6    1  0.1568961E-005  0.2011939E+04  0.7818608E-02  0.8601059E-01
          1   -1    0    0  501    0  0.00000000000E+00  0.00000000000E+00  0.17337946153E+04  0.17337946153E+04  0.00000000000E+00 0. -1.
         -1   -1    0    0    0  501 -0.00000000000E+00 -0.00000000000E+00 -0.58367597806E+03  0.58367597806E+03  0.00000000000E+00 0.  1.
         23    2    1    2    0    0 -0.18207199479E+03 -0.98428844248E+03  0.65926836378E+03  0.12026127817E+04  0.98329944407E+02 0.  0.
         11    1    3    3    0    0  0.94585228138E+01 -0.11501803010E+03  0.66798736136E+02  0.13334422391E+03  0.00000000000E+00 0. -1.
        -11    1    3    3    0    0 -0.19153051760E+03 -0.86927041238E+03  0.59246962765E+03  0.10692685578E+04  0.00000000000E+00 0.  1.
         22    1    1    2    0    0  0.18207199479E+03  0.98428844248E+03  0.49085027348E+03  0.11148578117E+04  0.00000000000E+00 0. -1.
<mgrwt>
<rscale>  0 0.20119386E+04</rscale>
<asrwt>0</asrwt>
<pdfrwt beam="1">  1        1 0.26673763E+00 0.20119386E+04</pdfrwt>
<pdfrwt beam="2">  1       -1 0.89796305E-01 0.20119386E+04</pdfrwt>
<totfact> 0.50840465E+00</totfact>
</mgrwt>
</event>
<event>
 6    1  0.1568961E-005  0.1202612E+04  0.7818608E-02  0.9110573E-01
         -2   -1    0    0    0  501 -0.00000000000E+00  0.00000000000E+00  0.21051473241E+03  0.21051473241E+03  0.00000000000E+00 0.  1.
          2   -1    0    0  501    0  0.00000000000E+00 -0.00000000000E+00 -0.17175471506E+04  0.17175471506E+04  0.00000000000E+00 0. -1.
         23    2    1    2    0    0  0.50649609509E+03  0.25068641391E+03 -0.44515174530E+03  0.72516016802E+03  0.91187830810E+02 0.  0.
         11    1    3    3    0    0  0.29148604344E+03  0.17083030169E+03 -0.31239369150E+03  0.46014880635E+03  0.00000000000E+00 0. -1.
        -11    1    3    3    0    0  0.21501005165E+03  0.79856112220E+02 -0.13275805380E+03  0.26501136167E+03  0.00000000000E+00 0.  1.
         22    1    1    2    0    0 -0.50649609509E+03 -0.25068641391E+03 -0.10618806729E+04  0.12029017150E+04  0.00000000000E+00 0. -1.
<mgrwt>
<rscale>  0 0.12026121E+04</rscale>
<asrwt>0</asrwt>
<pdfrwt beam="1">  1        2 0.26423803E+00 0.12026121E+04</pdfrwt>
<pdfrwt beam="2">  1       -2 0.32386881E-01 0.12026121E+04</pdfrwt>
<totfact> 0.83998951E+01</totfact>
</mgrwt>
</event>
<event>
 6    1  0.1568961E-005  0.1905232E+04  0.7818608E-02  0.8652257E-01
         -1   -1    0    0    0  501 -0.00000000000E+00  0.00000000000E+00  0.40906457604E+03  0.40906457604E+03  0.00000000000E+00 0.  1.
          1   -1    0    0  501    0  0.00000000000E+00 -0.00000000000E+00 -0.22184199486E+04  0.22184199486E+04  0.00000000000E+00 0. -1.
         23    2    1    2    0    0 -0.65589939762E+03  0.11252239276E+02  0.41473376240E+02  0.66384054213E+03  0.92917123051E+02 0.  0.
         11    1    3    3    0    0 -0.19008610602E+03  0.10609969916E+02  0.53887316459E+02  0.19786142130E+03  0.00000000000E+00 0. -1.
        -11    1    3    3    0    0 -0.46581329160E+03  0.64226935970E+00 -0.12413940219E+02  0.46597912084E+03  0.00000000000E+00 0.  1.
         22    1    1    2    0    0  0.65589939762E+03 -0.11252239276E+02 -0.18508287488E+04  0.19636439825E+04  0.00000000000E+00 0. -1.
<mgrwt>
<rscale>  0 0.19052318E+04</rscale>
<asrwt>0</asrwt>
<pdfrwt beam="1">  1        1 0.34129538E+00 0.19052318E+04</pdfrwt>
<pdfrwt beam="2">  1       -1 0.62933011E-01 0.19052318E+04</pdfrwt>
<totfact> 0.50697771E+00</totfact>
</mgrwt>
</event>
<event>
 6    1  0.1568961E-005  0.4744845E+04  0.7818608E-02  0.7869120E-01
          3   -1    0    0  501    0  0.00000000000E+00  0.00000000000E+00  0.26946870426E+04  0.26946870426E+04  0.00000000000E+00 0. -1.
         -3   -1    0    0    0  501 -0.00000000000E+00 -0.00000000000E+00 -0.20886985420E+04  0.20886985420E+04  0.00000000000E+00 0.  1.
         23    2    1    2    0    0 -0.21572385101E+04 -0.89619991985E+03 -0.10927391671E+03  0.23403439125E+04  0.91741777274E+02 0.  0.
         13    1    3    3    0    0 -0.80149921429E+03 -0.37522359913E+03 -0.19960633905E+02  0.88520741454E+03  0.00000000000E+00 0. -1.
        -13    1    3    3    0    0 -0.13557392959E+04 -0.52097632072E+03 -0.89313282804E+02  0.14551364979E+04  0.00000000000E+00 0.  1.
         22    1    1    2    0    0  0.21572385101E+04  0.89619991985E+03  0.71526241728E+03  0.24430416721E+04  0.00000000000E+00 0. -1.
<mgrwt>
<rscale>  0 0.47448452E+04</rscale>
<asrwt>0</asrwt>
<pdfrwt beam="1">  1        3 0.41456724E+00 0.47448452E+04</pdfrwt>
<pdfrwt beam="2">  1       -3 0.32133824E+00 0.47448452E+04</pdfrwt>
<totfact> 0.51295750E-04</totfact>
</mgrwt>
</event>
<event>
 6    1  0.1568961E-005  0.3333097E+04  0.7818608E-02  0.8154525E-01
          2   -1    0    0  501    0  0.00000000000E+00  0.00000000000E+00  0.30015324115E+04  0.30015324115E+04  0.00000000000E+00 0.  1.
         -2   -1    0    0    0  501 -0.00000000000E+00 -0.00000000000E+00 -0.92532197840E+03  0.92532197840E+03  0.00000000000E+00 0. -1.
         23    2    1    2    0    0 -0.15667011086E+04  0.18982874024E+03  0.16648016406E+04  0.22959514165E+04  0.96130586610E+02 0.  0.
         11    1    3    3    0    0 -0.10510059383E+04  0.11192527464E+03  0.11756105591E+04  0.15808861237E+04  0.00000000000E+00 0. -1.
        -11    1    3    3    0    0 -0.51569517036E+03  0.77903465595E+02  0.48919108156E+03  0.71506529279E+03  0.00000000000E+00 0.  1.
         22    1    1    2    0    0  0.15667011086E+04 -0.18982874024E+03  0.41140879249E+03  0.16309029735E+04  0.00000000000E+00 0. -1.
<mgrwt>
<rscale>  0 0.33330970E+04</rscale>
<asrwt>0</asrwt>
<pdfrwt beam="1">  1        2 0.46177421E+00 0.33330970E+04</pdfrwt>
<pdfrwt beam="2">  1       -2 0.14235723E+00 0.33330970E+04</pdfrwt>
<totfact> 0.49723824E-01</totfact>
</mgrwt>
</event>
<event>
 6    1  0.1568961E-005  0.1910556E+04  0.7818608E-02  0.8649620E-01
          2   -1    0    0  501    0  0.00000000000E+00  0.00000000000E+00  0.48618956727E+03  0.48618956727E+03  0.00000000000E+00 0. -1.
         -2   -1    0    0    0  501 -0.00000000000E+00 -0.00000000000E+00 -0.18769554441E+04  0.18769554441E+04  0.00000000000E+00 0.  1.
         23    2    1    2    0    0 -0.55094869838E+03  0.14048856565E+03  0.24934998556E+03  0.62727014625E+03  0.89503719184E+02 0.  0.
         13    1    3    3    0    0 -0.45828658438E+03  0.95156809893E+02  0.17331131513E+03  0.49911744494E+03  0.00000000000E+00 0.  1.
        -13    1    3    3    0    0 -0.92662114004E+02  0.45331755754E+02  0.76038670439E+02  0.12815270131E+03  0.00000000000E+00 0. -1.
         22    1    1    2    0    0  0.55094869838E+03 -0.14048856565E+03 -0.16401158624E+04  0.17358748652E+04  0.00000000000E+00 0.  1.
<mgrwt>
<rscale>  0 0.19105561E+04</rscale>
<asrwt>0</asrwt>
<pdfrwt beam="1">  1        2 0.74798393E-01 0.19105561E+04</pdfrwt>
<pdfrwt beam="2">  1       -2 0.28876238E+00 0.19105561E+04</pdfrwt>
<totfact> 0.22185469E+00</totfact>
</mgrwt>
</event>
<event>
 6    1  0.1568961E-005  0.1906052E+04  0.7818608E-02  0.8651850E-01
         -2   -1    0    0    0  501 -0.00000000000E+00  0.00000000000E+00  0.36452456291E+03  0.36452456291E+03  0.00000000000E+00 0.  1.
          2   -1    0    0  501    0  0.00000000000E+00 -0.00000000000E+00 -0.24916258371E+04  0.24916258371E+04  0.00000000000E+00 0. -1.
         23    2    1    2    0    0  0.26947402853E+03  0.42913867057E+03 -0.22715294018E+04  0.23292388945E+04  0.93443854598E+02 0.  0.
         13    1    3    3    0    0  0.64539878249E+02  0.59132950209E+02 -0.52329863099E+03  0.53056908964E+03  0.00000000000E+00 0. -1.
        -13    1    3    3    0    0  0.20493415029E+03  0.37000572036E+03 -0.17482307708E+04  0.17986698049E+04  0.00000000000E+00 0.  1.
         22    1    1    2    0    0 -0.26947402853E+03 -0.42913867057E+03  0.14442812755E+03  0.52691150553E+03  0.00000000000E+00 0.  1.
<mgrwt>
<rscale>  0 0.19060523E+04</rscale>
<asrwt>0</asrwt>
<pdfrwt beam="1">  1        2 0.38332706E+00 0.19060523E+04</pdfrwt>
<pdfrwt beam="2">  1       -2 0.56080701E-01 0.19060523E+04</pdfrwt>
<totfact> 0.98454405E+00</totfact>
</mgrwt>
</event>
<event>
 6    1  0.1568961E-005  0.1635137E+04  0.7818608E-02  0.8799248E-01
         -2   -1    0    0    0  501 -0.00000000000E+00  0.00000000000E+00  0.34235471355E+03  0.34235471355E+03  0.00000000000E+00 0. -1.
          2   -1    0    0  501    0  0.00000000000E+00 -0.00000000000E+00 -0.19524153437E+04  0.19524153437E+04  0.00000000000E+00 0.  1.
         23    2    1    2    0    0  0.67329717181E+03 -0.42723187604E+03 -0.57122764391E+03  0.98517846796E+03  0.91757479715E+02 0.  0.
         13    1    3    3    0    0  0.36219246090E+03 -0.22972505032E+03 -0.36311538299E+03  0.56196953552E+03  0.00000000000E+00 0. -1.
        -13    1    3    3    0    0  0.31110471090E+03 -0.19750682572E+03 -0.20811226092E+03  0.42320893244E+03  0.00000000000E+00 0.  1.
         22    1    1    2    0    0 -0.67329717181E+03  0.42723187604E+03 -0.10388329862E+04  0.13095915893E+04  0.00000000000E+00 0.  1.
<mgrwt>
<rscale>  0 0.16351374E+04</rscale>
<asrwt>0</asrwt>
<pdfrwt beam="1">  1        2 0.30037159E+00 0.16351374E+04</pdfrwt>
<pdfrwt beam="2">  1       -2 0.52669956E-01 0.16351374E+04</pdfrwt>
<totfact> 0.23097678E+01</totfact>
</mgrwt>
</event>
<event>
 6    1  0.1850876E-005  0.2196929E+04  0.7818608E-02  0.8519707E-01
          1   -1    0    0  501    0  0.00000000000E+00  0.00000000000E+00  0.24482245586E+04  0.24482245586E+04  0.00000000000E+00 0. -1.
         -1   -1    0    0    0  501 -0.00000000000E+00 -0.00000000000E+00 -0.49285683207E+03  0.49285683207E+03  0.00000000000E+00 0.  1.
         23    2    1    2    0    0  0.36922477378E+03  0.60398161338E+03 -0.14174887517E+03  0.72770867827E+03  0.91358929180E+02 0.  0.
         11    1    3    3    0    0  0.15865777581E+03  0.25892601681E+03 -0.10707716361E+03  0.32199455115E+03  0.00000000000E+00 0. -1.
        -11    1    3    3    0    0  0.21056699797E+03  0.34505559658E+03 -0.34671711567E+02  0.40571412712E+03  0.00000000000E+00 0.  1.
         22    1    1    2    0    0 -0.36922477378E+03 -0.60398161338E+03  0.20971166017E+04  0.22133727124E+04  0.00000000000E+00 0. -1.
<mgrwt>
<rscale>  0 0.21969289E+04</rscale>
<asrwt>0</asrwt>
<pdfrwt beam="1">  1        1 0.37664993E+00 0.21969289E+04</pdfrwt>
<pdfrwt beam="2">  1       -1 0.75824129E-01 0.21969289E+04</pdfrwt>
<totfact> 0.23447524E+00</totfact>
</mgrwt>
</event>
<event>
 6    1  0.1568961E-005  0.1124228E+04  0.7818608E-02  0.9181894E-01
          1   -1    0    0  501    0  0.00000000000E+00  0.00000000000E+00  0.66433808553E+03  0.66433808553E+03  0.00000000000E+00 0. -1.
         -1   -1    0    0    0  501 -0.00000000000E+00 -0.00000000000E+00 -0.47561980721E+03  0.47561980721E+03  0.00000000000E+00 0.  1.
         23    2    1    2    0    0 -0.32882612239E+03 -0.30193998982E+03 -0.24518677302E+03  0.51740832059E+03  0.91106752395E+02 0.  0.
         13    1    3    3    0    0 -0.19539516387E+03 -0.12018770187E+03 -0.10877628259E+03  0.25388310972E+03  0.00000000000E+00 0. -1.
        -13    1    3    3    0    0 -0.13343095852E+03 -0.18175228795E+03 -0.13641049043E+03  0.26352521087E+03  0.00000000000E+00 0.  1.
         22    1    1    2    0    0  0.32882612239E+03  0.30193998982E+03  0.43390505134E+03  0.62254957216E+03  0.00000000000E+00 0. -1.
<mgrwt>
<rscale>  0 0.11242284E+04</rscale>
<asrwt>0</asrwt>
<pdfrwt beam="1">  1        1 0.10220586E+00 0.11242284E+04</pdfrwt>
<pdfrwt beam="2">  1       -1 0.73172278E-01 0.11242284E+04</pdfrwt>
<totfact> 0.55238453E+01</totfact>
</mgrwt>
</event>
<event>
 6    1  0.1568961E-005  0.1804598E+04  0.7818608E-02  0.8703858E-01
         -1   -1    0    0    0  501 -0.00000000000E+00  0.00000000000E+00  0.47263201181E+03  0.47263201181E+03  0.00000000000E+00 0.  1.
          1   -1    0    0  501    0  0.00000000000E+00 -0.00000000000E+00 -0.17225742689E+04  0.17225742689E+04  0.00000000000E+00 0. -1.
         23    2    1    2    0    0 -0.11195394839E+03 -0.63471075372E+03 -0.13904715822E+04  0.15355549193E+04  0.95531470304E+02 0.  0.
         13    1    3    3    0    0 -0.31880810096E+01 -0.22737906888E+03 -0.42409987407E+03  0.48121939696E+03  0.00000000000E+00 0. -1.
        -13    1    3    3    0    0 -0.10876586738E+03 -0.40733168484E+03 -0.96637170813E+03  0.10543355223E+04  0.00000000000E+00 0.  1.
         22    1    1    2    0    0  0.11195394839E+03  0.63471075372E+03  0.14052932509E+03  0.65965136145E+03  0.00000000000E+00 0.  1.
<mgrwt>
<rscale>  0 0.18045983E+04</rscale>
<asrwt>0</asrwt>
<pdfrwt beam="1">  1        1 0.26501143E+00 0.18045983E+04</pdfrwt>
<pdfrwt beam="2">  1       -1 0.72712617E-01 0.18045983E+04</pdfrwt>
<totfact> 0.82746723E+00</totfact>
</mgrwt>
</event>
<event>
 6    1  0.1568961E-005  0.1072089E+04  0.7818608E-02  0.9232831E-01
          2   -1    0    0  501    0  0.00000000000E+00  0.00000000000E+00  0.20163128119E+04  0.20163128119E+04  0.00000000000E+00 0. -1.
         -2   -1    0    0    0  501 -0.00000000000E+00 -0.00000000000E+00 -0.14250952781E+03  0.14250952781E+03  0.00000000000E+00 0.  1.
         23    2    1    2    0    0 -0.43805798894E+03  0.20955680367E+03  0.49796108033E+03  0.69979847930E+03  0.77096163787E+02 0.  0.
         13    1    3    3    0    0 -0.42687797027E+03  0.18700339937E+03  0.46525060992E+03  0.65852350217E+03  0.00000000000E+00 0. -1.
        -13    1    3    3    0    0 -0.11180018669E+02  0.22553404295E+02  0.32710470406E+02  0.41274977128E+02  0.00000000000E+00 0.  1.
         22    1    1    2    0    0  0.43805798894E+03 -0.20955680367E+03  0.13758422038E+04  0.14590238605E+04  0.00000000000E+00 0. -1.
<mgrwt>
<rscale>  0 0.10720892E+04</rscale>
<asrwt>0</asrwt>
<pdfrwt beam="1">  1        2 0.31020195E+00 0.10720892E+04</pdfrwt>
<pdfrwt beam="2">  1       -2 0.21924544E-01 0.10720892E+04</pdfrwt>
<totfact> 0.11852197E+02</totfact>
</mgrwt>
</event>
<event>
 6    1  0.1568961E-005  0.1421347E+04  0.7818608E-02  0.8938510E-01
          2   -1    0    0  501    0  0.00000000000E+00  0.00000000000E+00  0.19759820114E+04  0.19759820114E+04  0.00000000000E+00 0.  1.
         -2   -1    0    0    0  501 -0.00000000000E+00 -0.00000000000E+00 -0.25559800491E+03  0.25559800491E+03  0.00000000000E+00 0. -1.
         23    2    1    2    0    0  0.40701800410E+03  0.51592349997E+03  0.44903446803E+03  0.80043698975E+03  0.85010044167E+02 0.  0.
         11    1    3    3    0    0  0.15570229670E+03  0.18267715319E+03  0.21312917711E+03  0.32099562868E+03  0.00000000000E+00 0.  1.
        -11    1    3    3    0    0  0.25131570739E+03  0.33324634678E+03  0.23590529091E+03  0.47944136107E+03  0.00000000000E+00 0. -1.
         22    1    1    2    0    0 -0.40701800410E+03 -0.51592349997E+03  0.12713495385E+04  0.14311430265E+04  0.00000000000E+00 0.  1.
<mgrwt>
<rscale>  0 0.14213473E+04</rscale>
<asrwt>0</asrwt>
<pdfrwt beam="1">  1        2 0.30399722E+00 0.14213473E+04</pdfrwt>
<pdfrwt beam="2">  1       -2 0.39322771E-01 0.14213473E+04</pdfrwt>
<totfact> 0.40966005E+01</totfact>
</mgrwt>
</event>
<event>
 6    1  0.1568961E-005  0.3195261E+04  0.7818608E-02  0.8190070E-01
         -2   -1    0    0    0  501 -0.00000000000E+00  0.00000000000E+00  0.99155370129E+03  0.99155370129E+03  0.00000000000E+00 0.  1.
          2   -1    0    0  501    0  0.00000000000E+00 -0.00000000000E+00 -0.25741650484E+04  0.25741650484E+04  0.00000000000E+00 0. -1.
         23    2    1    2    0    0  0.15370192040E+04  0.22114301794E+03 -0.37920969033E+03  0.16011557409E+04  0.92560519223E+02 0.  0.
         11    1    3    3    0    0  0.41763955441E+03  0.78990034805E+02 -0.14187071253E+03  0.44809543859E+03  0.00000000000E+00 0. -1.
        -11    1    3    3    0    0  0.11193796496E+04  0.14215298314E+03 -0.23733897780E+03  0.11530603024E+04  0.00000000000E+00 0.  1.
         22    1    1    2    0    0 -0.15370192040E+04 -0.22114301794E+03 -0.12034016568E+04  0.19645630088E+04  0.00000000000E+00 0. -1.
<mgrwt>
<rscale>  0 0.31952608E+04</rscale>
<asrwt>0</asrwt>
<pdfrwt beam="1">  1        2 0.39602539E+00 0.31952608E+04</pdfrwt>
<pdfrwt beam="2">  1       -2 0.15254672E+00 0.31952608E+04</pdfrwt>
<totfact> 0.76033818E-01</totfact>
</mgrwt>
</event>
<event>
 6    1  0.1568961E-005  0.1265100E+04  0.7818608E-02  0.9057708E-01
         -2   -1    0    0    0  501 -0.00000000000E+00  0.00000000000E+00  0.45984166777E+03  0.45984166777E+03  0.00000000000E+00 0. -1.
          2   -1    0    0  501    0  0.00000000000E+00 -0.00000000000E+00 -0.87012504935E+03  0.87012504935E+03  0.00000000000E+00 0.  1.
         23    2    1    2    0    0  0.15958278708E+03 -0.21896248669E+03  0.39073211941E+03  0.48436807158E+03  0.92355850511E+02 0.  0.
         11    1    3    3    0    0  0.53346943703E+02 -0.49768793457E+02  0.17881973062E+03  0.19313033232E+03  0.00000000000E+00 0. -1.
        -11    1    3    3    0    0  0.10623584338E+03 -0.16919369323E+03  0.21191238879E+03  0.29123773926E+03  0.00000000000E+00 0.  1.
         22    1    1    2    0    0 -0.15958278708E+03  0.21896248669E+03 -0.80101550099E+03  0.84559864553E+03  0.00000000000E+00 0.  1.
<mgrwt>
<rscale>  0 0.12651004E+04</rscale>
<asrwt>0</asrwt>
<pdfrwt beam="1">  1        2 0.13386539E+00 0.12651004E+04</pdfrwt>
<pdfrwt beam="2">  1       -2 0.70744872E-01 0.12651004E+04</pdfrwt>
<totfact> 0.54866277E+01</totfact>
</mgrwt>
</event>
<event>
 6    1  0.1568961E-005  0.4713592E+04  0.7818608E-02  0.7874274E-01
          1   -1    0    0  501    0  0.00000000000E+00  0.00000000000E+00  0.32076511386E+04  0.32076511386E+04  0.00000000000E+00 0. -1.
         -1   -1    0    0    0  501 -0.00000000000E+00 -0.00000000000E+00 -0.17316372680E+04  0.17316372680E+04  0.00000000000E+00 0.  1.
         23    2    1    2    0    0  0.33120825443E+03  0.15985485079E+04  0.25182315159E+04  0.30024678521E+04  0.90923018081E+02 0.  0.
         11    1    3    3    0    0  0.18135103671E+03  0.70028756292E+03  0.11662324392E+04  0.13723661944E+04  0.00000000000E+00 0. -1.
        -11    1    3    3    0    0  0.14985721772E+03  0.89826094501E+03  0.13519990767E+04  0.16301016577E+04  0.00000000000E+00 0.  1.
         22    1    1    2    0    0 -0.33120825443E+03 -0.15985485079E+04 -0.10422176453E+04  0.19368205545E+04  0.00000000000E+00 0.  1.
<mgrwt>
<rscale>  0 0.47135924E+04</rscale>
<asrwt>0</asrwt>
<pdfrwt beam="1">  1        1 0.49348479E+00 0.47135924E+04</pdfrwt>
<pdfrwt beam="2">  1       -1 0.26640573E+00 0.47135924E+04</pdfrwt>
<totfact> 0.16882053E-02</totfact>
</mgrwt>
</event>
<event>
 6    1  0.1568961E-005  0.2125069E+03  0.7818608E-02  0.1139596E+00
          1   -1    0    0  501    0  0.00000000000E+00  0.00000000000E+00  0.14852495734E+03  0.14852495734E+03  0.00000000000E+00 0. -1.
         -1   -1    0    0    0  501 -0.00000000000E+00 -0.00000000000E+00 -0.76012768172E+02  0.76012768172E+02  0.00000000000E+00 0.  1.
         23    2    1    2    0    0  0.60746184470E+02  0.59481920315E+02  0.44708894002E+02  0.13508818111E+03  0.94982807396E+02 0.  0.
         11    1    3    3    0    0  0.57822167841E+02  0.17281714030E+02 -0.14741742290E+02  0.62123906022E+02  0.00000000000E+00 0.  1.
        -11    1    3    3    0    0  0.29240166295E+01  0.42200206284E+02  0.59450636292E+02  0.72964275089E+02  0.00000000000E+00 0. -1.
         22    1    1    2    0    0 -0.60746184470E+02 -0.59481920315E+02  0.27803295171E+02  0.89449544406E+02  0.00000000000E+00 0. -1.
<mgrwt>
<rscale>  0 0.21250688E+03</rscale>
<asrwt>0</asrwt>
<pdfrwt beam="1">  1        1 0.22849993E-01 0.21250688E+03</pdfrwt>
<pdfrwt beam="2">  1       -1 0.11694272E-01 0.21250688E+03</pdfrwt>
<totfact> 0.99744655E+03</totfact>
</mgrwt>
</event>
<event>
 6    1  0.1568961E-005  0.6309969E+04  0.7818608E-02  0.7653114E-01
         -1   -1    0    0    0  501 -0.00000000000E+00  0.00000000000E+00  0.22100167082E+04  0.22100167082E+04  0.00000000000E+00 0.  1.
          1   -1    0    0  501    0  0.00000000000E+00 -0.00000000000E+00 -0.45040047117E+04  0.45040047117E+04  0.00000000000E+00 0. -1.
         23    2    1    2    0    0 -0.11982176930E+04 -0.23705474300E+04  0.66306374241E+03  0.27391785570E+04  0.90691141755E+02 0.  0.
         13    1    3    3    0    0 -0.51042619600E+03 -0.10411572604E+04  0.33349601472E+03  0.12065500132E+04  0.00000000000E+00 0. -1.
        -13    1    3    3    0    0 -0.68779149697E+03 -0.13293901696E+04  0.32956772769E+03  0.15326285438E+04  0.00000000000E+00 0.  1.
         22    1    1    2    0    0  0.11982176930E+04  0.23705474300E+04 -0.29570517458E+04  0.39748428629E+04  0.00000000000E+00 0. -1.
<mgrwt>
<rscale>  0 0.63099685E+04</rscale>
<asrwt>0</asrwt>
<pdfrwt beam="1">  1        1 0.69292380E+00 0.63099685E+04</pdfrwt>
<pdfrwt beam="2">  1       -1 0.34000257E+00 0.63099685E+04</pdfrwt>
<totfact> 0.37332787E-04</totfact>
</mgrwt>
</event>
<event>
 6    1  0.1568961E-005  0.4529124E+04  0.7818608E-02  0.7905558E-01
         -2   -1    0    0    0  501 -0.00000000000E+00  0.00000000000E+00  0.24995994759E+04  0.24995994759E+04  0.00000000000E+00 0.  1.
          2   -1    0    0  501    0  0.00000000000E+00 -0.00000000000E+00 -0.20516248983E+04  0.20516248983E+04  0.00000000000E+00 0. -1.
         23    2    1    2    0    0  0.17130696922E+04 -0.11527516177E+04  0.11562996649E+04  0.23682977855E+04  0.91440818316E+02 0.  0.
         13    1    3    3    0    0  0.45435654707E+03 -0.34969150402E+03  0.34225420511E+03  0.66772895756E+03  0.00000000000E+00 0. -1.
        -13    1    3    3    0    0  0.12587131452E+04 -0.80306011363E+03  0.81404545976E+03  0.17005688279E+04  0.00000000000E+00 0.  1.
         22    1    1    2    0    0 -0.17130696922E+04  0.11527516177E+04 -0.70832508733E+03  0.21829265887E+04  0.00000000000E+00 0.  1.
<mgrwt>
<rscale>  0 0.45291238E+04</rscale>
<asrwt>0</asrwt>
<pdfrwt beam="1">  1        2 0.31563460E+00 0.45291238E+04</pdfrwt>
<pdfrwt beam="2">  1       -2 0.38455376E+00 0.45291238E+04</pdfrwt>
<totfact> 0.44226210E-02</totfact>
</mgrwt>
</event>
<event>
 6    1  0.1568961E-005  0.1575173E+04  0.7818608E-02  0.8835947E-01
          2   -1    0    0  501    0  0.00000000000E+00  0.00000000000E+00  0.76776895946E+03  0.76776895946E+03  0.00000000000E+00 0.  1.
         -2   -1    0    0    0  501 -0.00000000000E+00 -0.00000000000E+00 -0.80791526977E+03  0.80791526977E+03  0.00000000000E+00 0. -1.
         23    2    1    2    0    0 -0.47523850293E+03 -0.20776049604E+03 -0.60936349693E+03  0.80560354259E+03  0.93043742759E+02 0.  0.
         11    1    3    3    0    0 -0.28776699854E+03 -0.87016158319E+02 -0.39395278779E+03  0.49556074932E+03  0.00000000000E+00 0. -1.
        -11    1    3    3    0    0 -0.18747150439E+03 -0.12074433772E+03 -0.21541070913E+03  0.31004279327E+03  0.00000000000E+00 0.  1.
         22    1    1    2    0    0  0.47523850293E+03  0.20776049604E+03  0.56921718662E+03  0.77008068664E+03  0.00000000000E+00 0.  1.
<mgrwt>
<rscale>  0 0.15751727E+04</rscale>
<asrwt>0</asrwt>
<pdfrwt beam="1">  1        2 0.11811830E+00 0.15751727E+04</pdfrwt>
<pdfrwt beam="2">  1       -2 0.12429466E+00 0.15751727E+04</pdfrwt>
<totfact> 0.16991989E+01</totfact>
</mgrwt>
</event>
<event>
 6    1  0.1568961E-005  0.5588096E+04  0.7818608E-02  0.7743682E-01
         -2   -1    0    0    0  501 -0.00000000000E+00  0.00000000000E+00  0.20989665569E+04  0.20989665569E+04  0.00000000000E+00 0. -1.
          2   -1    0    0  501    0  0.00000000000E+00 -0.00000000000E+00 -0.37193088320E+04  0.37193088320E+04  0.00000000000E+00 0.  1.
         23    2    1    2    0    0 -0.15179986068E+04 -0.50440554409E+03  0.15738847348E+04  0.22459048994E+04  0.90724502695E+02 0.  0.
         11    1    3    3    0    0 -0.93435029273E+02 -0.29405186974E+02  0.12915541041E+03  0.16209839529E+03  0.00000000000E+00 0.  1.
        -11    1    3    3    0    0 -0.14245635775E+04 -0.47500035711E+03  0.14447293244E+04  0.20838065041E+04  0.00000000000E+00 0. -1.
         22    1    1    2    0    0  0.15179986068E+04  0.50440554409E+03 -0.31942270099E+04  0.35723704895E+04  0.00000000000E+00 0.  1.
<mgrwt>
<rscale>  0 0.55880962E+04</rscale>
<asrwt>0</asrwt>
<pdfrwt beam="1">  1        2 0.57220136E+00 0.55880962E+04</pdfrwt>
<pdfrwt beam="2">  1       -2 0.32291793E+00 0.55880962E+04</pdfrwt>
<totfact> 0.89864323E-03</totfact>
</mgrwt>
</event>
<event>
 6    1  0.1568961E-005  0.1847585E+04  0.7818608E-02  0.8681396E-01
         -2   -1    0    0    0  501 -0.00000000000E+00  0.00000000000E+00  0.13518047124E+04  0.13518047124E+04  0.00000000000E+00 0.  1.
          2   -1    0    0  501    0  0.00000000000E+00 -0.00000000000E+00 -0.63129842745E+03  0.63129842745E+03  0.00000000000E+00 0. -1.
         23    2    1    2    0    0  0.62124289703E+03 -0.62147340274E+03  0.62771060481E+02  0.88547499110E+03  0.89184227392E+02 0.  0.
         13    1    3    3    0    0  0.18903781267E+03 -0.16815822490E+03  0.55867609953E+02  0.25910166550E+03  0.00000000000E+00 0. -1.
        -13    1    3    3    0    0  0.43220508435E+03 -0.45331517784E+03  0.69034505286E+01  0.62637332560E+03  0.00000000000E+00 0.  1.
         22    1    1    2    0    0 -0.62124289703E+03  0.62147340274E+03  0.65773522448E+03  0.10976281488E+04  0.00000000000E+00 0.  1.
<mgrwt>
<rscale>  0 0.18475846E+04</rscale>
<asrwt>0</asrwt>
<pdfrwt beam="1">  1        2 0.97122835E-01 0.18475846E+04</pdfrwt>
<pdfrwt beam="2">  1       -2 0.20796996E+00 0.18475846E+04</pdfrwt>
<totfact> 0.51696100E+00</totfact>
</mgrwt>
</event>
<event>
 6    1  0.1568961E-005  0.1638881E+04  0.7818608E-02  0.8797011E-01
          2   -1    0    0  501    0  0.00000000000E+00  0.00000000000E+00  0.99996898416E+03  0.99996898416E+03  0.00000000000E+00 0.  1.
         -2   -1    0    0    0  501 -0.00000000000E+00 -0.00000000000E+00 -0.67150379469E+03  0.67150379469E+03  0.00000000000E+00 0. -1.
         23    2    1    2    0    0  0.15996280957E+03  0.53889871349E+03  0.77028817190E+03  0.95648503654E+03  0.74295581962E+02 0.  0.
         11    1    3    3    0    0  0.10827589876E+03  0.25155573090E+03  0.34175286970E+03  0.43794860423E+03  0.00000000000E+00 0. -1.
        -11    1    3    3    0    0  0.51686910804E+02  0.28734298260E+03  0.42853530220E+03  0.51853643230E+03  0.00000000000E+00 0.  1.
         22    1    1    2    0    0 -0.15996280957E+03 -0.53889871349E+03 -0.44182298243E+03  0.71498774231E+03  0.00000000000E+00 0. -1.
<mgrwt>
<rscale>  0 0.16388813E+04</rscale>
<asrwt>0</asrwt>
<pdfrwt beam="1">  1        2 0.15384138E+00 0.16388813E+04</pdfrwt>
<pdfrwt beam="2">  1       -2 0.10330828E+00 0.16388813E+04</pdfrwt>
<totfact> 0.18409717E+01</totfact>
</mgrwt>
</event>
<event>
 6    1  0.1568961E-005  0.6593447E+03  0.7818608E-02  0.9789401E-01
          2   -1    0    0  501    0  0.00000000000E+00  0.00000000000E+00  0.19151451148E+03  0.19151451148E+03  0.00000000000E+00 0. -1.
         -2   -1    0    0    0  501 -0.00000000000E+00 -0.00000000000E+00 -0.56749666514E+03  0.56749666514E+03  0.00000000000E+00 0.  1.
         23    2    1    2    0    0  0.20734935364E+03 -0.22201060036E+03 -0.30762820070E+03  0.44763564127E+03  0.11601765530E+03 0.  0.
         11    1    3    3    0    0  0.18161056723E+03 -0.21447330584E+03 -0.31260223328E+03  0.42035860084E+03  0.00000000000E+00 0. -1.
        -11    1    3    3    0    0  0.25738786411E+02 -0.75372945254E+01  0.49740325810E+01  0.27277040433E+02  0.00000000000E+00 0.  1.
         22    1    1    2    0    0 -0.20734935364E+03  0.22201060036E+03 -0.68353952958E+02  0.31137553535E+03  0.00000000000E+00 0.  1.
<mgrwt>
<rscale>  0 0.65934466E+03</rscale>
<asrwt>0</asrwt>
<pdfrwt beam="1">  1        2 0.29463772E-01 0.65934466E+03</pdfrwt>
<pdfrwt beam="2">  1       -2 0.87307177E-01 0.65934466E+03</pdfrwt>
<totfact> 0.20809043E+02</totfact>
</mgrwt>
</event>
<event>
 6    1  0.1568961E-005  0.1027421E+04  0.7818608E-02  0.9278971E-01
         -1   -1    0    0    0  501 -0.00000000000E+00  0.00000000000E+00  0.29524867085E+03  0.29524867085E+03  0.00000000000E+00 0.  1.
          1   -1    0    0  501    0  0.00000000000E+00 -0.00000000000E+00 -0.89381744627E+03  0.89381744627E+03  0.00000000000E+00 0. -1.
         23    2    1    2    0    0 -0.29127308453E+03  0.32223059463E+03  0.34073423265E+01  0.44674016970E+03  0.10436763554E+03 0.  0.
         11    1    3    3    0    0 -0.40962682808E+02  0.10577970418E+03 -0.19216989453E+02  0.11505033630E+03  0.00000000000E+00 0. -1.
        -11    1    3    3    0    0 -0.25031040173E+03  0.21645089045E+03  0.22624331780E+02  0.33168983340E+03  0.00000000000E+00 0.  1.
         22    1    1    2    0    0  0.29127308453E+03 -0.32223059463E+03 -0.60197611774E+03  0.74232594743E+03  0.00000000000E+00 0. -1.
<mgrwt>
<rscale>  0 0.10274209E+04</rscale>
<asrwt>0</asrwt>
<pdfrwt beam="1">  1        1 0.13751038E+00 0.10274209E+04</pdfrwt>
<pdfrwt beam="2">  1       -1 0.45422873E-01 0.10274209E+04</pdfrwt>
<totfact> 0.88636405E+01</totfact>
</mgrwt>
</event>
<event>
 6    1  0.1568961E-005  0.3297662E+04  0.7818608E-02  0.8163491E-01
          1   -1    0    0  501    0  0.00000000000E+00  0.00000000000E+00  0.16068997800E+04  0.16068997800E+04  0.00000000000E+00 0. -1.
         -1   -1    0    0    0  501 -0.00000000000E+00 -0.00000000000E+00 -0.16918563344E+04  0.16918563344E+04  0.00000000000E+00 0.  1.
         23    2    1    2    0    0 -0.13366521977E+04  0.95586017134E+03  0.76468217759E+02  0.16475850991E+04  0.91550562939E+02 0.  0.
         11    1    3    3    0    0 -0.58472190450E+03  0.44903092870E+03  0.72312647880E+02  0.74078174895E+03  0.00000000000E+00 0.  1.
        -11    1    3    3    0    0 -0.75193029324E+03  0.50682924264E+03  0.41555698788E+01  0.90680335015E+03  0.00000000000E+00 0. -1.
         22    1    1    2    0    0  0.13366521977E+04 -0.95586017134E+03 -0.16142477217E+03  0.16511710154E+04  0.00000000000E+00 0. -1.
<mgrwt>
<rscale>  0 0.32976619E+04</rscale>
<asrwt>0</asrwt>
<pdfrwt beam="1">  1        1 0.24721535E+00 0.32976619E+04</pdfrwt>
<pdfrwt beam="2">  1       -1 0.26028559E+00 0.32976619E+04</pdfrwt>
<totfact> 0.27363407E-01</totfact>
</mgrwt>
</event>
<event>
 6    1  0.1568961E-005  0.1689338E+04  0.7818608E-02  0.8767469E-01
          2   -1    0    0  501    0  0.00000000000E+00  0.00000000000E+00  0.13276245923E+04  0.13276245923E+04  0.00000000000E+00 0. -1.
         -2   -1    0    0    0  501 -0.00000000000E+00 -0.00000000000E+00 -0.53740038569E+03  0.53740038569E+03  0.00000000000E+00 0.  1.
         23    2    1    2    0    0  0.27134011127E+03 -0.59014412360E+03  0.98810517646E+03  0.11860165680E+04  0.91585572589E+02 0.  0.
         13    1    3    3    0    0  0.11457861993E+03 -0.23158719466E+03  0.31489689890E+03  0.40733394876E+03  0.00000000000E+00 0. -1.
        -13    1    3    3    0    0  0.15676149134E+03 -0.35855692895E+03  0.67320827756E+03  0.77868261920E+03  0.00000000000E+00 0.  1.
         22    1    1    2    0    0 -0.27134011127E+03  0.59014412360E+03 -0.19788096988E+03  0.67900841000E+03  0.00000000000E+00 0.  1.
<mgrwt>
<rscale>  0 0.16893383E+04</rscale>
<asrwt>0</asrwt>
<pdfrwt beam="1">  1        2 0.20424994E+00 0.16893383E+04</pdfrwt>
<pdfrwt beam="2">  1       -2 0.82676982E-01 0.16893383E+04</pdfrwt>
<totfact> 0.19469654E+01</totfact>
</mgrwt>
</event>
<event>
 6    1  0.1568961E-005  0.7876125E+03  0.7818608E-02  0.9578123E-01
         -3   -1    0    0    0  501 -0.00000000000E+00  0.00000000000E+00  0.26005454417E+03  0.26005454417E+03  0.00000000000E+00 0.  1.
          3   -1    0    0  501    0  0.00000000000E+00 -0.00000000000E+00 -0.59634938867E+03  0.59634938867E+03  0.00000000000E+00 0. -1.
         23    2    1    2    0    0 -0.24306455804E+03  0.74410876820E+02  0.14951105296E+03  0.30811137593E+03  0.89228398243E+02 0.  0.
         11    1    3    3    0    0 -0.20150587833E+03  0.30337599178E+02  0.88595965526E+02  0.22220313687E+03  0.00000000000E+00 0. -1.
        -11    1    3    3    0    0 -0.41558679712E+02  0.44073277642E+02  0.60915087433E+02  0.85908239061E+02  0.00000000000E+00 0.  1.
         22    1    1    2    0    0  0.24306455804E+03 -0.74410876820E+02 -0.48580589746E+03  0.54829255692E+03  0.00000000000E+00 0. -1.
<mgrwt>
<rscale>  0 0.78761251E+03</rscale>
<asrwt>0</asrwt>
<pdfrwt beam="1">  1        3 0.91746059E-01 0.78761251E+03</pdfrwt>
<pdfrwt beam="2">  1       -3 0.40008392E-01 0.78761251E+03</pdfrwt>
<totfact> 0.17481742E+01</totfact>
</mgrwt>
</event>
<event>
 6    1  0.1568961E-005  0.1443842E+04  0.7818608E-02  0.8922681E-01
         -2   -1    0    0    0  501 -0.00000000000E+00  0.00000000000E+00  0.56831750805E+03  0.56831750805E+03  0.00000000000E+00 0.  1.
          2   -1    0    0  501    0  0.00000000000E+00 -0.00000000000E+00 -0.91703975485E+03  0.91703975485E+03  0.00000000000E+00 0. -1.
         23    2    1    2    0    0 -0.53991443998E+03 -0.43042759772E+03 -0.38104804166E+03  0.79411166517E+03  0.92952715519E+02 0.  0.
         11    1    3    3    0    0 -0.13236057074E+03 -0.73621008872E+02 -0.51034183614E+02  0.15982447100E+03  0.00000000000E+00 0. -1.
        -11    1    3    3    0    0 -0.40755386924E+03 -0.35680658884E+03 -0.33001385804E+03  0.63428719416E+03  0.00000000000E+00 0.  1.
         22    1    1    2    0    0  0.53991443998E+03  0.43042759772E+03  0.32325794853E+02  0.69124559774E+03  0.00000000000E+00 0. -1.
<mgrwt>
<rscale>  0 0.14438417E+04</rscale>
<asrwt>0</asrwt>
<pdfrwt beam="1">  1        2 0.14108304E+00 0.14438417E+04</pdfrwt>
<pdfrwt beam="2">  1       -2 0.87433463E-01 0.14438417E+04</pdfrwt>
<totfact> 0.31304621E+01</totfact>
</mgrwt>
</event>
<event>
 6    1  0.1568961E-005  0.3733602E+04  0.7818608E-02  0.8060556E-01
          2   -1    0    0  501    0  0.00000000000E+00  0.00000000000E+00  0.28455489776E+04  0.28455489776E+04  0.00000000000E+00 0.  1.
         -2   -1    0    0    0  501 -0.00000000000E+00 -0.00000000000E+00 -0.12247009229E+04  0.12247009229E+04  0.00000000000E+00 0. -1.
         23    2    1    2    0    0  0.18582503288E+04 -0.16670930285E+03  0.81557578073E+03  0.20381697565E+04  0.89921220448E+02 0.  0.
         13    1    3    3    0    0  0.58934077140E+03 -0.39660391460E+02  0.21516110037E+03  0.62864122566E+03  0.00000000000E+00 0.  1.
        -13    1    3    3    0    0  0.12689095574E+04 -0.12704891139E+03  0.60041468037E+03  0.14095285308E+04  0.00000000000E+00 0. -1.
         22    1    1    2    0    0 -0.18582503288E+04  0.16670930285E+03  0.80527227399E+03  0.20320801440E+04  0.00000000000E+00 0. -1.
<mgrwt>
<rscale>  0 0.37336023E+04</rscale>
<asrwt>0</asrwt>
<pdfrwt beam="1">  1        2 0.43777676E+00 0.37336023E+04</pdfrwt>
<pdfrwt beam="2">  1       -2 0.18841553E+00 0.37336023E+04</pdfrwt>
<totfact> 0.27773252E-01</totfact>
</mgrwt>
</event>
<event>
 6    1  0.1568961E-005  0.2018307E+04  0.7818608E-02  0.8598109E-01
          1   -1    0    0  501    0  0.00000000000E+00  0.00000000000E+00  0.18398004537E+04  0.18398004537E+04  0.00000000000E+00 0. -1.
         -1   -1    0    0    0  501 -0.00000000000E+00 -0.00000000000E+00 -0.55353315213E+03  0.55353315213E+03  0.00000000000E+00 0.  1.
         23    2    1    2    0    0  0.10025791961E+04 -0.92182099858E+02  0.66603598360E+03  0.12108153303E+04  0.93846942582E+02 0.  0.
         11    1    3    3    0    0  0.82284893613E+03 -0.10425624653E+03  0.52033660986E+03  0.97913223019E+03  0.00000000000E+00 0.  1.
        -11    1    3    3    0    0  0.17973026002E+03  0.12074146672E+02  0.14569937374E+03  0.23168310015E+03  0.00000000000E+00 0. -1.
         22    1    1    2    0    0 -0.10025791961E+04  0.92182099858E+02  0.62023131795E+03  0.11825182755E+04  0.00000000000E+00 0.  1.
<mgrwt>
<rscale>  0 0.20183068E+04</rscale>
<asrwt>0</asrwt>
<pdfrwt beam="1">  1        1 0.28304622E+00 0.20183068E+04</pdfrwt>
<pdfrwt beam="2">  1       -1 0.85158947E-01 0.20183068E+04</pdfrwt>
<totfact> 0.48338166E+00</totfact>
</mgrwt>
</event>
<event>
 6    1  0.1568961E-005  0.9395214E+03  0.7818608E-02  0.9377483E-01
          1   -1    0    0  501    0  0.00000000000E+00  0.00000000000E+00  0.76939228775E+03  0.76939228775E+03  0.00000000000E+00 0. -1.
         -1   -1    0    0    0  501 -0.00000000000E+00 -0.00000000000E+00 -0.28681745495E+03  0.28681745495E+03  0.00000000000E+00 0.  1.
         23    2    1    2    0    0  0.11251274099E+03  0.31666650198E+03  0.60556353821E+03  0.69835081516E+03  0.89721078101E+02 0.  0.
         11    1    3    3    0    0 -0.46647101617E+01  0.10321808135E+03  0.15677079454E+03  0.18775732704E+03  0.00000000000E+00 0.  1.
        -11    1    3    3    0    0  0.11717745116E+03  0.21344842063E+03  0.44879274368E+03  0.51059348812E+03  0.00000000000E+00 0. -1.
         22    1    1    2    0    0 -0.11251274099E+03 -0.31666650198E+03 -0.12298870542E+03  0.35785892754E+03  0.00000000000E+00 0.  1.
<mgrwt>
<rscale>  0 0.93952145E+03</rscale>
<asrwt>0</asrwt>
<pdfrwt beam="1">  1        1 0.11836804E+00 0.93952145E+03</pdfrwt>
<pdfrwt beam="2">  1       -1 0.44125763E-01 0.93952145E+03</pdfrwt>
<totfact> 0.12014889E+02</totfact>
</mgrwt>
</event>
<event>
 6    1  0.1568961E-005  0.2032867E+04  0.7818608E-02  0.8591406E-01
          1   -1    0    0  501    0  0.00000000000E+00  0.00000000000E+00  0.97940591339E+03  0.97940591339E+03  0.00000000000E+00 0. -1.
         -1   -1    0    0    0  501 -0.00000000000E+00 -0.00000000000E+00 -0.10548612578E+04  0.10548612578E+04  0.00000000000E+00 0.  1.
         23    2    1    2    0    0  0.88722693559E+03 -0.28220773125E+03  0.36534162426E+03  0.10041629015E+04  0.89754061616E+02 0.  0.
         11    1    3    3    0    0  0.67267388204E+03 -0.22974688367E+03  0.24026710034E+03  0.75033463310E+03  0.00000000000E+00 0. -1.
        -11    1    3    3    0    0  0.21455305355E+03 -0.52460847582E+02  0.12507452392E+03  0.25382826842E+03  0.00000000000E+00 0.  1.
         22    1    1    2    0    0 -0.88722693559E+03  0.28220773125E+03 -0.44079696870E+03  0.10301042697E+04  0.00000000000E+00 0.  1.
<mgrwt>
<rscale>  0 0.20328673E+04</rscale>
<asrwt>0</asrwt>
<pdfrwt beam="1">  1        1 0.15067783E+00 0.20328673E+04</pdfrwt>
<pdfrwt beam="2">  1       -1 0.16228635E+00 0.20328673E+04</pdfrwt>
<totfact> 0.40803623E+00</totfact>
</mgrwt>
</event>
<event>
 6    1  0.1967819E-005  0.3686536E+04  0.7818608E-02  0.8070952E-01
         -1   -1    0    0    0  501 -0.00000000000E+00  0.00000000000E+00  0.12214894545E+04  0.12214894545E+04  0.00000000000E+00 0.  1.
          1   -1    0    0  501    0  0.00000000000E+00 -0.00000000000E+00 -0.27815523869E+04  0.27815523869E+04  0.00000000000E+00 0. -1.
         23    2    1    2    0    0  0.12060330557E+04 -0.38849481471E+02  0.73076943907E+03  0.14138454471E+04  0.94392591977E+02 0.  0.
         11    1    3    3    0    0  0.72477940209E+03  0.14469943598E+02  0.40684853923E+03  0.83128833435E+03  0.00000000000E+00 0. -1.
        -11    1    3    3    0    0  0.48125365366E+03 -0.53319425070E+02  0.32392089984E+03  0.58255711274E+03  0.00000000000E+00 0.  1.
         22    1    1    2    0    0 -0.12060330557E+04  0.38849481471E+02 -0.22908323715E+04  0.25891963943E+04  0.00000000000E+00 0. -1.
<mgrwt>
<rscale>  0 0.36865360E+04</rscale>
<asrwt>0</asrwt>
<pdfrwt beam="1">  1        1 0.42793114E+00 0.36865360E+04</pdfrwt>
<pdfrwt beam="2">  1       -1 0.18792145E+00 0.36865360E+04</pdfrwt>
<totfact> 0.12605249E-01</totfact>
</mgrwt>
</event>
<event>
 6    1  0.1568961E-005  0.2787523E+04  0.7818608E-02  0.8307153E-01
          1   -1    0    0  501    0  0.00000000000E+00  0.00000000000E+00  0.10903705695E+04  0.10903705695E+04  0.00000000000E+00 0. -1.
         -1   -1    0    0    0  501 -0.00000000000E+00 -0.00000000000E+00 -0.17815694596E+04  0.17815694596E+04  0.00000000000E+00 0.  1.
         23    2    1    2    0    0 -0.43331249411E+03  0.58290970707E+02 -0.17078173516E+04  0.17652916427E+04  0.91961526958E+02 0.  0.
         13    1    3    3    0    0 -0.30432619183E+03  0.24839136145E+02 -0.13320288975E+04  0.13665768904E+04  0.00000000000E+00 0. -1.
        -13    1    3    3    0    0 -0.12898630228E+03  0.33451834562E+02 -0.37578845418E+03  0.39871475231E+03  0.00000000000E+00 0.  1.
         22    1    1    2    0    0  0.43331249411E+03 -0.58290970707E+02  0.10166184615E+04  0.11066483864E+04  0.00000000000E+00 0. -1.
<mgrwt>
<rscale>  0 0.27875228E+04</rscale>
<asrwt>0</asrwt>
<pdfrwt beam="1">  1        1 0.16774932E+00 0.27875228E+04</pdfrwt>
<pdfrwt beam="2">  1       -1 0.27408761E+00 0.27875228E+04</pdfrwt>
<totfact> 0.54311216E-01</totfact>
</mgrwt>
</event>
<event>
 6    1  0.1568961E-005  0.1311399E+04  0.7818608E-02  0.9020574E-01
         -1   -1    0    0    0  501 -0.00000000000E+00  0.00000000000E+00  0.25700410564E+03  0.25700410564E+03  0.00000000000E+00 0.  1.
          1   -1    0    0  501    0  0.00000000000E+00 -0.00000000000E+00 -0.16728987630E+04  0.16728987630E+04  0.00000000000E+00 0. -1.
         23    2    1    2    0    0  0.33681021872E+03  0.41326072445E+03 -0.12652420679E+04  0.13758976768E+04  0.89617950362E+02 0.  0.
         13    1    3    3    0    0  0.62250573005E+02  0.75093450808E+02 -0.33147429665E+03  0.34552766826E+03  0.00000000000E+00 0.  1.
        -13    1    3    3    0    0  0.27455964572E+03  0.33816727364E+03 -0.93376777122E+03  0.10303700086E+04  0.00000000000E+00 0. -1.
         22    1    1    2    0    0 -0.33681021872E+03 -0.41326072445E+03 -0.15065258948E+03  0.55400519179E+03  0.00000000000E+00 0.  1.
<mgrwt>
<rscale>  0 0.13113990E+04</rscale>
<asrwt>0</asrwt>
<pdfrwt beam="1">  1        1 0.25736905E+00 0.13113990E+04</pdfrwt>
<pdfrwt beam="2">  1       -1 0.39539092E-01 0.13113990E+04</pdfrwt>
<totfact> 0.30381255E+01</totfact>
</mgrwt>
</event>
<event>
 6    1  0.1568961E-005  0.2838786E+04  0.7818608E-02  0.8291327E-01
          2   -1    0    0  501    0  0.00000000000E+00  0.00000000000E+00  0.15133688519E+04  0.15133688519E+04  0.00000000000E+00 0. -1.
         -2   -1    0    0    0  501 -0.00000000000E+00 -0.00000000000E+00 -0.13312527283E+04  0.13312527283E+04  0.00000000000E+00 0.  1.
         23    2    1    2    0    0 -0.16351123590E+02 -0.96253502345E+03 -0.95206513735E+03  0.13569696844E+04  0.90540974244E+02 0.  0.
         13    1    3    3    0    0  0.20241413451E+02 -0.41282112026E+03 -0.35855258918E+03  0.54716629224E+03  0.00000000000E+00 0.  1.
        -13    1    3    3    0    0 -0.36592537041E+02 -0.54971390319E+03 -0.59351254817E+03  0.80980339217E+03  0.00000000000E+00 0. -1.
         22    1    1    2    0    0  0.16351123590E+02  0.96253502345E+03  0.11341812609E+04  0.14876518958E+04  0.00000000000E+00 0. -1.
<mgrwt>
<rscale>  0 0.28387859E+04</rscale>
<asrwt>0</asrwt>
<pdfrwt beam="1">  1        2 0.23282598E+00 0.28387859E+04</pdfrwt>
<pdfrwt beam="2">  1       -2 0.20480811E+00 0.28387859E+04</pdfrwt>
<totfact> 0.13388279E+00</totfact>
</mgrwt>
</event>
<event>
 6    1  0.1568961E-005  0.9250363E+03  0.7818608E-02  0.9394815E-01
          1   -1    0    0  501    0  0.00000000000E+00  0.00000000000E+00  0.25826595728E+04  0.25826595728E+04  0.00000000000E+00 0. -1.
         -1   -1    0    0    0  501 -0.00000000000E+00 -0.00000000000E+00 -0.82830519855E+02  0.82830519855E+02  0.00000000000E+00 0.  1.
         23    2    1    2    0    0 -0.11451384771E+02  0.45663369531E+03  0.13578004085E+04  0.14355002997E+04  0.91617112846E+02 0.  0.
         11    1    3    3    0    0 -0.46261312158E+02  0.33934974945E+03  0.95664029008E+03  0.10160998996E+04  0.00000000000E+00 0. -1.
        -11    1    3    3    0    0  0.34809927387E+02  0.11728394586E+03  0.40116011838E+03  0.41940040007E+03  0.00000000000E+00 0.  1.
         22    1    1    2    0    0  0.11451384771E+02 -0.45663369531E+03  0.11420286444E+04  0.12299897929E+04  0.00000000000E+00 0. -1.
<mgrwt>
<rscale>  0 0.92503629E+03</rscale>
<asrwt>0</asrwt>
<pdfrwt beam="1">  1        1 0.39733218E+00 0.92503629E+03</pdfrwt>
<pdfrwt beam="2">  1       -1 0.12743159E-01 0.92503629E+03</pdfrwt>
<totfact> 0.52123203E+01</totfact>
</mgrwt>
</event>
<event>
 6    1  0.1568961E-005  0.1368167E+04  0.7818608E-02  0.8977189E-01
          1   -1    0    0  501    0  0.00000000000E+00  0.00000000000E+00  0.19411610927E+04  0.19411610927E+04  0.00000000000E+00 0. -1.
         -1   -1    0    0    0  501 -0.00000000000E+00 -0.00000000000E+00 -0.24107753864E+03  0.24107753864E+03  0.00000000000E+00 0.  1.
         23    2    1    2    0    0  0.54033182307E+03 -0.31277515619E+03  0.12883016513E+04  0.14343408357E+04  0.88463047815E+02 0.  0.
         11    1    3    3    0    0  0.14905468312E+03 -0.10059738617E+03  0.46237568497E+03  0.49611330028E+03  0.00000000000E+00 0. -1.
        -11    1    3    3    0    0  0.39127713995E+03 -0.21217777002E+03  0.82592596630E+03  0.93822753538E+03  0.00000000000E+00 0.  1.
         22    1    1    2    0    0 -0.54033182307E+03  0.31277515619E+03  0.41178190283E+03  0.74789779572E+03  0.00000000000E+00 0.  1.
<mgrwt>
<rscale>  0 0.13681672E+04</rscale>
<asrwt>0</asrwt>
<pdfrwt beam="1">  1        1 0.29864016E+00 0.13681672E+04</pdfrwt>
<pdfrwt beam="2">  1       -1 0.37088853E-01 0.13681672E+04</pdfrwt>
<totfact> 0.22339150E+01</totfact>
</mgrwt>
</event>
<event>
 6    1  0.1568961E-005  0.2098116E+04  0.7818608E-02  0.8562074E-01
         -2   -1    0    0    0  501 -0.00000000000E+00  0.00000000000E+00  0.24984353857E+03  0.24984353857E+03  0.00000000000E+00 0.  1.
          2   -1    0    0  501    0  0.00000000000E+00 -0.00000000000E+00 -0.44048484776E+04  0.44048484776E+04  0.00000000000E+00 0. -1.
         23    2    1    2    0    0 -0.55151167383E+03  0.69979319469E+03 -0.86220700736E+03  0.12434761244E+04  0.94637765293E+02 0.  0.
         13    1    3    3    0    0 -0.15209939294E+03  0.25674066065E+03 -0.25900315032E+03  0.39513620948E+03  0.00000000000E+00 0.  1.
        -13    1    3    3    0    0 -0.39941228089E+03  0.44305253404E+03 -0.60320385704E+03  0.84833991489E+03  0.00000000000E+00 0. -1.
         22    1    1    2    0    0  0.55151167383E+03 -0.69979319469E+03 -0.32927979317E+04  0.34112158918E+04  0.00000000000E+00 0. -1.
<mgrwt>
<rscale>  0 0.20981162E+04</rscale>
<asrwt>0</asrwt>
<pdfrwt beam="1">  1        2 0.67766899E+00 0.20981162E+04</pdfrwt>
<pdfrwt beam="2">  1       -2 0.38437468E-01 0.20981162E+04</pdfrwt>
<totfact> 0.90660483E-01</totfact>
</mgrwt>
</event>
<event>
 6    1  0.1568961E-005  0.1965968E+04  0.7818608E-02  0.8622699E-01
         -1   -1    0    0    0  501 -0.00000000000E+00  0.00000000000E+00  0.51793745196E+03  0.51793745196E+03  0.00000000000E+00 0.  1.
          1   -1    0    0  501    0  0.00000000000E+00 -0.00000000000E+00 -0.18655871092E+04  0.18655871092E+04  0.00000000000E+00 0. -1.
         23    2    1    2    0    0  0.88469664297E+03 -0.23563824324E+03 -0.11017618967E+04  0.14355402140E+04  0.93182064681E+02 0.  0.
         11    1    3    3    0    0  0.68588429999E+03 -0.21970377761E+03 -0.84092325968E+03  0.11071851478E+04  0.00000000000E+00 0.  1.
        -11    1    3    3    0    0  0.19881234299E+03 -0.15934465633E+02 -0.26083863700E+03  0.32835506616E+03  0.00000000000E+00 0. -1.
         22    1    1    2    0    0 -0.88469664297E+03  0.23563824324E+03 -0.24588776058E+03  0.94798434722E+03  0.00000000000E+00 0.  1.
<mgrwt>
<rscale>  0 0.19659679E+04</rscale>
<asrwt>0</asrwt>
<pdfrwt beam="1">  1        1 0.28701340E+00 0.19659679E+04</pdfrwt>
<pdfrwt beam="2">  1       -1 0.79682686E-01 0.19659679E+04</pdfrwt>
<totfact> 0.53807394E+00</totfact>
</mgrwt>
</event>
<event>
 6    1  0.1568961E-005  0.3712589E+04  0.7818608E-02  0.8065178E-01
         -2   -1    0    0    0  501 -0.00000000000E+00  0.00000000000E+00  0.18439105380E+04  0.18439105380E+04  0.00000000000E+00 0. -1.
          2   -1    0    0  501    0  0.00000000000E+00 -0.00000000000E+00 -0.18687617958E+04  0.18687617958E+04  0.00000000000E+00 0.  1.
         23    2    1    2    0    0 -0.16600527480E+04 -0.75436991449E+03 -0.35436810651E+03  0.18597205137E+04  0.90191685997E+02 0.  0.
         11    1    3    3    0    0 -0.14934330394E+04 -0.67556363406E+03 -0.34581069265E+03  0.16752055104E+04  0.00000000000E+00 0. -1.
        -11    1    3    3    0    0 -0.16661970863E+03 -0.78806280425E+02 -0.85574138607E+01  0.18451500338E+03  0.00000000000E+00 0.  1.
         22    1    1    2    0    0  0.16600527480E+04  0.75436991449E+03  0.32951684874E+03  0.18529518201E+04  0.00000000000E+00 0. -1.
<mgrwt>
<rscale>  0 0.37125892E+04</rscale>
<asrwt>0</asrwt>
<pdfrwt beam="1">  1        2 0.28750182E+00 0.37125892E+04</pdfrwt>
<pdfrwt beam="2">  1       -2 0.28367854E+00 0.37125892E+04</pdfrwt>
<totfact> 0.25523525E-01</totfact>
</mgrwt>
</event>
<event>
 6    1  0.1568961E-005  0.5311602E+03  0.7818608E-02  0.1005951E+00
          2   -1    0    0  501    0  0.00000000000E+00  0.00000000000E+00  0.13469378935E+04  0.13469378935E+04  0.00000000000E+00 0. -1.
         -2   -1    0    0    0  501 -0.00000000000E+00 -0.00000000000E+00 -0.52365291622E+02  0.52365291622E+02  0.00000000000E+00 0.  1.
         23    2    1    2    0    0 -0.18167311467E+03 -0.64024737585E+02  0.21587503005E+03  0.30354192505E+03  0.91822568280E+02 0.  0.
         11    1    3    3    0    0 -0.79895084868E+02 -0.40374725800E+02  0.38004076222E+02  0.97250464672E+02  0.00000000000E+00 0. -1.
        -11    1    3    3    0    0 -0.10177802980E+03 -0.23650011785E+02  0.17787095383E+03  0.20629146038E+03  0.00000000000E+00 0.  1.
         22    1    1    2    0    0  0.18167311467E+03  0.64024737585E+02  0.10786975719E+04  0.10957612601E+04  0.00000000000E+00 0. -1.
<mgrwt>
<rscale>  0 0.53116022E+03</rscale>
<asrwt>0</asrwt>
<pdfrwt beam="1">  1        2 0.20722119E+00 0.53116022E+03</pdfrwt>
<pdfrwt beam="2">  1       -2 0.80561997E-02 0.53116022E+03</pdfrwt>
<totfact> 0.15338496E+03</totfact>
</mgrwt>
</event>
<event>
 6    1  0.1568961E-005  0.1467299E+04  0.7818608E-02  0.8906494E-01
          1   -1    0    0  501    0  0.00000000000E+00  0.00000000000E+00  0.15658482158E+04  0.15658482158E+04  0.00000000000E+00 0. -1.
         -1   -1    0    0    0  501 -0.00000000000E+00 -0.00000000000E+00 -0.34373817540E+03  0.34373817540E+03  0.00000000000E+00 0.  1.
         23    2    1    2    0    0 -0.45833547503E+03  0.39198751007E+03  0.76437160171E+02  0.61486944753E+03  0.92174737999E+02 0.  0.
         13    1    3    3    0    0 -0.39869175169E+03  0.34472192561E+03  0.34997484901E+02  0.52821694672E+03  0.00000000000E+00 0. -1.
        -13    1    3    3    0    0 -0.59643723349E+02  0.47265584459E+02  0.41439675270E+02  0.86652500804E+02  0.00000000000E+00 0.  1.
         22    1    1    2    0    0  0.45833547503E+03 -0.39198751007E+03  0.11456728802E+04  0.12947169436E+04  0.00000000000E+00 0. -1.
<mgrwt>
<rscale>  0 0.14672993E+04</rscale>
<asrwt>0</asrwt>
<pdfrwt beam="1">  1        1 0.24089972E+00 0.14672993E+04</pdfrwt>
<pdfrwt beam="2">  1       -1 0.52882797E-01 0.14672993E+04</pdfrwt>
<totfact> 0.20594370E+01</totfact>
</mgrwt>
</event>
<event>
 6    1  0.1568961E-005  0.1261231E+04  0.7818608E-02  0.9060887E-01
         -2   -1    0    0    0  501 -0.00000000000E+00  0.00000000000E+00  0.13926476737E+03  0.13926476737E+03  0.00000000000E+00 0.  1.
          2   -1    0    0  501    0  0.00000000000E+00 -0.00000000000E+00 -0.28555403257E+04  0.28555403257E+04  0.00000000000E+00 0. -1.
         23    2    1    2    0    0 -0.54715549200E+03  0.20404417445E+03 -0.19101500280E+04  0.19993898389E+04  0.88732412076E+02 0.  0.
         11    1    3    3    0    0 -0.27084078459E+03  0.96114497220E+02 -0.79091843655E+03  0.84151333944E+03  0.00000000000E+00 0.  1.
        -11    1    3    3    0    0 -0.27631470741E+03  0.10792967722E+03 -0.11192315914E+04  0.11578764994E+04  0.00000000000E+00 0. -1.
         22    1    1    2    0    0  0.54715549200E+03 -0.20404417445E+03 -0.80612553041E+03  0.99541525422E+03  0.00000000000E+00 0.  1.
<mgrwt>
<rscale>  0 0.12612314E+04</rscale>
<asrwt>0</asrwt>
<pdfrwt beam="1">  1        2 0.43931385E+00 0.12612314E+04</pdfrwt>
<pdfrwt beam="2">  1       -2 0.21425351E-01 0.12612314E+04</pdfrwt>
<totfact> 0.40195365E+01</totfact>
</mgrwt>
</event>
<event>
 6    1  0.1568961E-005  0.3646500E+04  0.7818608E-02  0.8079923E-01
          1   -1    0    0  501    0  0.00000000000E+00  0.00000000000E+00  0.25152842474E+04  0.25152842474E+04  0.00000000000E+00 0. -1.
         -1   -1    0    0    0  501 -0.00000000000E+00 -0.00000000000E+00 -0.13216159505E+04  0.13216159505E+04  0.00000000000E+00 0.  1.
         23    2    1    2    0    0  0.16813261323E+04 -0.23080519872E+03  0.12948520489E+04  0.21367923324E+04  0.95451769088E+02 0.  0.
         13    1    3    3    0    0  0.12511851525E+04 -0.21353517480E+03  0.97051803491E+03  0.15978006173E+04  0.00000000000E+00 0.  1.
        -13    1    3    3    0    0  0.43014097982E+03 -0.17270023911E+02  0.32433401399E+03  0.53899171503E+03  0.00000000000E+00 0. -1.
         22    1    1    2    0    0 -0.16813261323E+04  0.23080519872E+03 -0.10118375203E+03  0.17001078656E+04  0.00000000000E+00 0.  1.
<mgrwt>
<rscale>  0 0.36464996E+04</rscale>
<asrwt>0</asrwt>
<pdfrwt beam="1">  1        1 0.38696681E+00 0.36464996E+04</pdfrwt>
<pdfrwt beam="2">  1       -1 0.20332553E+00 0.36464996E+04</pdfrwt>
<totfact> 0.15210264E-01</totfact>
</mgrwt>
</event>
<event>
 6    1  0.1568961E-005  0.2253087E+04  0.7818608E-02  0.8496651E-01
          2   -1    0    0  501    0  0.00000000000E+00  0.00000000000E+00  0.11604588184E+04  0.11604588184E+04  0.00000000000E+00 0. -1.
         -2   -1    0    0    0  501 -0.00000000000E+00 -0.00000000000E+00 -0.10936193253E+04  0.10936193253E+04  0.00000000000E+00 0.  1.
         23    2    1    2    0    0  0.10009922127E+04 -0.24626318474E+03  0.48352818410E+03  0.11422056550E+04  0.90572001113E+02 0.  0.
         13    1    3    3    0    0  0.79109504375E+03 -0.22203135686E+03  0.35649049633E+03  0.89566442692E+03  0.00000000000E+00 0. -1.
        -13    1    3    3    0    0  0.20989716895E+03 -0.24231827883E+02  0.12703768777E+03  0.24654122805E+03  0.00000000000E+00 0.  1.
         22    1    1    2    0    0 -0.10009922127E+04  0.24626318474E+03 -0.41668869105E+03  0.11118724888E+04  0.00000000000E+00 0.  1.
<mgrwt>
<rscale>  0 0.22530869E+04</rscale>
<asrwt>0</asrwt>
<pdfrwt beam="1">  1        2 0.17853213E+00 0.22530869E+04</pdfrwt>
<pdfrwt beam="2">  1       -2 0.16824913E+00 0.22530869E+04</pdfrwt>
<totfact> 0.39943330E+00</totfact>
</mgrwt>
</event>
<event>
 6    1  0.1568961E-005  0.3265094E+04  0.7818608E-02  0.8171834E-01
         -1   -1    0    0    0  501 -0.00000000000E+00  0.00000000000E+00  0.93354418046E+03  0.93354418046E+03  0.00000000000E+00 0.  1.
          1   -1    0    0  501    0  0.00000000000E+00 -0.00000000000E+00 -0.28549369247E+04  0.28549369247E+04  0.00000000000E+00 0. -1.
         23    2    1    2    0    0  0.78019735907E+03  0.83185744719E+03  0.39193853204E+03  0.12092958995E+04  0.89922344307E+02 0.  0.
         11    1    3    3    0    0  0.34137010690E+03  0.38737041049E+03  0.22165435340E+03  0.56188970197E+03  0.00000000000E+00 0. -1.
        -11    1    3    3    0    0  0.43882725217E+03  0.44448703670E+03  0.17028417864E+03  0.64740619748E+03  0.00000000000E+00 0.  1.
         22    1    1    2    0    0 -0.78019735907E+03 -0.83185744719E+03 -0.23133312763E+04  0.25791852057E+04  0.00000000000E+00 0. -1.
<mgrwt>
<rscale>  0 0.32650940E+04</rscale>
<asrwt>0</asrwt>
<pdfrwt beam="1">  1        1 0.43922106E+00 0.32650940E+04</pdfrwt>
<pdfrwt beam="2">  1       -1 0.14362218E+00 0.32650940E+04</pdfrwt>
<totfact> 0.24805666E-01</totfact>
</mgrwt>
</event>
<event>
 6    1  0.1568961E-005  0.2403153E+04  0.7818608E-02  0.8438324E-01
          2   -1    0    0  501    0  0.00000000000E+00  0.00000000000E+00  0.99855896157E+03  0.99855896157E+03  0.00000000000E+00 0. -1.
         -2   -1    0    0    0  501 -0.00000000000E+00 -0.00000000000E+00 -0.14458698697E+04  0.14458698697E+04  0.00000000000E+00 0.  1.
         23    2    1    2    0    0  0.81485280969E+03 -0.79514474421E+02 -0.11160982115E+04  0.13872703236E+04  0.92390908404E+02 0.  0.
         11    1    3    3    0    0  0.22353309700E+03 -0.20935616630E+02 -0.37872003664E+03  0.44026606916E+03  0.00000000000E+00 0.  1.
        -11    1    3    3    0    0  0.59131971269E+03 -0.58578857792E+02 -0.73737817488E+03  0.94700425447E+03  0.00000000000E+00 0. -1.
         22    1    1    2    0    0 -0.81485280969E+03  0.79514474421E+02  0.66878730340E+03  0.10571585076E+04  0.00000000000E+00 0. -1.
<mgrwt>
<rscale>  0 0.24031532E+04</rscale>
<asrwt>0</asrwt>
<pdfrwt beam="1">  1        2 0.15362446E+00 0.24031532E+04</pdfrwt>
<pdfrwt beam="2">  1       -2 0.22244152E+00 0.24031532E+04</pdfrwt>
<totfact> 0.21640416E+00</totfact>
</mgrwt>
</event>
<event>
 6    1  0.1568961E-005  0.2994275E+04  0.7818608E-02  0.8245368E-01
         -1   -1    0    0    0  501 -0.00000000000E+00  0.00000000000E+00  0.78964385030E+03  0.78964385030E+03  0.00000000000E+00 0.  1.
          1   -1    0    0  501    0  0.00000000000E+00 -0.00000000000E+00 -0.28385214673E+04  0.28385214673E+04  0.00000000000E+00 0. -1.
         23    2    1    2    0    0 -0.17460296492E+03 -0.14610329794E+04 -0.13527641381E+04  0.20003823045E+04  0.80342942194E+02 0.  0.
         13    1    3    3    0    0 -0.10831628769E+03 -0.69754064645E+03 -0.60579250609E+03  0.93020424212E+03  0.00000000000E+00 0. -1.
        -13    1    3    3    0    0 -0.66286677232E+02 -0.76349233297E+03 -0.74697163202E+03  0.10701780623E+04  0.00000000000E+00 0.  1.
         22    1    1    2    0    0  0.17460296492E+03  0.14610329794E+04 -0.69611347888E+03  0.16277830131E+04  0.00000000000E+00 0.  1.
<mgrwt>
<rscale>  0 0.29942752E+04</rscale>
<asrwt>0</asrwt>
<pdfrwt beam="1">  1        1 0.43669562E+00 0.29942752E+04</pdfrwt>
<pdfrwt beam="2">  1       -1 0.12148367E+00 0.29942752E+04</pdfrwt>
<totfact> 0.39977373E-01</totfact>
</mgrwt>
</event>
<event>
 6    1  0.1568961E-005  0.4118213E+04  0.7818608E-02  0.7981115E-01
         -2   -1    0    0    0  501 -0.00000000000E+00  0.00000000000E+00  0.18139850403E+04  0.18139850403E+04  0.00000000000E+00 0.  1.
          2   -1    0    0  501    0  0.00000000000E+00 -0.00000000000E+00 -0.23373504664E+04  0.23373504664E+04  0.00000000000E+00 0. -1.
         23    2    1    2    0    0 -0.92788562732E+03 -0.17225402111E+04  0.38161512458E+03  0.19956207034E+04  0.93570145421E+02 0.  0.
         13    1    3    3    0    0 -0.18149447379E+03 -0.26793911407E+03  0.51232375251E+02  0.32765281799E+03  0.00000000000E+00 0. -1.
        -13    1    3    3    0    0 -0.74639115353E+03 -0.14546010971E+04  0.33038274933E+03  0.16679678854E+04  0.00000000000E+00 0.  1.
         22    1    1    2    0    0  0.92788562732E+03  0.17225402111E+04 -0.90498055065E+03  0.21557148034E+04  0.00000000000E+00 0. -1.
<mgrwt>
<rscale>  0 0.41182126E+04</rscale>
<asrwt>0</asrwt>
<pdfrwt beam="1">  1        2 0.35959238E+00 0.41182126E+04</pdfrwt>
<pdfrwt beam="2">  1       -2 0.27907462E+00 0.41182126E+04</pdfrwt>
<totfact> 0.14393081E-01</totfact>
</mgrwt>
</event>
<event>
 6    1  0.1568961E-005  0.2469681E+04  0.7818608E-02  0.8413867E-01
          2   -1    0    0  501    0  0.00000000000E+00  0.00000000000E+00  0.12264087109E+04  0.12264087109E+04  0.00000000000E+00 0.  1.
         -2   -1    0    0    0  501 -0.00000000000E+00 -0.00000000000E+00 -0.12433301651E+04  0.12433301651E+04  0.00000000000E+00 0. -1.
         23    2    1    2    0    0 -0.69099316473E+03  0.28225974042E+03  0.97303923481E+03  0.12299145818E+04  0.93500862019E+02 0.  0.
         11    1    3    3    0    0 -0.47205193981E+03  0.23782890718E+03  0.69888076518E+03  0.87625906381E+03  0.00000000000E+00 0. -1.
        -11    1    3    3    0    0 -0.21894122492E+03  0.44430833233E+02  0.27415846963E+03  0.35365551796E+03  0.00000000000E+00 0.  1.
         22    1    1    2    0    0  0.69099316473E+03 -0.28225974042E+03 -0.98996068899E+03  0.12398242942E+04  0.00000000000E+00 0. -1.
<mgrwt>
<rscale>  0 0.24696809E+04</rscale>
<asrwt>0</asrwt>
<pdfrwt beam="1">  1        2 0.18867826E+00 0.24696809E+04</pdfrwt>
<pdfrwt beam="2">  1       -2 0.19128156E+00 0.24696809E+04</pdfrwt>
<totfact> 0.24818658E+00</totfact>
</mgrwt>
</event>
<event>
 6    1  0.1568961E-005  0.3355850E+04  0.7818608E-02  0.8148828E-01
         -2   -1    0    0    0  501 -0.00000000000E+00  0.00000000000E+00  0.11917545767E+04  0.11917545767E+04  0.00000000000E+00 0.  1.
          2   -1    0    0  501    0  0.00000000000E+00 -0.00000000000E+00 -0.23624265245E+04  0.23624265245E+04  0.00000000000E+00 0. -1.
         23    2    1    2    0    0  0.12581659686E+04 -0.77323046368E+03  0.25501575839E+03  0.15015115248E+04  0.92934749711E+02 0.  0.
         13    1    3    3    0    0  0.91686664695E+03 -0.59637219076E+03  0.15852522372E+03  0.11051852717E+04  0.00000000000E+00 0. -1.
        -13    1    3    3    0    0  0.34129932163E+03 -0.17685827291E+03  0.96490534667E+02  0.39632625314E+03  0.00000000000E+00 0.  1.
         22    1    1    2    0    0 -0.12581659686E+04  0.77323046368E+03 -0.14256877062E+04  0.20526695764E+04  0.00000000000E+00 0. -1.
<mgrwt>
<rscale>  0 0.33558502E+04</rscale>
<asrwt>0</asrwt>
<pdfrwt beam="1">  1        2 0.36345023E+00 0.33558502E+04</pdfrwt>
<pdfrwt beam="2">  1       -2 0.18334686E+00 0.33558502E+04</pdfrwt>
<totfact> 0.59721114E-01</totfact>
</mgrwt>
</event>
<event>
 6    1  0.1568961E-005  0.1863337E+04  0.7818608E-02  0.8673324E-01
          1   -1    0    0  501    0  0.00000000000E+00  0.00000000000E+00  0.62322523986E+03  0.62322523986E+03  0.00000000000E+00 0. -1.
         -1   -1    0    0    0  501 -0.00000000000E+00 -0.00000000000E+00 -0.13927645253E+04  0.13927645253E+04  0.00000000000E+00 0.  1.
         23    2    1    2    0    0  0.36339769668E+02 -0.25627759507E+03 -0.13516308045E+04  0.13789424191E+04  0.87049289741E+02 0.  0.
         13    1    3    3    0    0 -0.26225983650E+02 -0.39213906593E+02 -0.23810728549E+03  0.24273568360E+03  0.00000000000E+00 0. -1.
        -13    1    3    3    0    0  0.62565753317E+02 -0.21706368847E+03 -0.11135235190E+04  0.11362067355E+04  0.00000000000E+00 0.  1.
         22    1    1    2    0    0 -0.36339769668E+02  0.25627759507E+03  0.58209151906E+03  0.63704734609E+03  0.00000000000E+00 0. -1.
<mgrwt>
<rscale>  0 0.18633368E+04</rscale>
<asrwt>0</asrwt>
<pdfrwt beam="1">  1        1 0.95880808E-01 0.18633368E+04</pdfrwt>
<pdfrwt beam="2">  1       -1 0.21427146E+00 0.18633368E+04</pdfrwt>
<totfact> 0.36571719E+00</totfact>
</mgrwt>
</event>
<event>
 6    1  0.1568961E-005  0.3130926E+04  0.7818608E-02  0.8207301E-01
         -2   -1    0    0    0  501 -0.00000000000E+00  0.00000000000E+00  0.10673509444E+04  0.10673509444E+04  0.00000000000E+00 0.  1.
          2   -1    0    0  501    0  0.00000000000E+00 -0.00000000000E+00 -0.22960345256E+04  0.22960345256E+04  0.00000000000E+00 0. -1.
         23    2    1    2    0    0 -0.12195964970E+04 -0.17433647404E+02 -0.16667738353E+04  0.20673752007E+04  0.90474608568E+02 0.  0.
         13    1    3    3    0    0 -0.70274633219E+03  0.34153433375E+02 -0.97040355221E+03  0.11986250116E+04  0.00000000000E+00 0.  1.
        -13    1    3    3    0    0 -0.51685016476E+03 -0.51587080779E+02 -0.69637028314E+03  0.86875018904E+03  0.00000000000E+00 0. -1.
         22    1    1    2    0    0  0.12195964970E+04  0.17433647404E+02  0.43809025414E+03  0.12960102693E+04  0.00000000000E+00 0.  1.
<mgrwt>
<rscale>  0 0.31309261E+04</rscale>
<asrwt>0</asrwt>
<pdfrwt beam="1">  1        2 0.35323608E+00 0.31309261E+04</pdfrwt>
<pdfrwt beam="2">  1       -2 0.16420784E+00 0.31309261E+04</pdfrwt>
<totfact> 0.90536030E-01</totfact>
</mgrwt>
</event>
<event>
 6    1  0.1568961E-005  0.4808944E+04  0.7818608E-02  0.7858675E-01
          1   -1    0    0  501    0  0.00000000000E+00  0.00000000000E+00  0.15864035724E+04  0.15864035724E+04  0.00000000000E+00 0. -1.
         -1   -1    0    0    0  501 -0.00000000000E+00 -0.00000000000E+00 -0.36443977926E+04  0.36443977926E+04  0.00000000000E+00 0.  1.
         23    2    1    2    0    0  0.99197046899E+03  0.18974426678E+04  0.15844507131E+03  0.21490977416E+04  0.96032149150E+02 0.  0.
         11    1    3    3    0    0  0.84452644479E+03  0.15357697141E+04  0.13290024737E+03  0.17576905320E+04  0.00000000000E+00 0.  1.
        -11    1    3    3    0    0  0.14744402420E+03  0.36167295371E+03  0.25544823943E+02  0.39140720962E+03  0.00000000000E+00 0. -1.
         22    1    1    2    0    0 -0.99197046899E+03 -0.18974426678E+04 -0.22164392915E+04  0.30817036233E+04  0.00000000000E+00 0. -1.
<mgrwt>
<rscale>  0 0.48089440E+04</rscale>
<asrwt>0</asrwt>
<pdfrwt beam="1">  1        1 0.24406209E+00 0.48089440E+04</pdfrwt>
<pdfrwt beam="2">  1       -1 0.56067658E+00 0.48089440E+04</pdfrwt>
<totfact> 0.27866845E-03</totfact>
</mgrwt>
</event>
<event>
 6    1  0.1568961E-005  0.1627939E+04  0.7818608E-02  0.8803566E-01
          2   -1    0    0  501    0  0.00000000000E+00  0.00000000000E+00  0.12262554130E+04  0.12262554130E+04  0.00000000000E+00 0. -1.
         -2   -1    0    0    0  501 -0.00000000000E+00 -0.00000000000E+00 -0.54030026241E+03  0.54030026241E+03  0.00000000000E+00 0.  1.
         23    2    1    2    0    0 -0.49503347511E+03 -0.60346245089E+03  0.58432195135E+03  0.97943790892E+03  0.92959149586E+02 0.  0.
         13    1    3    3    0    0 -0.16383676140E+03 -0.13605699428E+03  0.14794236056E+03  0.25930856547E+03  0.00000000000E+00 0.  1.
        -13    1    3    3    0    0 -0.33119671370E+03 -0.46740545661E+03  0.43637959078E+03  0.72012934344E+03  0.00000000000E+00 0. -1.
         22    1    1    2    0    0  0.49503347511E+03  0.60346245089E+03  0.10163319923E+03  0.78711776647E+03  0.00000000000E+00 0. -1.
<mgrwt>
<rscale>  0 0.16279387E+04</rscale>
<asrwt>0</asrwt>
<pdfrwt beam="1">  1        2 0.18865468E+00 0.16279387E+04</pdfrwt>
<pdfrwt beam="2">  1       -2 0.83123118E-01 0.16279387E+04</pdfrwt>
<totfact> 0.22164479E+01</totfact>
</mgrwt>
</event>
<event>
 6    1  0.1568961E-005  0.1480472E+04  0.7818608E-02  0.8897544E-01
          2   -1    0    0  501    0  0.00000000000E+00  0.00000000000E+00  0.77453387952E+03  0.77453387952E+03  0.00000000000E+00 0. -1.
         -2   -1    0    0    0  501 -0.00000000000E+00 -0.00000000000E+00 -0.70745651891E+03  0.70745651891E+03  0.00000000000E+00 0.  1.
         23    2    1    2    0    0  0.31811364460E+03 -0.36175447251E+03  0.59250438022E+03  0.76915371152E+03  0.92051084194E+02 0.  0.
         11    1    3    3    0    0  0.22077018423E+03 -0.19948823911E+03  0.31538675569E+03  0.43359409296E+03  0.00000000000E+00 0.  1.
        -11    1    3    3    0    0  0.97343460363E+02 -0.16226623340E+03  0.27711762453E+03  0.33555961855E+03  0.00000000000E+00 0. -1.
         22    1    1    2    0    0 -0.31811364460E+03  0.36175447251E+03 -0.52542701961E+03  0.71283668690E+03  0.00000000000E+00 0.  1.
<mgrwt>
<rscale>  0 0.14804716E+04</rscale>
<asrwt>0</asrwt>
<pdfrwt beam="1">  1        2 0.11915906E+00 0.14804716E+04</pdfrwt>
<pdfrwt beam="2">  1       -2 0.10883946E+00 0.14804716E+04</pdfrwt>
<totfact> 0.23454309E+01</totfact>
</mgrwt>
</event>
<event>
 6    1  0.1767037E-005  0.2771671E+04  0.7818608E-02  0.8312118E-01
          1   -1    0    0  501    0  0.00000000000E+00  0.00000000000E+00  0.15576073812E+04  0.15576073812E+04  0.00000000000E+00 0. -1.
         -1   -1    0    0    0  501 -0.00000000000E+00 -0.00000000000E+00 -0.12330069466E+04  0.12330069466E+04  0.00000000000E+00 0.  1.
         23    2    1    2    0    0  0.15919399056E+03 -0.13088942331E+04 -0.26190279093E+03  0.13475159689E+04  0.93055759418E+02 0.  0.
         13    1    3    3    0    0  0.49169476607E+02 -0.58169293152E+03 -0.15770364081E+03  0.60469392451E+03  0.00000000000E+00 0.  1.
        -13    1    3    3    0    0  0.11002451396E+03 -0.72720130159E+03 -0.10419915012E+03  0.74282204436E+03  0.00000000000E+00 0. -1.
         22    1    1    2    0    0 -0.15919399056E+03  0.13088942331E+04  0.58650322544E+03  0.14430983589E+04  0.00000000000E+00 0.  1.
<mgrwt>
<rscale>  0 0.27716715E+04</rscale>
<asrwt>0</asrwt>
<pdfrwt beam="1">  1        1 0.23963190E+00 0.27716715E+04</pdfrwt>
<pdfrwt beam="2">  1       -1 0.18969338E+00 0.27716715E+04</pdfrwt>
<totfact> 0.91976640E-01</totfact>
</mgrwt>
</event>
<event>
 6    1  0.1568961E-005  0.1361386E+04  0.7818608E-02  0.8982253E-01
          2   -1    0    0  501    0  0.00000000000E+00  0.00000000000E+00  0.10947153357E+04  0.10947153357E+04  0.00000000000E+00 0. -1.
         -2   -1    0    0    0  501 -0.00000000000E+00 -0.00000000000E+00 -0.42325454502E+03  0.42325454502E+03  0.00000000000E+00 0.  1.
         23    2    1    2    0    0  0.65557704641E+03  0.17137291821E+03  0.32318557100E+03  0.75610009557E+03  0.89936090267E+02 0.  0.
         13    1    3    3    0    0  0.28321960463E+03  0.84819312489E+02  0.93309049472E+02  0.31002296516E+03  0.00000000000E+00 0.  1.
        -13    1    3    3    0    0  0.37235744178E+03  0.86553605723E+02  0.22987652153E+03  0.44607713040E+03  0.00000000000E+00 0. -1.
         22    1    1    2    0    0 -0.65557704641E+03 -0.17137291821E+03  0.34827521967E+03  0.76186978514E+03  0.00000000000E+00 0.  1.
<mgrwt>
<rscale>  0 0.13613864E+04</rscale>
<asrwt>0</asrwt>
<pdfrwt beam="1">  1        2 0.16841774E+00 0.13613864E+04</pdfrwt>
<pdfrwt beam="2">  1       -2 0.65116084E-01 0.13613864E+04</pdfrwt>
<totfact> 0.46597641E+01</totfact>
</mgrwt>
</event>
<event>
 6    1  0.1568961E-005  0.2100919E+04  0.7818608E-02  0.8560839E-01
         -1   -1    0    0    0  501 -0.00000000000E+00  0.00000000000E+00  0.50272459291E+03  0.50272459291E+03  0.00000000000E+00 0.  1.
          1   -1    0    0  501    0  0.00000000000E+00 -0.00000000000E+00 -0.21949700473E+04  0.21949700473E+04  0.00000000000E+00 0. -1.
         23    2    1    2    0    0  0.47424732235E+03 -0.56136209715E+03  0.11257292744E+03  0.74900089355E+03  0.91059033963E+02 0.  0.
         11    1    3    3    0    0  0.24727049840E+03 -0.26436519136E+03  0.97565171356E+02  0.37490080881E+03  0.00000000000E+00 0. -1.
        -11    1    3    3    0    0  0.22697682395E+03 -0.29699690579E+03  0.15007756087E+02  0.37410008474E+03  0.00000000000E+00 0.  1.
         22    1    1    2    0    0 -0.47424732235E+03  0.56136209715E+03 -0.18048183818E+04  0.19486937466E+04  0.00000000000E+00 0. -1.
<mgrwt>
<rscale>  0 0.21009192E+04</rscale>
<asrwt>0</asrwt>
<pdfrwt beam="1">  1        1 0.33768770E+00 0.21009192E+04</pdfrwt>
<pdfrwt beam="2">  1       -1 0.77342246E-01 0.21009192E+04</pdfrwt>
<totfact> 0.33839060E+00</totfact>
</mgrwt>
</event>
<event>
 6    1  0.1568961E-005  0.5364236E+03  0.7818608E-02  0.1004686E+00
         -3   -1    0    0    0  501 -0.00000000000E+00  0.00000000000E+00  0.10948891610E+03  0.10948891610E+03  0.00000000000E+00 0.  1.
          3   -1    0    0  501    0  0.00000000000E+00 -0.00000000000E+00 -0.65703050565E+03  0.65703050565E+03  0.00000000000E+00 0. -1.
         23    2    1    2    0    0 -0.37648203690E+02 -0.18283268191E+03 -0.54070383250E+03  0.57972560029E+03  0.94212315167E+02 0.  0.
         11    1    3    3    0    0 -0.42218495293E+02 -0.15851434270E+03 -0.52590227486E+03  0.55089236779E+03  0.00000000000E+00 0. -1.
        -11    1    3    3    0    0  0.45702916031E+01 -0.24318339217E+02 -0.14801557640E+02  0.28833232496E+02  0.00000000000E+00 0.  1.
         22    1    1    2    0    0  0.37648203690E+02  0.18283268191E+03 -0.68377570477E+01  0.18679382147E+03  0.00000000000E+00 0.  1.
<mgrwt>
<rscale>  0 0.53642356E+03</rscale>
<asrwt>0</asrwt>
<pdfrwt beam="1">  1        3 0.10108162E+00 0.53642356E+03</pdfrwt>
<pdfrwt beam="2">  1       -3 0.16844449E-01 0.53642356E+03</pdfrwt>
<totfact> 0.69798761E+01</totfact>
</mgrwt>
</event>
<event>
 6    1  0.1568961E-005  0.2640180E+04  0.7818608E-02  0.8354680E-01
         -2   -1    0    0    0  501 -0.00000000000E+00  0.00000000000E+00  0.80819455231E+03  0.80819455231E+03  0.00000000000E+00 0.  1.
          2   -1    0    0  501    0  0.00000000000E+00 -0.00000000000E+00 -0.21562113196E+04  0.21562113196E+04  0.00000000000E+00 0. -1.
         23    2    1    2    0    0  0.39983819578E+02 -0.47450045036E+03 -0.20553026117E+04  0.21117613686E+04  0.92292303167E+02 0.  0.
         13    1    3    3    0    0 -0.77783649426E+01 -0.36553850219E+02 -0.28628314337E+03  0.28871218385E+03  0.00000000000E+00 0.  1.
        -13    1    3    3    0    0  0.47762184520E+02 -0.43794660014E+03 -0.17690194683E+04  0.18230491848E+04  0.00000000000E+00 0. -1.
         22    1    1    2    0    0 -0.39983819578E+02  0.47450045036E+03  0.70728584443E+03  0.85264450326E+03  0.00000000000E+00 0.  1.
<mgrwt>
<rscale>  0 0.26401805E+04</rscale>
<asrwt>0</asrwt>
<pdfrwt beam="1">  1        2 0.33172482E+00 0.26401805E+04</pdfrwt>
<pdfrwt beam="2">  1       -2 0.12433762E+00 0.26401805E+04</pdfrwt>
<totfact> 0.23410381E+00</totfact>
</mgrwt>
</event>
<event>
 6    1  0.1568961E-005  0.1333560E+04  0.7818608E-02  0.9003367E-01
          2   -1    0    0  501    0  0.00000000000E+00  0.00000000000E+00  0.11482498844E+04  0.11482498844E+04  0.00000000000E+00 0. -1.
         -2   -1    0    0    0  501 -0.00000000000E+00 -0.00000000000E+00 -0.38719420740E+03  0.38719420740E+03  0.00000000000E+00 0.  1.
         23    2    1    2    0    0 -0.27249291817E+03 -0.21039148651E+03  0.10356564638E+04  0.10950776986E+04  0.89966032451E+02 0.  0.
         13    1    3    3    0    0 -0.10779511164E+02  0.92135979579E+01  0.41110278316E+02  0.43487276662E+02  0.00000000000E+00 0. -1.
        -13    1    3    3    0    0 -0.26171340701E+03 -0.21960508446E+03  0.99454618550E+03  0.10515904220E+04  0.00000000000E+00 0.  1.
         22    1    1    2    0    0  0.27249291817E+03  0.21039148651E+03 -0.27460078685E+03  0.44036639312E+03  0.00000000000E+00 0.  1.
<mgrwt>
<rscale>  0 0.13335602E+04</rscale>
<asrwt>0</asrwt>
<pdfrwt beam="1">  1        2 0.17665383E+00 0.13335602E+04</pdfrwt>
<pdfrwt beam="2">  1       -2 0.59568340E-01 0.13335602E+04</pdfrwt>
<totfact> 0.52340046E+01</totfact>
</mgrwt>
</event>
<event>
 6    1  0.1568961E-005  0.9075438E+03  0.7818608E-02  0.9416200E-01
         -2   -1    0    0    0  501 -0.00000000000E+00  0.00000000000E+00  0.53026363050E+03  0.53026363050E+03  0.00000000000E+00 0.  1.
          2   -1    0    0  501    0  0.00000000000E+00 -0.00000000000E+00 -0.38831427206E+03  0.38831427206E+03  0.00000000000E+00 0. -1.
         23    2    1    2    0    0  0.10020124717E+03 -0.42518363091E+03 -0.34297070424E+02  0.44753203047E+03  0.91034165720E+02 0.  0.
         13    1    3    3    0    0 -0.10128121061E+02 -0.83034626040E+02 -0.27211151298E+02  0.87964621939E+02  0.00000000000E+00 0.  1.
        -13    1    3    3    0    0  0.11032936823E+03 -0.34214900487E+03 -0.70859191254E+01  0.35956740853E+03  0.00000000000E+00 0. -1.
         22    1    1    2    0    0 -0.10020124717E+03  0.42518363091E+03  0.17624642886E+03  0.47104587209E+03  0.00000000000E+00 0. -1.
<mgrwt>
<rscale>  0 0.90754380E+03</rscale>
<asrwt>0</asrwt>
<pdfrwt beam="1">  1        2 0.59740657E-01 0.90754380E+03</pdfrwt>
<pdfrwt beam="2">  1       -2 0.81579020E-01 0.90754380E+03</pdfrwt>
<totfact> 0.10914622E+02</totfact>
</mgrwt>
</event>
<event>
 6    1  0.1568961E-005  0.2263411E+04  0.7818608E-02  0.8492489E-01
         -2   -1    0    0    0  501 -0.00000000000E+00  0.00000000000E+00  0.38258570963E+03  0.38258570963E+03  0.00000000000E+00 0.  1.
          2   -1    0    0  501    0  0.00000000000E+00 -0.00000000000E+00 -0.33476342120E+04  0.33476342120E+04  0.00000000000E+00 0. -1.
         23    2    1    2    0    0 -0.43280856736E+03 -0.10021615057E+04 -0.10033628631E+04  0.14852563392E+04  0.87168908106E+02 0.  0.
         13    1    3    3    0    0 -0.37635109536E+03 -0.84257959910E+03 -0.80596525892E+03  0.12252185627E+04  0.00000000000E+00 0. -1.
        -13    1    3    3    0    0 -0.56457471997E+02 -0.15958190656E+03 -0.19739760420E+03  0.26003777647E+03  0.00000000000E+00 0.  1.
         22    1    1    2    0    0  0.43280856736E+03  0.10021615057E+04 -0.19616856393E+04  0.22449635825E+04  0.00000000000E+00 0. -1.
<mgrwt>
<rscale>  0 0.22634107E+04</rscale>
<asrwt>0</asrwt>
<pdfrwt beam="1">  1        2 0.51502068E+00 0.22634107E+04</pdfrwt>
<pdfrwt beam="2">  1       -2 0.58859336E-01 0.22634107E+04</pdfrwt>
<totfact> 0.25435356E+00</totfact>
</mgrwt>
</event>
<event>
 6    1  0.1568961E-005  0.4283156E+04  0.7818608E-02  0.7949740E-01
          2   -1    0    0  501    0  0.00000000000E+00  0.00000000000E+00  0.20687020210E+04  0.20687020210E+04  0.00000000000E+00 0. -1.
         -2   -1    0    0    0  501 -0.00000000000E+00 -0.00000000000E+00 -0.22170210813E+04  0.22170210813E+04  0.00000000000E+00 0.  1.
         23    2    1    2    0    0  0.45927374972E+03 -0.13300177673E+04  0.15404535239E+04  0.20875801408E+04  0.71513260187E+02 0.  0.
         11    1    3    3    0    0  0.42251552225E+03 -0.11499093544E+04  0.13403353474E+04  0.18158495900E+04  0.00000000000E+00 0.  1.
        -11    1    3    3    0    0  0.36758227476E+02 -0.18010841288E+03  0.20011817646E+03  0.27173055078E+03  0.00000000000E+00 0. -1.
         22    1    1    2    0    0 -0.45927374972E+03  0.13300177673E+04 -0.16887725841E+04  0.21981429615E+04  0.00000000000E+00 0.  1.
<mgrwt>
<rscale>  0 0.42831558E+04</rscale>
<asrwt>0</asrwt>
<pdfrwt beam="1">  1        2 0.31826185E+00 0.42831558E+04</pdfrwt>
<pdfrwt beam="2">  1       -2 0.34108017E+00 0.42831558E+04</pdfrwt>
<totfact> 0.83496329E-02</totfact>
</mgrwt>
</event>
<event>
 6    1  0.1568961E-005  0.3001747E+04  0.7818608E-02  0.8243232E-01
          2   -1    0    0  501    0  0.00000000000E+00  0.00000000000E+00  0.17442372542E+04  0.17442372542E+04  0.00000000000E+00 0. -1.
         -2   -1    0    0    0  501 -0.00000000000E+00 -0.00000000000E+00 -0.12914645888E+04  0.12914645888E+04  0.00000000000E+00 0.  1.
         23    2    1    2    0    0  0.84055654239E+03 -0.10082977440E+04 -0.50651158500E+03  0.14098402516E+04  0.88858920210E+02 0.  0.
         11    1    3    3    0    0  0.51507769004E+02 -0.73362061307E+02 -0.58261694702E+02  0.10690868710E+03  0.00000000000E+00 0. -1.
        -11    1    3    3    0    0  0.78904877339E+03 -0.93493568267E+03 -0.44824989030E+03  0.13029315645E+04  0.00000000000E+00 0.  1.
         22    1    1    2    0    0 -0.84055654239E+03  0.10082977440E+04  0.95928425034E+03  0.16258615914E+04  0.00000000000E+00 0. -1.
<mgrwt>
<rscale>  0 0.30017466E+04</rscale>
<asrwt>0</asrwt>
<pdfrwt beam="1">  1        2 0.26834419E+00 0.30017466E+04</pdfrwt>
<pdfrwt beam="2">  1       -2 0.19868686E+00 0.30017466E+04</pdfrwt>
<totfact> 0.10761934E+00</totfact>
</mgrwt>
</event>
<event>
 6    1  0.1620878E-005  0.3365775E+04  0.7818608E-02  0.8146358E-01
         -3   -1    0    0    0  501 -0.00000000000E+00  0.00000000000E+00  0.15433318718E+04  0.15433318718E+04  0.00000000000E+00 0.  1.
          3   -1    0    0  501    0  0.00000000000E+00 -0.00000000000E+00 -0.18350620050E+04  0.18350620050E+04  0.00000000000E+00 0. -1.
         23    2    1    2    0    0  0.14786025288E+04 -0.47903017285E+03  0.49860654011E+03  0.16347289428E+04  0.89414148814E+02 0.  0.
         11    1    3    3    0    0  0.74349793982E+03 -0.19669663984E+03  0.26235847508E+03  0.81259505541E+03  0.00000000000E+00 0. -1.
        -11    1    3    3    0    0  0.73510458897E+03 -0.28233353301E+03  0.23624806504E+03  0.82213388740E+03  0.00000000000E+00 0.  1.
         22    1    1    2    0    0 -0.14786025288E+04  0.47903017285E+03 -0.79033667338E+03  0.17436649340E+04  0.00000000000E+00 0. -1.
<mgrwt>
<rscale>  0 0.33657746E+04</rscale>
<asrwt>0</asrwt>
<pdfrwt beam="1">  1        3 0.28231723E+00 0.33657746E+04</pdfrwt>
<pdfrwt beam="2">  1       -3 0.23743567E+00 0.33657746E+04</pdfrwt>
<totfact> 0.90195785E-03</totfact>
</mgrwt>
</event>
<event>
 6    1  0.1568961E-005  0.2225527E+04  0.7818608E-02  0.8507878E-01
          2   -1    0    0  501    0  0.00000000000E+00  0.00000000000E+00  0.12708698189E+04  0.12708698189E+04  0.00000000000E+00 0. -1.
         -2   -1    0    0    0  501 -0.00000000000E+00 -0.00000000000E+00 -0.97432722040E+03  0.97432722040E+03  0.00000000000E+00 0.  1.
         23    2    1    2    0    0  0.41278094754E+03 -0.96763563973E+03 -0.21163014625E+03  0.10768878420E+04  0.90516648051E+02 0.  0.
         13    1    3    3    0    0  0.10615750703E+03 -0.35822964741E+03 -0.69284041075E+02  0.37999759858E+03  0.00000000000E+00 0. -1.
        -13    1    3    3    0    0  0.30662344051E+03 -0.60940599232E+03 -0.14234610517E+03  0.69689024344E+03  0.00000000000E+00 0.  1.
         22    1    1    2    0    0 -0.41278094754E+03  0.96763563973E+03  0.50817274474E+03  0.11683091973E+04  0.00000000000E+00 0. -1.
<mgrwt>
<rscale>  0 0.22255274E+04</rscale>
<asrwt>0</asrwt>
<pdfrwt beam="1">  1        2 0.19551843E+00 0.22255274E+04</pdfrwt>
<pdfrwt beam="2">  1       -2 0.14989650E+00 0.22255274E+04</pdfrwt>
<totfact> 0.47081256E+00</totfact>
</mgrwt>
</event>
<event>
 6    1  0.1801145E-005  0.3419487E+04  0.7818608E-02  0.8133140E-01
         -2   -1    0    0    0  501 -0.00000000000E+00  0.00000000000E+00  0.16784893590E+04  0.16784893590E+04  0.00000000000E+00 0.  1.
          2   -1    0    0  501    0  0.00000000000E+00 -0.00000000000E+00 -0.17415798031E+04  0.17415798031E+04  0.00000000000E+00 0. -1.
         23    2    1    2    0    0  0.58428221861E+03 -0.12046098746E+04  0.10299152582E+04  0.16917369816E+04  0.93690526657E+02 0.  0.
         13    1    3    3    0    0  0.29856675397E+03 -0.66369894525E+03  0.50686247195E+03  0.88687539259E+03  0.00000000000E+00 0. -1.
        -13    1    3    3    0    0  0.28571546464E+03 -0.54091092933E+03  0.52305278625E+03  0.80486158897E+03  0.00000000000E+00 0.  1.
         22    1    1    2    0    0 -0.58428221861E+03  0.12046098746E+04 -0.10930057024E+04  0.17283321805E+04  0.00000000000E+00 0. -1.
<mgrwt>
<rscale>  0 0.34194872E+04</rscale>
<asrwt>0</asrwt>
<pdfrwt beam="1">  1        2 0.26793535E+00 0.34194872E+04</pdfrwt>
<pdfrwt beam="2">  1       -2 0.25822913E+00 0.34194872E+04</pdfrwt>
<totfact> 0.43995668E-01</totfact>
</mgrwt>
</event>
<event>
 6    1  0.1568961E-005  0.3461127E+04  0.7818608E-02  0.8123065E-01
         -1   -1    0    0    0  501 -0.00000000000E+00  0.00000000000E+00  0.30222021915E+04  0.30222021915E+04  0.00000000000E+00 0.  1.
          1   -1    0    0  501    0  0.00000000000E+00 -0.00000000000E+00 -0.99094935368E+03  0.99094935368E+03  0.00000000000E+00 0. -1.
         23    2    1    2    0    0  0.32505063698E+03  0.18783162892E+02  0.29855729088E+04  0.30048175124E+04  0.96291046509E+02 0.  0.
         13    1    3    3    0    0  0.27862336648E+03  0.38031560076E+02  0.27226833497E+04  0.27371667839E+04  0.00000000000E+00 0. -1.
        -13    1    3    3    0    0  0.46427270493E+02 -0.19248397185E+02  0.26288955903E+03  0.26765072854E+03  0.00000000000E+00 0.  1.
         22    1    1    2    0    0 -0.32505063698E+03 -0.18783162892E+02 -0.95432007094E+03  0.10083340328E+04  0.00000000000E+00 0. -1.
<mgrwt>
<rscale>  0 0.34611266E+04</rscale>
<asrwt>0</asrwt>
<pdfrwt beam="1">  1        1 0.15245375E+00 0.34611266E+04</pdfrwt>
<pdfrwt beam="2">  1       -1 0.46495418E+00 0.34611266E+04</pdfrwt>
<totfact> 0.32128268E-02</totfact>
</mgrwt>
</event>
<event>
 6    1  0.1568961E-005  0.4708087E+04  0.7818608E-02  0.7875186E-01
         -2   -1    0    0    0  501 -0.00000000000E+00  0.00000000000E+00  0.25852588176E+04  0.25852588176E+04  0.00000000000E+00 0.  1.
          2   -1    0    0  501    0  0.00000000000E+00 -0.00000000000E+00 -0.21435076167E+04  0.21435076167E+04  0.00000000000E+00 0. -1.
         23    2    1    2    0    0  0.21574491051E+04  0.27699129113E+03  0.11225925432E+04  0.24495438146E+04  0.93488313810E+02 0.  0.
         11    1    3    3    0    0  0.19208835809E+04  0.27587136671E+03  0.10022842407E+04  0.21841411222E+04  0.00000000000E+00 0.  1.
        -11    1    3    3    0    0  0.23656552423E+03  0.11199244196E+01  0.12030830249E+03  0.26540269240E+03  0.00000000000E+00 0. -1.
         22    1    1    2    0    0 -0.21574491051E+04 -0.27699129113E+03 -0.68084134231E+03  0.22792226197E+04  0.00000000000E+00 0. -1.
<mgrwt>
<rscale>  0 0.47080875E+04</rscale>
<asrwt>0</asrwt>
<pdfrwt beam="1">  1        2 0.32977040E+00 0.47080875E+04</pdfrwt>
<pdfrwt beam="2">  1       -2 0.39773213E+00 0.47080875E+04</pdfrwt>
<totfact> 0.31801098E-02</totfact>
</mgrwt>
</event>
<event>
 6    1  0.1568961E-005  0.3176663E+04  0.7818608E-02  0.8195008E-01
          2   -1    0    0  501    0  0.00000000000E+00  0.00000000000E+00  0.33941577428E+04  0.33941577428E+04  0.00000000000E+00 0. -1.
         -2   -1    0    0    0  501 -0.00000000000E+00 -0.00000000000E+00 -0.74327611104E+03  0.74327611104E+03  0.00000000000E+00 0.  1.
         23    2    1    2    0    0 -0.70423628401E+03 -0.62956581964E+03 -0.33580960030E+03  0.10049226598E+04  0.69279142704E+02 0.  0.
         13    1    3    3    0    0 -0.55555997026E+03 -0.53182740813E+03 -0.26577020056E+03  0.81370822295E+03  0.00000000000E+00 0. -1.
        -13    1    3    3    0    0 -0.14867631376E+03 -0.97738411505E+02 -0.70039399739E+02  0.19121443688E+03  0.00000000000E+00 0.  1.
         22    1    1    2    0    0  0.70423628401E+03  0.62956581964E+03  0.29866912320E+04  0.31325111940E+04  0.00000000000E+00 0. -1.
<mgrwt>
<rscale>  0 0.31766626E+04</rscale>
<asrwt>0</asrwt>
<pdfrwt beam="1">  1        2 0.52217811E+00 0.31766626E+04</pdfrwt>
<pdfrwt beam="2">  1       -2 0.11435017E+00 0.31766626E+04</pdfrwt>
<totfact> 0.48479627E-01</totfact>
</mgrwt>
</event>
<event>
 6    1  0.1568961E-005  0.4980394E+04  0.7818608E-02  0.7831539E-01
          1   -1    0    0  501    0  0.00000000000E+00  0.00000000000E+00  0.31979324961E+04  0.31979324961E+04  0.00000000000E+00 0. -1.
         -1   -1    0    0    0  501 -0.00000000000E+00 -0.00000000000E+00 -0.19390909228E+04  0.19390909228E+04  0.00000000000E+00 0.  1.
         23    2    1    2    0    0 -0.62940354635E+03  0.10253286118E+04  0.28775651194E+04  0.31201660851E+04  0.87222678978E+02 0.  0.
         13    1    3    3    0    0 -0.13940104329E+03  0.17636588268E+03  0.59349618584E+03  0.63464580519E+03  0.00000000000E+00 0.  1.
        -13    1    3    3    0    0 -0.49000250306E+03  0.84896272914E+03  0.22840689335E+04  0.24855202799E+04  0.00000000000E+00 0. -1.
         22    1    1    2    0    0  0.62940354635E+03 -0.10253286118E+04 -0.16187235460E+04  0.20168573338E+04  0.00000000000E+00 0.  1.
<mgrwt>
<rscale>  0 0.49803943E+04</rscale>
<asrwt>0</asrwt>
<pdfrwt beam="1">  1        1 0.49198961E+00 0.49803943E+04</pdfrwt>
<pdfrwt beam="2">  1       -1 0.29832168E+00 0.49803943E+04</pdfrwt>
<totfact> 0.10441412E-02</totfact>
</mgrwt>
</event>
<event>
 6    1  0.1603526E-005  0.4246226E+04  0.7818608E-02  0.7956637E-01
         -2   -1    0    0    0  501 -0.00000000000E+00  0.00000000000E+00  0.22975459760E+04  0.22975459760E+04  0.00000000000E+00 0.  1.
          2   -1    0    0  501    0  0.00000000000E+00 -0.00000000000E+00 -0.19619227656E+04  0.19619227656E+04  0.00000000000E+00 0. -1.
         23    2    1    2    0    0  0.48053173603E+03  0.91868065732E+03 -0.16894879986E+04  0.19843950486E+04  0.92569498317E+02 0.  0.
         13    1    3    3    0    0  0.27388157577E+03  0.59056477905E+03 -0.99638918878E+03  0.11901971649E+04  0.00000000000E+00 0. -1.
        -13    1    3    3    0    0  0.20665016026E+03  0.32811587827E+03 -0.69309880981E+03  0.79419788370E+03  0.00000000000E+00 0.  1.
         22    1    1    2    0    0 -0.48053173603E+03 -0.91868065732E+03  0.20251112090E+04  0.22750736930E+04  0.00000000000E+00 0.  1.
<mgrwt>
<rscale>  0 0.42462255E+04</rscale>
<asrwt>0</asrwt>
<pdfrwt beam="1">  1        2 0.30183427E+00 0.42462255E+04</pdfrwt>
<pdfrwt beam="2">  1       -2 0.35346861E+00 0.42462255E+04</pdfrwt>
<totfact> 0.80245094E-02</totfact>
</mgrwt>
</event>
<event>
 6    1  0.1918729E-005  0.2773309E+04  0.7818608E-02  0.8311603E-01
          2   -1    0    0  501    0  0.00000000000E+00  0.00000000000E+00  0.11300035000E+04  0.11300035000E+04  0.00000000000E+00 0. -1.
         -2   -1    0    0    0  501 -0.00000000000E+00 -0.00000000000E+00 -0.17015977177E+04  0.17015977177E+04  0.00000000000E+00 0.  1.
         23    2    1    2    0    0 -0.59396392841E+03 -0.76060700373E+03 -0.13006012497E+04  0.16221519980E+04  0.92180971297E+02 0.  0.
         13    1    3    3    0    0 -0.37781777143E+03 -0.40989014733E+03 -0.75188058912E+03  0.93599178500E+03  0.00000000000E+00 0.  1.
        -13    1    3    3    0    0 -0.21614615698E+03 -0.35071685640E+03 -0.54872066059E+03  0.68616021300E+03  0.00000000000E+00 0. -1.
         22    1    1    2    0    0  0.59396392841E+03  0.76060700373E+03  0.72900703202E+03  0.12094492197E+04  0.00000000000E+00 0. -1.
<mgrwt>
<rscale>  0 0.27733095E+04</rscale>
<asrwt>0</asrwt>
<pdfrwt beam="1">  1        2 0.17384669E+00 0.27733095E+04</pdfrwt>
<pdfrwt beam="2">  1       -2 0.26178427E+00 0.27733095E+04</pdfrwt>
<totfact> 0.99066860E-01</totfact>
</mgrwt>
</event>
<event>
 6    1  0.1568961E-005  0.1409971E+04  0.7818608E-02  0.8946633E-01
          2   -1    0    0  501    0  0.00000000000E+00  0.00000000000E+00  0.98922952402E+03  0.98922952402E+03  0.00000000000E+00 0. -1.
         -2   -1    0    0    0  501 -0.00000000000E+00 -0.00000000000E+00 -0.50241572327E+03  0.50241572327E+03  0.00000000000E+00 0.  1.
         23    2    1    2    0    0 -0.95607277648E+02 -0.63674393549E+03  0.54033813721E+03  0.84554274341E+03  0.91616796950E+02 0.  0.
         13    1    3    3    0    0 -0.87400581504E+02 -0.33600764939E+03  0.32501429017E+03  0.47557784947E+03  0.00000000000E+00 0.  1.
        -13    1    3    3    0    0 -0.82066961446E+01 -0.30073628611E+03  0.21532384704E+03  0.36996489394E+03  0.00000000000E+00 0. -1.
         22    1    1    2    0    0  0.95607277648E+02  0.63674393549E+03 -0.53524336461E+02  0.64610250388E+03  0.00000000000E+00 0. -1.
<mgrwt>
<rscale>  0 0.14099709E+04</rscale>
<asrwt>0</asrwt>
<pdfrwt beam="1">  1        2 0.15218916E+00 0.14099709E+04</pdfrwt>
<pdfrwt beam="2">  1       -2 0.77294727E-01 0.14099709E+04</pdfrwt>
<totfact> 0.37180105E+01</totfact>
</mgrwt>
</event>
<event>
 6    1  0.1568961E-005  0.1646088E+04  0.7818608E-02  0.8792724E-01
         -2   -1    0    0    0  501 -0.00000000000E+00  0.00000000000E+00  0.27585144253E+03  0.27585144253E+03  0.00000000000E+00 0.  1.
          2   -1    0    0  501    0  0.00000000000E+00 -0.00000000000E+00 -0.24556741806E+04  0.24556741806E+04  0.00000000000E+00 0. -1.
         23    2    1    2    0    0 -0.30213524141E+03 -0.70711707633E+03 -0.61748780019E+03  0.99020694988E+03  0.88985147439E+02 0.  0.
         13    1    3    3    0    0 -0.17415124996E+03 -0.46639647900E+03 -0.35243506386E+03  0.60997115319E+03  0.00000000000E+00 0. -1.
        -13    1    3    3    0    0 -0.12798399145E+03 -0.24072059733E+03 -0.26505273633E+03  0.38023579669E+03  0.00000000000E+00 0.  1.
         22    1    1    2    0    0  0.30213524141E+03  0.70711707633E+03 -0.15623349379E+04  0.17413186733E+04  0.00000000000E+00 0.  1.
<mgrwt>
<rscale>  0 0.16460878E+04</rscale>
<asrwt>0</asrwt>
<pdfrwt beam="1">  1        2 0.37779603E+00 0.16460878E+04</pdfrwt>
<pdfrwt beam="2">  1       -2 0.42438683E-01 0.16460878E+04</pdfrwt>
<totfact> 0.18603165E+01</totfact>
</mgrwt>
</event>
<event>
 6    1  0.1568961E-005  0.2338375E+04  0.7818608E-02  0.8462942E-01
         -1   -1    0    0    0  501 -0.00000000000E+00  0.00000000000E+00  0.78328280769E+03  0.78328280769E+03  0.00000000000E+00 0.  1.
          1   -1    0    0  501    0  0.00000000000E+00 -0.00000000000E+00 -0.17452184990E+04  0.17452184990E+04  0.00000000000E+00 0. -1.
         23    2    1    2    0    0  0.28336588459E+02  0.10605254141E+04  0.44849092695E+02  0.10659238840E+04  0.93086889946E+02 0.  0.
         11    1    3    3    0    0 -0.31739595459E+02  0.50753381699E+03  0.10863938059E+02  0.50864132988E+03  0.00000000000E+00 0. -1.
        -11    1    3    3    0    0  0.60076183918E+02  0.55299159711E+03  0.33985154636E+02  0.55728255408E+03  0.00000000000E+00 0.  1.
         22    1    1    2    0    0 -0.28336588459E+02 -0.10605254141E+04 -0.10067847840E+04  0.14625774228E+04  0.00000000000E+00 0. -1.
<mgrwt>
<rscale>  0 0.23383752E+04</rscale>
<asrwt>0</asrwt>
<pdfrwt beam="1">  1        1 0.26849515E+00 0.23383752E+04</pdfrwt>
<pdfrwt beam="2">  1       -1 0.12050505E+00 0.23383752E+04</pdfrwt>
<totfact> 0.24503120E+00</totfact>
</mgrwt>
</event>
<event>
 6    1  0.1568961E-005  0.1639441E+04  0.7818608E-02  0.8796678E-01
          2   -1    0    0  501    0  0.00000000000E+00  0.00000000000E+00  0.22544440342E+04  0.22544440342E+04  0.00000000000E+00 0. -1.
         -2   -1    0    0    0  501 -0.00000000000E+00 -0.00000000000E+00 -0.29805196579E+03  0.29805196579E+03  0.00000000000E+00 0.  1.
         23    2    1    2    0    0 -0.39942328894E+03  0.60527740449E+03  0.39118479581E+03  0.82745295521E+03  0.75849512159E+02 0.  0.
         11    1    3    3    0    0 -0.21664559901E+03  0.33504355349E+03  0.17238555688E+03  0.43463349908E+03  0.00000000000E+00 0.  1.
        -11    1    3    3    0    0 -0.18277768993E+03  0.27023385100E+03  0.21879923892E+03  0.39281945613E+03  0.00000000000E+00 0. -1.
         22    1    1    2    0    0  0.39942328894E+03 -0.60527740449E+03  0.15652072726E+04  0.17250430448E+04  0.00000000000E+00 0. -1.
<mgrwt>
<rscale>  0 0.16394407E+04</rscale>
<asrwt>0</asrwt>
<pdfrwt beam="1">  1        2 0.34683753E+00 0.16394407E+04</pdfrwt>
<pdfrwt beam="2">  1       -2 0.45854150E-01 0.16394407E+04</pdfrwt>
<totfact> 0.20761245E+01</totfact>
</mgrwt>
</event>
<event>
 6    1  0.1568961E-005  0.4340783E+04  0.7818608E-02  0.7939120E-01
         -2   -1    0    0    0  501 -0.00000000000E+00  0.00000000000E+00  0.15696299805E+04  0.15696299805E+04  0.00000000000E+00 0.  1.
          2   -1    0    0  501    0  0.00000000000E+00 -0.00000000000E+00 -0.30010889705E+04  0.30010889705E+04  0.00000000000E+00 0. -1.
         23    2    1    2    0    0 -0.19057551933E+04 -0.48374698279E+03  0.24966504546E+03  0.19838111399E+04  0.85205654739E+02 0.  0.
         11    1    3    3    0    0 -0.12388536449E+04 -0.32904574734E+03  0.20104019984E+03  0.12974770207E+04  0.00000000000E+00 0. -1.
        -11    1    3    3    0    0 -0.66690154843E+03 -0.15470123545E+03  0.48624845623E+02  0.68633411919E+03  0.00000000000E+00 0.  1.
         22    1    1    2    0    0  0.19057551933E+04  0.48374698279E+03 -0.16811240355E+04  0.25869078111E+04  0.00000000000E+00 0.  1.
<mgrwt>
<rscale>  0 0.43407830E+04</rscale>
<asrwt>0</asrwt>
<pdfrwt beam="1">  1        2 0.46170599E+00 0.43407830E+04</pdfrwt>
<pdfrwt beam="2">  1       -2 0.24148154E+00 0.43407830E+04</pdfrwt>
<totfact> 0.96715178E-02</totfact>
</mgrwt>
</event>
<event>
 6    1  0.1568961E-005  0.3300592E+04  0.7818608E-02  0.8162745E-01
          3   -1    0    0  501    0  0.00000000000E+00  0.00000000000E+00  0.91555664799E+03  0.91555664799E+03  0.00000000000E+00 0. -1.
         -3   -1    0    0    0  501 -0.00000000000E+00 -0.00000000000E+00 -0.29746671212E+04  0.29746671212E+04  0.00000000000E+00 0.  1.
         23    2    1    2    0    0  0.71168507647E+03 -0.10648919158E+04 -0.22545919678E+04  0.25945758791E+04  0.90269655002E+02 0.  0.
         13    1    3    3    0    0  0.10476044233E+03 -0.16223860442E+03 -0.27866609101E+03  0.33904410527E+03  0.00000000000E+00 0.  1.
        -13    1    3    3    0    0  0.60692463414E+03 -0.90265331137E+03 -0.19759258768E+04  0.22555317738E+04  0.00000000000E+00 0. -1.
         22    1    1    2    0    0 -0.71168507647E+03  0.10648919158E+04  0.19548149462E+03  0.12956478901E+04  0.00000000000E+00 0. -1.
<mgrwt>
<rscale>  0 0.33005916E+04</rscale>
<asrwt>0</asrwt>
<pdfrwt beam="1">  1        3 0.14085487E+00 0.33005916E+04</pdfrwt>
<pdfrwt beam="2">  1       -3 0.45764111E+00 0.33005916E+04</pdfrwt>
<totfact> 0.42073019E-03</totfact>
</mgrwt>
</event>
<event>
 6    1  0.1568961E-005  0.8836834E+03  0.7818608E-02  0.9446211E-01
          1   -1    0    0  501    0  0.00000000000E+00  0.00000000000E+00  0.88880387569E+03  0.88880387569E+03  0.00000000000E+00 0. -1.
         -1   -1    0    0    0  501 -0.00000000000E+00 -0.00000000000E+00 -0.21964808340E+03  0.21964808340E+03  0.00000000000E+00 0.  1.
         23    2    1    2    0    0 -0.32824157372E+01  0.27839676810E+03  0.76063287437E+03  0.81539293553E+03  0.93742919805E+02 0.  0.
         13    1    3    3    0    0 -0.47626197884E+02  0.16333395810E+03  0.42190052842E+03  0.45491349999E+03  0.00000000000E+00 0. -1.
        -13    1    3    3    0    0  0.44343782146E+02  0.11506281000E+03  0.33873234595E+03  0.36047943554E+03  0.00000000000E+00 0.  1.
         22    1    1    2    0    0  0.32824157372E+01 -0.27839676810E+03 -0.91477082075E+02  0.29305902355E+03  0.00000000000E+00 0.  1.
<mgrwt>
<rscale>  0 0.88368335E+03</rscale>
<asrwt>0</asrwt>
<pdfrwt beam="1">  1        1 0.13673906E+00 0.88368335E+03</pdfrwt>
<pdfrwt beam="2">  1       -1 0.33792013E-01 0.88368335E+03</pdfrwt>
<totfact> 0.15467200E+02</totfact>
</mgrwt>
</event>
<event>
 6    1  0.1568961E-005  0.3294110E+04  0.7818608E-02  0.8164396E-01
         -2   -1    0    0    0  501 -0.00000000000E+00  0.00000000000E+00  0.71931471528E+03  0.71931471528E+03  0.00000000000E+00 0.  1.
          2   -1    0    0  501    0  0.00000000000E+00 -0.00000000000E+00 -0.37713539113E+04  0.37713539113E+04  0.00000000000E+00 0. -1.
         23    2    1    2    0    0  0.66015382630E+03  0.18052512732E+03  0.51338739205E+03  0.86015087414E+03  0.88884846829E+02 0.  0.
         11    1    3    3    0    0  0.23018364965E+03  0.41674995021E+02  0.13025542673E+03  0.26774576368E+03  0.00000000000E+00 0.  1.
        -11    1    3    3    0    0  0.42997017664E+03  0.13885013230E+03  0.38313196532E+03  0.59240511045E+03  0.00000000000E+00 0. -1.
         22    1    1    2    0    0 -0.66015382630E+03 -0.18052512732E+03 -0.35654265880E+04  0.36305177524E+04  0.00000000000E+00 0. -1.
<mgrwt>
<rscale>  0 0.32941101E+04</rscale>
<asrwt>0</asrwt>
<pdfrwt beam="1">  1        2 0.58020829E+00 0.32941101E+04</pdfrwt>
<pdfrwt beam="2">  1       -2 0.11066380E+00 0.32941101E+04</pdfrwt>
<totfact> 0.27885045E-01</totfact>
</mgrwt>
</event>
<event>
 6    1  0.1568961E-005  0.1922852E+04  0.7818608E-02  0.8643564E-01
          1   -1    0    0  501    0  0.00000000000E+00  0.00000000000E+00  0.67863475435E+03  0.67863475435E+03  0.00000000000E+00 0. -1.
         -1   -1    0    0    0  501 -0.00000000000E+00 -0.00000000000E+00 -0.13620583347E+04  0.13620583347E+04  0.00000000000E+00 0.  1.
         23    2    1    2    0    0  0.21276992331E+03 -0.77488246780E+03 -0.89922542751E+03  0.12086568419E+04  0.80815301364E+02 0.  0.
         11    1    3    3    0    0  0.14565523328E+03 -0.40918398519E+03 -0.44795364474E+03  0.62394667124E+03  0.00000000000E+00 0. -1.
        -11    1    3    3    0    0  0.67114690027E+02 -0.36569848262E+03 -0.45127178277E+03  0.58471017071E+03  0.00000000000E+00 0.  1.
         22    1    1    2    0    0 -0.21276992331E+03  0.77488246780E+03  0.21580184721E+03  0.83203624706E+03  0.00000000000E+00 0. -1.
<mgrwt>
<rscale>  0 0.19228522E+04</rscale>
<asrwt>0</asrwt>
<pdfrwt beam="1">  1        1 0.10440535E+00 0.19228522E+04</pdfrwt>
<pdfrwt beam="2">  1       -1 0.20954744E+00 0.19228522E+04</pdfrwt>
<totfact> 0.34516844E+00</totfact>
</mgrwt>
</event>
<event>
 6    1  0.1568961E-005  0.1579554E+04  0.7818608E-02  0.8833208E-01
          3   -1    0    0  501    0  0.00000000000E+00  0.00000000000E+00  0.87511382163E+03  0.87511382163E+03  0.00000000000E+00 0. -1.
         -3   -1    0    0    0  501 -0.00000000000E+00 -0.00000000000E+00 -0.71276148489E+03  0.71276148489E+03  0.00000000000E+00 0.  1.
         23    2    1    2    0    0  0.21093020305E+03 -0.34741161855E+02 -0.68025314696E+03  0.71857530074E+03  0.88924799662E+02 0.  0.
         11    1    3    3    0    0  0.14493541018E+03 -0.42413727820E+02 -0.57165851285E+03  0.59126868067E+03  0.00000000000E+00 0. -1.
        -11    1    3    3    0    0  0.65994792874E+02  0.76725659649E+01 -0.10859463412E+03  0.12730662007E+03  0.00000000000E+00 0.  1.
         22    1    1    2    0    0 -0.21093020305E+03  0.34741161855E+02  0.84260548371E+03  0.86930000579E+03  0.00000000000E+00 0. -1.
<mgrwt>
<rscale>  0 0.15795536E+04</rscale>
<asrwt>0</asrwt>
<pdfrwt beam="1">  1        3 0.13463290E+00 0.15795536E+04</pdfrwt>
<pdfrwt beam="2">  1       -3 0.10965561E+00 0.15795536E+04</pdfrwt>
<totfact> 0.75308993E-01</totfact>
</mgrwt>
</event>
<event>
 6    1  0.1568961E-005  0.3415665E+04  0.7818608E-02  0.8134072E-01
         -2   -1    0    0    0  501 -0.00000000000E+00  0.00000000000E+00  0.22348423117E+04  0.22348423117E+04  0.00000000000E+00 0.  1.
          2   -1    0    0  501    0  0.00000000000E+00 -0.00000000000E+00 -0.13050996678E+04  0.13050996678E+04  0.00000000000E+00 0. -1.
         23    2    1    2    0    0  0.14435410882E+04 -0.75158837150E+03 -0.67428769132E+02  0.16312652702E+04  0.88225785623E+02 0.  0.
         13    1    3    3    0    0  0.11253053706E+04 -0.54566166192E+03 -0.41037712515E+02  0.12512964957E+04  0.00000000000E+00 0. -1.
        -13    1    3    3    0    0  0.31823571763E+03 -0.20592670958E+03 -0.26391056617E+02  0.37996877446E+03  0.00000000000E+00 0.  1.
         22    1    1    2    0    0 -0.14435410882E+04  0.75158837150E+03  0.99717141306E+03  0.19086767093E+04  0.00000000000E+00 0.  1.
<mgrwt>
<rscale>  0 0.34156651E+04</rscale>
<asrwt>0</asrwt>
<pdfrwt beam="1">  1        2 0.20078456E+00 0.34156651E+04</pdfrwt>
<pdfrwt beam="2">  1       -2 0.34382190E+00 0.34156651E+04</pdfrwt>
<totfact> 0.23105453E-01</totfact>
</mgrwt>
</event>
<event>
 6    1  0.1568961E-005  0.1489294E+04  0.7818608E-02  0.8891603E-01
         -1   -1    0    0    0  501 -0.00000000000E+00  0.00000000000E+00  0.19008838208E+03  0.19008838208E+03  0.00000000000E+00 0.  1.
          1   -1    0    0  501    0  0.00000000000E+00 -0.00000000000E+00 -0.29170610919E+04  0.29170610919E+04  0.00000000000E+00 0. -1.
         23    2    1    2    0    0  0.29007185449E+03 -0.54729874231E+03 -0.22204684227E+04  0.23070093694E+04  0.90192128845E+02 0.  0.
         11    1    3    3    0    0  0.21724320951E+03 -0.31736401218E+03 -0.13898775123E+04  0.14421074951E+04  0.00000000000E+00 0. -1.
        -11    1    3    3    0    0  0.72828644986E+02 -0.22993473014E+03 -0.83059091038E+03  0.86490187423E+03  0.00000000000E+00 0.  1.
         22    1    1    2    0    0 -0.29007185449E+03  0.54729874231E+03 -0.50650428710E+03  0.80014010458E+03  0.00000000000E+00 0.  1.
<mgrwt>
<rscale>  0 0.14892944E+04</rscale>
<asrwt>0</asrwt>
<pdfrwt beam="1">  1        1 0.44877863E+00 0.14892944E+04</pdfrwt>
<pdfrwt beam="2">  1       -1 0.29244367E-01 0.14892944E+04</pdfrwt>
<totfact> 0.71352686E+00</totfact>
</mgrwt>
</event>
<event>
 6    1  0.1568961E-005  0.2343102E+04  0.7818608E-02  0.8461118E-01
         -2   -1    0    0    0  501 -0.00000000000E+00  0.00000000000E+00  0.32606837068E+03  0.32606837068E+03  0.00000000000E+00 0. -1.
          2   -1    0    0  501    0  0.00000000000E+00 -0.00000000000E+00 -0.42093369697E+04  0.42093369697E+04  0.00000000000E+00 0.  1.
         23    2    1    2    0    0 -0.21190554307E+03 -0.96856857949E+03 -0.74291900012E+03  0.12422572029E+04  0.90803441289E+02 0.  0.
         13    1    3    3    0    0 -0.96959421346E+02 -0.33487381318E+03 -0.30730914118E+03  0.46473703144E+03  0.00000000000E+00 0. -1.
        -13    1    3    3    0    0 -0.11494612172E+03 -0.63369476631E+03 -0.43560985894E+03  0.77752017141E+03  0.00000000000E+00 0.  1.
         22    1    1    2    0    0  0.21190554307E+03  0.96856857949E+03 -0.31403495989E+04  0.32931481375E+04  0.00000000000E+00 0.  1.
<mgrwt>
<rscale>  0 0.23431019E+04</rscale>
<asrwt>0</asrwt>
<pdfrwt beam="1">  1        2 0.64759025E+00 0.23431019E+04</pdfrwt>
<pdfrwt beam="2">  1       -2 0.50164368E-01 0.23431019E+04</pdfrwt>
<totfact> 0.78021771E-01</totfact>
</mgrwt>
</event>
<event>
 6    1  0.1568961E-005  0.4719241E+04  0.7818608E-02  0.7873339E-01
          1   -1    0    0  501    0  0.00000000000E+00  0.00000000000E+00  0.37274517707E+04  0.37274517707E+04  0.00000000000E+00 0. -1.
         -1   -1    0    0    0  501 -0.00000000000E+00 -0.00000000000E+00 -0.14937308928E+04  0.14937308928E+04  0.00000000000E+00 0.  1.
         23    2    1    2    0    0 -0.21119142599E+04 -0.41602416419E+03  0.21844303833E+04  0.30681179875E+04  0.91399888747E+02 0.  0.
         11    1    3    3    0    0 -0.13472771268E+04 -0.25496102439E+03  0.14518240796E+04  0.19969862139E+04  0.00000000000E+00 0.  1.
        -11    1    3    3    0    0 -0.76463713308E+03 -0.16106313979E+03  0.73260630366E+03  0.10711317736E+04  0.00000000000E+00 0. -1.
         22    1    1    2    0    0  0.21119142599E+04  0.41602416419E+03  0.49290494642E+02  0.21530646761E+04  0.00000000000E+00 0.  1.
<mgrwt>
<rscale>  0 0.47192414E+04</rscale>
<asrwt>0</asrwt>
<pdfrwt beam="1">  1        1 0.57345412E+00 0.47192414E+04</pdfrwt>
<pdfrwt beam="2">  1       -1 0.22980475E+00 0.47192414E+04</pdfrwt>
<totfact> 0.11422432E-02</totfact>
</mgrwt>
</event>
<event>
 6    1  0.1568961E-005  0.2900380E+04  0.7818608E-02  0.8272764E-01
         -2   -1    0    0    0  501 -0.00000000000E+00  0.00000000000E+00  0.16500350532E+04  0.16500350532E+04  0.00000000000E+00 0.  1.
          2   -1    0    0  501    0  0.00000000000E+00 -0.00000000000E+00 -0.12745495416E+04  0.12745495416E+04  0.00000000000E+00 0. -1.
         23    2    1    2    0    0  0.59417902387E+03  0.95647178936E+03 -0.73157860755E+03  0.13455095616E+04  0.85450132669E+02 0.  0.
         13    1    3    3    0    0  0.21533712148E+03  0.29579205615E+03 -0.20244581073E+03  0.41814748911E+03  0.00000000000E+00 0.  1.
        -13    1    3    3    0    0  0.37884190239E+03  0.66067973320E+03 -0.52913279682E+03  0.92736207252E+03  0.00000000000E+00 0. -1.
         22    1    1    2    0    0 -0.59417902387E+03 -0.95647178936E+03  0.11070641192E+04  0.15790750332E+04  0.00000000000E+00 0.  1.
<mgrwt>
<rscale>  0 0.29003803E+04</rscale>
<asrwt>0</asrwt>
<pdfrwt beam="1">  1        2 0.19608455E+00 0.29003803E+04</pdfrwt>
<pdfrwt beam="2">  1       -2 0.25385155E+00 0.29003803E+04</pdfrwt>
<totfact> 0.89848809E-01</totfact>
</mgrwt>
</event>
<event>
 6    1  0.1568961E-005  0.2987106E+04  0.7818608E-02  0.8247422E-01
         -2   -1    0    0    0  501 -0.00000000000E+00  0.00000000000E+00  0.10130691258E+04  0.10130691258E+04  0.00000000000E+00 0. -1.
          2   -1    0    0  501    0  0.00000000000E+00 -0.00000000000E+00 -0.22019231449E+04  0.22019231449E+04  0.00000000000E+00 0.  1.
         23    2    1    2    0    0 -0.58611631406E+03  0.53057440578E+03  0.76706588055E+03  0.11053325380E+04  0.91260181886E+02 0.  0.
         11    1    3    3    0    0 -0.50128380824E+03  0.43326258532E+03  0.59731828488E+03  0.89207121783E+03  0.00000000000E+00 0.  1.
        -11    1    3    3    0    0 -0.84832505818E+02  0.97311820464E+02  0.16974759567E+03  0.21326132017E+03  0.00000000000E+00 0. -1.
         22    1    1    2    0    0  0.58611631406E+03 -0.53057440578E+03 -0.19559198997E+04  0.21096597327E+04  0.00000000000E+00 0.  1.
<mgrwt>
<rscale>  0 0.29871059E+04</rscale>
<asrwt>0</asrwt>
<pdfrwt beam="1">  1        2 0.33875741E+00 0.29871059E+04</pdfrwt>
<pdfrwt beam="2">  1       -2 0.15585679E+00 0.29871059E+04</pdfrwt>
<totfact> 0.11938449E+00</totfact>
</mgrwt>
</event>
<event>
 6    1  0.1568961E-005  0.1654944E+04  0.7818608E-02  0.8787487E-01
         -2   -1    0    0    0  501 -0.00000000000E+00  0.00000000000E+00  0.12355704289E+04  0.12355704289E+04  0.00000000000E+00 0.  1.
          2   -1    0    0  501    0  0.00000000000E+00 -0.00000000000E+00 -0.55416489725E+03  0.55416489725E+03  0.00000000000E+00 0. -1.
         23    2    1    2    0    0 -0.27088139923E+03  0.87959605633E+02 -0.49553205726E+03  0.57882834670E+03  0.91523824747E+02 0.  0.
         13    1    3    3    0    0 -0.22497985348E+03  0.36812953782E+02 -0.40989498612E+03  0.46902561517E+03  0.00000000000E+00 0.  1.
        -13    1    3    3    0    0 -0.45901545749E+02  0.51146651851E+02 -0.85637071143E+02  0.10980273153E+03  0.00000000000E+00 0. -1.
         22    1    1    2    0    0  0.27088139923E+03 -0.87959605633E+02  0.11769375889E+04  0.12109069794E+04  0.00000000000E+00 0.  1.
<mgrwt>
<rscale>  0 0.16549438E+04</rscale>
<asrwt>0</asrwt>
<pdfrwt beam="1">  1        2 0.85256138E-01 0.16549438E+04</pdfrwt>
<pdfrwt beam="2">  1       -2 0.19008776E+00 0.16549438E+04</pdfrwt>
<totfact> 0.80565691E+00</totfact>
</mgrwt>
</event>
<event>
 6    1  0.1568961E-005  0.6653264E+04  0.7818608E-02  0.7614291E-01
          2   -1    0    0  501    0  0.00000000000E+00  0.00000000000E+00  0.37961169121E+04  0.37961169121E+04  0.00000000000E+00 0.  1.
         -2   -1    0    0    0  501 -0.00000000000E+00 -0.00000000000E+00 -0.29152103703E+04  0.29152103703E+04  0.00000000000E+00 0. -1.
         23    2    1    2    0    0 -0.19498917108E+04 -0.15546654517E+04 -0.17793832935E+04  0.30649312044E+04  0.92390647978E+02 0.  0.
         13    1    3    3    0    0 -0.94835581564E+03 -0.79647841458E+03 -0.92482684937E+03  0.15456588625E+04  0.00000000000E+00 0.  1.
        -13    1    3    3    0    0 -0.10015358952E+04 -0.75818703716E+03 -0.85455644409E+03  0.15192723419E+04  0.00000000000E+00 0. -1.
         22    1    1    2    0    0  0.19498917108E+04  0.15546654517E+04  0.26602898352E+04  0.36463960781E+04  0.00000000000E+00 0. -1.
<mgrwt>
<rscale>  0 0.66532637E+04</rscale>
<asrwt>0</asrwt>
<pdfrwt beam="1">  1        2 0.58401799E+00 0.66532637E+04</pdfrwt>
<pdfrwt beam="2">  1       -2 0.44849390E+00 0.66532637E+04</pdfrwt>
<totfact> 0.11259839E-03</totfact>
</mgrwt>
</event>
<event>
 6    1  0.1909825E-005  0.3167909E+04  0.7818608E-02  0.8197344E-01
          2   -1    0    0  501    0  0.00000000000E+00  0.00000000000E+00  0.14380712294E+04  0.14380712294E+04  0.00000000000E+00 0. -1.
         -2   -1    0    0    0  501 -0.00000000000E+00 -0.00000000000E+00 -0.17446361928E+04  0.17446361928E+04  0.00000000000E+00 0.  1.
         23    2    1    2    0    0 -0.43832235627E+03  0.78252122806E+03  0.11566274289E+04  0.14664912537E+04  0.91343459050E+02 0.  0.
         13    1    3    3    0    0 -0.12710992503E+03  0.18947399616E+03  0.23870723668E+03  0.33020974108E+03  0.00000000000E+00 0. -1.
        -13    1    3    3    0    0 -0.31121243124E+03  0.59304723191E+03  0.91792019220E+03  0.11362815126E+04  0.00000000000E+00 0.  1.
         22    1    1    2    0    0  0.43832235627E+03 -0.78252122806E+03 -0.14631923922E+04  0.17162161685E+04  0.00000000000E+00 0.  1.
<mgrwt>
<rscale>  0 0.31679085E+04</rscale>
<asrwt>0</asrwt>
<pdfrwt beam="1">  1        2 0.22124173E+00 0.31679085E+04</pdfrwt>
<pdfrwt beam="2">  1       -2 0.26840557E+00 0.31679085E+04</pdfrwt>
<totfact> 0.57597791E-01</totfact>
</mgrwt>
</event>
<event>
 6    1  0.1568961E-005  0.2235237E+04  0.7818608E-02  0.8503903E-01
          2   -1    0    0  501    0  0.00000000000E+00  0.00000000000E+00  0.11956119840E+04  0.11956119840E+04  0.00000000000E+00 0. -1.
         -2   -1    0    0    0  501 -0.00000000000E+00 -0.00000000000E+00 -0.10447129159E+04  0.10447129159E+04  0.00000000000E+00 0.  1.
         23    2    1    2    0    0  0.62118706325E+03 -0.21698134430E+03 -0.82762155078E+03  0.10611485463E+04  0.90136200809E+02 0.  0.
         13    1    3    3    0    0  0.50983247166E+03 -0.17585721487E+03 -0.61783967171E+03  0.82011021766E+03  0.00000000000E+00 0. -1.
        -13    1    3    3    0    0  0.11135459159E+03 -0.41124129430E+02 -0.20978187907E+03  0.24103832865E+03  0.00000000000E+00 0.  1.
         22    1    1    2    0    0 -0.62118706325E+03  0.21698134430E+03  0.97852061886E+03  0.11791763536E+04  0.00000000000E+00 0. -1.
<mgrwt>
<rscale>  0 0.22352372E+04</rscale>
<asrwt>0</asrwt>
<pdfrwt beam="1">  1        2 0.18394031E+00 0.22352372E+04</pdfrwt>
<pdfrwt beam="2">  1       -2 0.16072506E+00 0.22352372E+04</pdfrwt>
<totfact> 0.43213517E+00</totfact>
</mgrwt>
</event>
<event>
 6    1  0.3473371E-005  0.3238574E+04  0.7818608E-02  0.8178704E-01
          2   -1    0    0  501    0  0.00000000000E+00  0.00000000000E+00  0.17100882937E+04  0.17100882937E+04  0.00000000000E+00 0.  1.
         -2   -1    0    0    0  501 -0.00000000000E+00 -0.00000000000E+00 -0.15333066877E+04  0.15333066877E+04  0.00000000000E+00 0. -1.
         23    2    1    2    0    0 -0.35704750822E+03  0.87349570035E+03  0.14047385617E+04  0.16947323497E+04  0.91376411801E+02 0.  0.
         11    1    3    3    0    0 -0.19572124208E+03  0.41695867342E+03  0.61484111188E+03  0.76823885140E+03  0.00000000000E+00 0. -1.
        -11    1    3    3    0    0 -0.16132626613E+03  0.45653702692E+03  0.78989744981E+03  0.92649349826E+03  0.00000000000E+00 0.  1.
         22    1    1    2    0    0  0.35704750822E+03 -0.87349570035E+03 -0.12279569558E+04  0.15486626317E+04  0.00000000000E+00 0. -1.
<mgrwt>
<rscale>  0 0.32385736E+04</rscale>
<asrwt>0</asrwt>
<pdfrwt beam="1">  1        2 0.26309051E+00 0.32385736E+04</pdfrwt>
<pdfrwt beam="2">  1       -2 0.23589334E+00 0.32385736E+04</pdfrwt>
<totfact> 0.63838155E-01</totfact>
</mgrwt>
</event>
<event>
 6    1  0.1568961E-005  0.3258351E+04  0.7818608E-02  0.8173575E-01
         -2   -1    0    0    0  501 -0.00000000000E+00  0.00000000000E+00  0.90044112018E+03  0.90044112018E+03  0.00000000000E+00 0.  1.
          2   -1    0    0  501    0  0.00000000000E+00 -0.00000000000E+00 -0.29476799388E+04  0.29476799388E+04  0.00000000000E+00 0. -1.
         23    2    1    2    0    0  0.31613556516E+03 -0.15342123345E+04 -0.15470395960E+04  0.22037523518E+04  0.97178873859E+02 0.  0.
         11    1    3    3    0    0  0.19163428984E+03 -0.11394288213E+04 -0.11484326696E+04  0.16290854294E+04  0.00000000000E+00 0. -1.
        -11    1    3    3    0    0  0.12450127532E+03 -0.39478351323E+03 -0.39860692638E+03  0.57466692234E+03  0.00000000000E+00 0.  1.
         22    1    1    2    0    0 -0.31613556516E+03  0.15342123345E+04 -0.50019922270E+03  0.16443687072E+04  0.00000000000E+00 0.  1.
<mgrwt>
<rscale>  0 0.32583506E+04</rscale>
<asrwt>0</asrwt>
<pdfrwt beam="1">  1        2 0.45348922E+00 0.32583506E+04</pdfrwt>
<pdfrwt beam="2">  1       -2 0.13852940E+00 0.32583506E+04</pdfrwt>
<totfact> 0.58033352E-01</totfact>
</mgrwt>
</event>
<event>
 6    1  0.1568961E-005  0.1694781E+04  0.7818608E-02  0.8764346E-01
         -1   -1    0    0    0  501 -0.00000000000E+00  0.00000000000E+00  0.73334964808E+03  0.73334964808E+03  0.00000000000E+00 0.  1.
          1   -1    0    0  501    0  0.00000000000E+00 -0.00000000000E+00 -0.97916597322E+03  0.97916597322E+03  0.00000000000E+00 0. -1.
         23    2    1    2    0    0  0.39837605507E+03 -0.23052022321E+03 -0.83927079365E+03  0.96149547459E+03  0.90857184781E+02 0.  0.
         11    1    3    3    0    0  0.15556242974E+03 -0.10570029621E+03 -0.43219191487E+03  0.47134071906E+03  0.00000000000E+00 0. -1.
        -11    1    3    3    0    0  0.24281362532E+03 -0.12481992701E+03 -0.40707887877E+03  0.49015475553E+03  0.00000000000E+00 0.  1.
         22    1    1    2    0    0 -0.39837605507E+03  0.23052022321E+03  0.59345446851E+03  0.75102014671E+03  0.00000000000E+00 0.  1.
<mgrwt>
<rscale>  0 0.16947814E+04</rscale>
<asrwt>0</asrwt>
<pdfrwt beam="1">  1        1 0.15064092E+00 0.16947814E+04</pdfrwt>
<pdfrwt beam="2">  1       -1 0.11282302E+00 0.16947814E+04</pdfrwt>
<totfact> 0.10751115E+01</totfact>
</mgrwt>
</event>
<event>
 6    1  0.1568961E-005  0.1694286E+04  0.7818608E-02  0.8764630E-01
          1   -1    0    0  501    0  0.00000000000E+00  0.00000000000E+00  0.11208299405E+04  0.11208299405E+04  0.00000000000E+00 0. -1.
         -1   -1    0    0    0  501 -0.00000000000E+00 -0.00000000000E+00 -0.64028592190E+03  0.64028592190E+03  0.00000000000E+00 0.  1.
         23    2    1    2    0    0  0.24506349540E+03 -0.19606507775E+03 -0.57439876144E+03  0.66047881930E+03  0.88321583455E+02 0.  0.
         11    1    3    3    0    0  0.33216199767E+02 -0.68453387223E+02 -0.10193598774E+03  0.12720113107E+03  0.00000000000E+00 0. -1.
        -11    1    3    3    0    0  0.21184729563E+03 -0.12761169052E+03 -0.47246277370E+03  0.53327768822E+03  0.00000000000E+00 0.  1.
         22    1    1    2    0    0 -0.24506349540E+03  0.19606507775E+03  0.10549427800E+04  0.11006370431E+04  0.00000000000E+00 0. -1.
<mgrwt>
<rscale>  0 0.16942864E+04</rscale>
<asrwt>0</asrwt>
<pdfrwt beam="1">  1        1 0.17243537E+00 0.16942864E+04</pdfrwt>
<pdfrwt beam="2">  1       -1 0.98505527E-01 0.16942864E+04</pdfrwt>
<totfact> 0.11487757E+01</totfact>
</mgrwt>
</event>
<event>
 6    1  0.1568961E-005  0.2137619E+04  0.7818608E-02  0.8544850E-01
         -1   -1    0    0    0  501 -0.00000000000E+00  0.00000000000E+00  0.12662298584E+04  0.12662298584E+04  0.00000000000E+00 0.  1.
          1   -1    0    0  501    0  0.00000000000E+00 -0.00000000000E+00 -0.90216957924E+03  0.90216957924E+03  0.00000000000E+00 0. -1.
         23    2    1    2    0    0 -0.93407034716E+02  0.10322470973E+04 -0.73814661149E+02  0.10432357129E+04  0.92915039534E+02 0.  0.
         13    1    3    3    0    0 -0.44853146127E+01  0.56212882001E+03 -0.43122105868E+02  0.56379823017E+03  0.00000000000E+00 0.  1.
        -13    1    3    3    0    0 -0.88921720103E+02  0.47011827728E+03 -0.30692555281E+02  0.47943748277E+03  0.00000000000E+00 0. -1.
         22    1    1    2    0    0  0.93407034716E+02 -0.10322470973E+04  0.43787494027E+03  0.11251637247E+04  0.00000000000E+00 0.  1.
<mgrwt>
<rscale>  0 0.21376193E+04</rscale>
<asrwt>0</asrwt>
<pdfrwt beam="1">  1        1 0.13879532E+00 0.21376193E+04</pdfrwt>
<pdfrwt beam="2">  1       -1 0.19480459E+00 0.21376193E+04</pdfrwt>
<totfact> 0.27164573E+00</totfact>
</mgrwt>
</event>
<event>
 6    1  0.1568961E-005  0.3301495E+04  0.7818608E-02  0.8162515E-01
          1   -1    0    0  501    0  0.00000000000E+00  0.00000000000E+00  0.15365978175E+04  0.15365978175E+04  0.00000000000E+00 0. -1.
         -1   -1    0    0    0  501 -0.00000000000E+00 -0.00000000000E+00 -0.17733769977E+04  0.17733769977E+04  0.00000000000E+00 0.  1.
         23    2    1    2    0    0 -0.24887475842E+03  0.99287330309E+03 -0.14155853792E+04  0.17487829319E+04  0.81386336836E+02 0.  0.
         11    1    3    3    0    0 -0.20009290883E+03  0.76870848135E+03 -0.10394581793E+04  0.13082137470E+04  0.00000000000E+00 0.  1.
        -11    1    3    3    0    0 -0.48781849594E+02  0.22416482175E+03 -0.37612719992E+03  0.44056918489E+03  0.00000000000E+00 0. -1.
         22    1    1    2    0    0  0.24887475842E+03 -0.99287330309E+03  0.11788061991E+04  0.15611918832E+04  0.00000000000E+00 0. -1.
<mgrwt>
<rscale>  0 0.33014949E+04</rscale>
<asrwt>0</asrwt>
<pdfrwt beam="1">  1        1 0.23639966E+00 0.33014949E+04</pdfrwt>
<pdfrwt beam="2">  1       -1 0.27282723E+00 0.33014949E+04</pdfrwt>
<totfact> 0.25353627E-01</totfact>
</mgrwt>
</event>
<event>
 6    1  0.1568961E-005  0.1696344E+04  0.7818608E-02  0.8763452E-01
         -1   -1    0    0    0  501 -0.00000000000E+00  0.00000000000E+00  0.66168224572E+03  0.66168224572E+03  0.00000000000E+00 0.  1.
          1   -1    0    0  501    0  0.00000000000E+00 -0.00000000000E+00 -0.10872226545E+04  0.10872226545E+04  0.00000000000E+00 0. -1.
         23    2    1    2    0    0  0.71472332868E+03 -0.42130307879E+03 -0.38253325330E+03  0.91813698067E+03  0.91203643849E+02 0.  0.
         13    1    3    3    0    0  0.18099210216E+03 -0.14874664840E+03 -0.12875062953E+03  0.26732083918E+03  0.00000000000E+00 0.  1.
        -13    1    3    3    0    0  0.53373122651E+03 -0.27255643038E+03 -0.25378262377E+03  0.65081614149E+03  0.00000000000E+00 0. -1.
         22    1    1    2    0    0 -0.71472332868E+03  0.42130307879E+03 -0.43007155493E+02  0.83076791956E+03  0.00000000000E+00 0.  1.
<mgrwt>
<rscale>  0 0.16963442E+04</rscale>
<asrwt>0</asrwt>
<pdfrwt beam="1">  1        1 0.16726502E+00 0.16963442E+04</pdfrwt>
<pdfrwt beam="2">  1       -1 0.10179727E+00 0.16963442E+04</pdfrwt>
<totfact> 0.11291213E+01</totfact>
</mgrwt>
</event>
<event>
 6    1  0.1568961E-005  0.7387074E+04  0.7818608E-02  0.7538782E-01
          2   -1    0    0  501    0  0.00000000000E+00  0.00000000000E+00  0.45412378523E+04  0.45412378523E+04  0.00000000000E+00 0.  1.
         -2   -1    0    0    0  501 -0.00000000000E+00 -0.00000000000E+00 -0.30040744942E+04  0.30040744942E+04  0.00000000000E+00 0. -1.
         23    2    1    2    0    0 -0.25292468231E+04  0.26743646075E+04  0.46447489900E+03  0.37112575639E+04  0.91543582688E+02 0.  0.
         11    1    3    3    0    0 -0.95609381182E+03  0.95198368422E+03  0.18778088063E+03  0.13622224382E+04  0.00000000000E+00 0. -1.
        -11    1    3    3    0    0 -0.15731530113E+04  0.17223809233E+04  0.27669401837E+03  0.23490351257E+04  0.00000000000E+00 0.  1.
         22    1    1    2    0    0  0.25292468231E+04 -0.26743646075E+04  0.10726884591E+04  0.38340547827E+04  0.00000000000E+00 0. -1.
<mgrwt>
<rscale>  0 0.73870743E+04</rscale>
<asrwt>0</asrwt>
<pdfrwt beam="1">  1        2 0.69865198E+00 0.73870743E+04</pdfrwt>
<pdfrwt beam="2">  1       -2 0.46216530E+00 0.73870743E+04</pdfrwt>
<totfact> 0.19475088E-04</totfact>
</mgrwt>
</event>
<event>
 6    1  0.1568961E-005  0.2611693E+04  0.7818608E-02  0.8364240E-01
          2   -1    0    0  501    0  0.00000000000E+00  0.00000000000E+00  0.21542434322E+04  0.21542434322E+04  0.00000000000E+00 0. -1.
         -2   -1    0    0    0  501 -0.00000000000E+00 -0.00000000000E+00 -0.79157007455E+03  0.79157007455E+03  0.00000000000E+00 0.  1.
         23    2    1    2    0    0 -0.66997886901E+03  0.50903541708E+02 -0.57872539580E+03  0.89142990689E+03  0.90891912067E+02 0.  0.
         13    1    3    3    0    0 -0.26730569485E+03  0.22307548352E+02 -0.17359007153E+03  0.31950504558E+03  0.00000000000E+00 0. -1.
        -13    1    3    3    0    0 -0.40267317416E+03  0.28595993356E+02 -0.40513532426E+03  0.57192486131E+03  0.00000000000E+00 0.  1.
         22    1    1    2    0    0  0.66997886901E+03 -0.50903541708E+02  0.19413987534E+04  0.20543835998E+04  0.00000000000E+00 0. -1.
<mgrwt>
<rscale>  0 0.26116927E+04</rscale>
<asrwt>0</asrwt>
<pdfrwt beam="1">  1        2 0.33142206E+00 0.26116927E+04</pdfrwt>
<pdfrwt beam="2">  1       -2 0.12178001E+00 0.26116927E+04</pdfrwt>
<totfact> 0.24781407E+00</totfact>
</mgrwt>
</event>
<event>
 6    1  0.1568961E-005  0.2400102E+04  0.7818608E-02  0.8439465E-01
         -1   -1    0    0    0  501 -0.00000000000E+00  0.00000000000E+00  0.64333366503E+03  0.64333366503E+03  0.00000000000E+00 0.  1.
          1   -1    0    0  501    0  0.00000000000E+00 -0.00000000000E+00 -0.22385307738E+04  0.22385307738E+04  0.00000000000E+00 0. -1.
         23    2    1    2    0    0  0.47723397851E+03  0.57992161039E+03  0.32250096932E+03  0.82234331412E+03  0.90445047510E+02 0.  0.
         11    1    3    3    0    0  0.28379975919E+03  0.27691217213E+03  0.18354438935E+03  0.43693385912E+03  0.00000000000E+00 0. -1.
        -11    1    3    3    0    0  0.19343421932E+03  0.30300943826E+03  0.13895657998E+03  0.38540945499E+03  0.00000000000E+00 0.  1.
         22    1    1    2    0    0 -0.47723397851E+03 -0.57992161039E+03 -0.19176980781E+04  0.20595211247E+04  0.00000000000E+00 0. -1.
<mgrwt>
<rscale>  0 0.24001018E+04</rscale>
<asrwt>0</asrwt>
<pdfrwt beam="1">  1        1 0.34438935E+00 0.24001018E+04</pdfrwt>
<pdfrwt beam="2">  1       -1 0.98974409E-01 0.24001018E+04</pdfrwt>
<totfact> 0.17926213E+00</totfact>
</mgrwt>
</event>
<event>
 6    1  0.1568961E-005  0.2443968E+04  0.7818608E-02  0.8423224E-01
         -1   -1    0    0    0  501 -0.00000000000E+00  0.00000000000E+00  0.73046198921E+03  0.73046198921E+03  0.00000000000E+00 0.  1.
          1   -1    0    0  501    0  0.00000000000E+00 -0.00000000000E+00 -0.20442464177E+04  0.20442464177E+04  0.00000000000E+00 0. -1.
         23    2    1    2    0    0 -0.10803079266E+04 -0.14840627061E+02 -0.13014319430E+04  0.16942279376E+04  0.96941950461E+02 0.  0.
         11    1    3    3    0    0 -0.54277249355E+03 -0.48739497089E+02 -0.61484513749E+03  0.82159117658E+03  0.00000000000E+00 0.  1.
        -11    1    3    3    0    0 -0.53753543309E+03  0.33898870028E+02 -0.68658680552E+03  0.87263676105E+03  0.00000000000E+00 0. -1.
         22    1    1    2    0    0  0.10803079266E+04  0.14840627061E+02 -0.12352485463E+02  0.10804804693E+04  0.00000000000E+00 0.  1.
<mgrwt>
<rscale>  0 0.24439675E+04</rscale>
<asrwt>0</asrwt>
<pdfrwt beam="1">  1        1 0.31449945E+00 0.24439675E+04</pdfrwt>
<pdfrwt beam="2">  1       -1 0.11237877E+00 0.24439675E+04</pdfrwt>
<totfact> 0.18002993E+00</totfact>
</mgrwt>
</event>
<event>
 6    1  0.1568961E-005  0.2285988E+04  0.7818608E-02  0.8483466E-01
          1   -1    0    0  501    0  0.00000000000E+00  0.00000000000E+00  0.14872258678E+04  0.14872258678E+04  0.00000000000E+00 0. -1.
         -1   -1    0    0    0  501 -0.00000000000E+00 -0.00000000000E+00 -0.87843774190E+03  0.87843774190E+03  0.00000000000E+00 0.  1.
         23    2    1    2    0    0 -0.11387997414E+04 -0.27417887930E+02  0.22968935160E+03  0.11651085413E+04  0.84285959924E+02 0.  0.
         11    1    3    3    0    0 -0.89336163972E+03  0.71115600578E+01  0.19978479018E+03  0.91545592794E+03  0.00000000000E+00 0. -1.
        -11    1    3    3    0    0 -0.24543810172E+03 -0.34529447988E+02  0.29904561421E+02  0.24965261334E+03  0.00000000000E+00 0.  1.
         22    1    1    2    0    0  0.11387997414E+04  0.27417887930E+02  0.37909877433E+03  0.12005550685E+04  0.00000000000E+00 0.  1.
<mgrwt>
<rscale>  0 0.22859880E+04</rscale>
<asrwt>0</asrwt>
<pdfrwt beam="1">  1        1 0.22880398E+00 0.22859880E+04</pdfrwt>
<pdfrwt beam="2">  1       -1 0.13514427E+00 0.22859880E+04</pdfrwt>
<totfact> 0.27757484E+00</totfact>
</mgrwt>
</event>
<event>
 6    1  0.1568961E-005  0.1888190E+04  0.7818608E-02  0.8660757E-01
         -1   -1    0    0    0  501 -0.00000000000E+00  0.00000000000E+00  0.14597840863E+04  0.14597840863E+04  0.00000000000E+00 0.  1.
          1   -1    0    0  501    0  0.00000000000E+00 -0.00000000000E+00 -0.61058058483E+03  0.61058058483E+03  0.00000000000E+00 0. -1.
         23    2    1    2    0    0 -0.11505141730E+03  0.31885118253E+03  0.13892438860E+04  0.14327546632E+04  0.88794396469E+02 0.  0.
         13    1    3    3    0    0 -0.54699218551E+02  0.11497760620E+03  0.69914038836E+03  0.71063994897E+03  0.00000000000E+00 0.  1.
        -13    1    3    3    0    0 -0.60352198745E+02  0.20387357633E+03  0.69010349769E+03  0.72211471425E+03  0.00000000000E+00 0. -1.
         22    1    1    2    0    0  0.11505141730E+03 -0.31885118253E+03 -0.54004038457E+03  0.63761000791E+03  0.00000000000E+00 0. -1.
<mgrwt>
<rscale>  0 0.18881905E+04</rscale>
<asrwt>0</asrwt>
<pdfrwt beam="1">  1        1 0.93935475E-01 0.18881905E+04</pdfrwt>
<pdfrwt beam="2">  1       -1 0.22458217E+00 0.18881905E+04</pdfrwt>
<totfact> 0.32066237E+00</totfact>
</mgrwt>
</event>
<event>
 6    1  0.1568961E-005  0.3226079E+04  0.7818608E-02  0.8181964E-01
          1   -1    0    0  501    0  0.00000000000E+00  0.00000000000E+00  0.18699419969E+04  0.18699419969E+04  0.00000000000E+00 0. -1.
         -1   -1    0    0    0  501 -0.00000000000E+00 -0.00000000000E+00 -0.13914317230E+04  0.13914317230E+04  0.00000000000E+00 0.  1.
         23    2    1    2    0    0  0.15597573621E+03 -0.12481832903E+04 -0.77932858121E+03  0.14824840264E+04  0.90088261342E+02 0.  0.
         11    1    3    3    0    0  0.90584194929E+02 -0.69876550157E+03 -0.48873036533E+03  0.85751740073E+03  0.00000000000E+00 0. -1.
        -11    1    3    3    0    0  0.65391541282E+02 -0.54941778868E+03 -0.29059821588E+03  0.62496662572E+03  0.00000000000E+00 0.  1.
         22    1    1    2    0    0 -0.15597573621E+03  0.12481832903E+04  0.12578388551E+04  0.17788896935E+04  0.00000000000E+00 0. -1.
<mgrwt>
<rscale>  0 0.32260791E+04</rscale>
<asrwt>0</asrwt>
<pdfrwt beam="1">  1        1 0.28768338E+00 0.32260791E+04</pdfrwt>
<pdfrwt beam="2">  1       -1 0.21406642E+00 0.32260791E+04</pdfrwt>
<totfact> 0.36782753E-01</totfact>
</mgrwt>
</event>
<event>
 6    1  0.1568961E-005  0.2610860E+04  0.7818608E-02  0.8364522E-01
         -2   -1    0    0    0  501 -0.00000000000E+00  0.00000000000E+00  0.26740743873E+04  0.26740743873E+04  0.00000000000E+00 0. -1.
          2   -1    0    0  501    0  0.00000000000E+00 -0.00000000000E+00 -0.63728484312E+03  0.63728484312E+03  0.00000000000E+00 0.  1.
         23    2    1    2    0    0 -0.17571230072E+03  0.46740935019E+03  0.25470494496E+04  0.25974184175E+04  0.98869731252E+02 0.  0.
         11    1    3    3    0    0 -0.18773617378E+02  0.10466867181E+03  0.74382735201E+03  0.75139011783E+03  0.00000000000E+00 0. -1.
        -11    1    3    3    0    0 -0.15693868334E+03  0.36274067838E+03  0.18032220976E+04  0.18460282997E+04  0.00000000000E+00 0.  1.
         22    1    1    2    0    0  0.17571230072E+03 -0.46740935019E+03 -0.51025990541E+03  0.71394081291E+03  0.00000000000E+00 0.  1.
<mgrwt>
<rscale>  0 0.26108597E+04</rscale>
<asrwt>0</asrwt>
<pdfrwt beam="1">  1        2 0.98043824E-01 0.26108597E+04</pdfrwt>
<pdfrwt beam="2">  1       -2 0.41139605E+00 0.26108597E+04</pdfrwt>
<totfact> 0.25437426E-01</totfact>
</mgrwt>
</event>
<event>
 6    1  0.1568961E-005  0.1163119E+04  0.7818608E-02  0.9145765E-01
         -1   -1    0    0    0  501 -0.00000000000E+00  0.00000000000E+00  0.38357045984E+03  0.38357045984E+03  0.00000000000E+00 0.  1.
          1   -1    0    0  501    0  0.00000000000E+00 -0.00000000000E+00 -0.88174535197E+03  0.88174535197E+03  0.00000000000E+00 0. -1.
         23    2    1    2    0    0  0.28279075439E+03 -0.49519030762E+03 -0.35103638341E+03  0.67638984678E+03  0.95355287322E+02 0.  0.
         11    1    3    3    0    0  0.11473775270E+03 -0.23868748801E+03 -0.21410241853E+03  0.34055295395E+03  0.00000000000E+00 0.  1.
        -11    1    3    3    0    0  0.16805300169E+03 -0.25650281962E+03 -0.13693396488E+03  0.33583689283E+03  0.00000000000E+00 0. -1.
         22    1    1    2    0    0 -0.28279075439E+03  0.49519030762E+03 -0.14713850872E+03  0.58892596502E+03  0.00000000000E+00 0.  1.
<mgrwt>
<rscale>  0 0.11631190E+04</rscale>
<asrwt>0</asrwt>
<pdfrwt beam="1">  1        1 0.13565313E+00 0.11631190E+04</pdfrwt>
<pdfrwt beam="2">  1       -1 0.59010840E-01 0.11631190E+04</pdfrwt>
<totfact> 0.54412443E+01</totfact>
</mgrwt>
</event>
<event>
 6    1  0.1568961E-005  0.2347776E+04  0.7818608E-02  0.8459318E-01
         -1   -1    0    0    0  501 -0.00000000000E+00  0.00000000000E+00  0.13122674346E+04  0.13122674346E+04  0.00000000000E+00 0.  1.
          1   -1    0    0  501    0  0.00000000000E+00 -0.00000000000E+00 -0.10501005640E+04  0.10501005640E+04  0.00000000000E+00 0. -1.
         23    2    1    2    0    0 -0.29545240694E+03  0.41353695076E+03 -0.93145502815E+03  0.10650483882E+04  0.91731484843E+02 0.  0.
         13    1    3    3    0    0 -0.84806121997E+02  0.16371199093E+03 -0.41174703894E+03  0.45114223741E+03  0.00000000000E+00 0. -1.
        -13    1    3    3    0    0 -0.21064628494E+03  0.24982495983E+03 -0.51970798922E+03  0.61390615078E+03  0.00000000000E+00 0.  1.
         22    1    1    2    0    0  0.29545240694E+03 -0.41353695076E+03  0.11936218988E+04  0.12973196104E+04  0.00000000000E+00 0.  1.
<mgrwt>
<rscale>  0 0.23477758E+04</rscale>
<asrwt>0</asrwt>
<pdfrwt beam="1">  1        1 0.16155393E+00 0.23477758E+04</pdfrwt>
<pdfrwt beam="2">  1       -1 0.20188730E+00 0.23477758E+04</pdfrwt>
<totfact> 0.18192528E+00</totfact>
</mgrwt>
</event>
<event>
 6    1  0.1568961E-005  0.3295521E+04  0.7818608E-02  0.8164036E-01
          1   -1    0    0  501    0  0.00000000000E+00  0.00000000000E+00  0.72669538182E+03  0.72669538182E+03  0.00000000000E+00 0. -1.
         -1   -1    0    0    0  501 -0.00000000000E+00 -0.00000000000E+00 -0.37362476777E+04  0.37362476777E+04  0.00000000000E+00 0.  1.
         23    2    1    2    0    0 -0.78908198211E+03  0.13832767969E+04 -0.93929832868E+03  0.18510363690E+04  0.89158385336E+02 0.  0.
         11    1    3    3    0    0 -0.27824706612E+03  0.41544449670E+03 -0.27074738029E+03  0.56861208532E+03  0.00000000000E+00 0. -1.
        -11    1    3    3    0    0 -0.51083491599E+03  0.96783230022E+03 -0.66855094840E+03  0.12824242837E+04  0.00000000000E+00 0.  1.
         22    1    1    2    0    0  0.78908198211E+03 -0.13832767969E+04 -0.20702539672E+04  0.26119066906E+04  0.00000000000E+00 0. -1.
<mgrwt>
<rscale>  0 0.32955206E+04</rscale>
<asrwt>0</asrwt>
<pdfrwt beam="1">  1        1 0.11179929E+00 0.32955206E+04</pdfrwt>
<pdfrwt beam="2">  1       -1 0.57480734E+00 0.32955206E+04</pdfrwt>
<totfact> 0.11990239E-02</totfact>
</mgrwt>
</event>
<event>
 6    1  0.1568961E-005  0.4064283E+04  0.7818608E-02  0.7991703E-01
          1   -1    0    0  501    0  0.00000000000E+00  0.00000000000E+00  0.36345306779E+04  0.36345306779E+04  0.00000000000E+00 0.  1.
         -1   -1    0    0    0  501 -0.00000000000E+00 -0.00000000000E+00 -0.11362122335E+04  0.11362122335E+04  0.00000000000E+00 0. -1.
         23    2    1    2    0    0 -0.98722915959E+03  0.75028365957E+03  0.31381005238E+04  0.33754407604E+04  0.91533851871E+02 0.  0.
         13    1    3    3    0    0 -0.21899714739E+03  0.12529556412E+03  0.68367092678E+03  0.72874183706E+03  0.00000000000E+00 0. -1.
        -13    1    3    3    0    0 -0.76823201220E+03  0.62498809545E+03  0.24544295970E+04  0.26466989233E+04  0.00000000000E+00 0.  1.
         22    1    1    2    0    0  0.98722915959E+03 -0.75028365957E+03 -0.63978207944E+03  0.13953021510E+04  0.00000000000E+00 0. -1.
<mgrwt>
<rscale>  0 0.40642826E+04</rscale>
<asrwt>0</asrwt>
<pdfrwt beam="1">  1        1 0.55915856E+00 0.40642826E+04</pdfrwt>
<pdfrwt beam="2">  1       -1 0.17480188E+00 0.40642826E+04</pdfrwt>
<totfact> 0.34402679E-02</totfact>
</mgrwt>
</event>
<event>
 6    1  0.1568961E-005  0.4586595E+04  0.7818608E-02  0.7895649E-01
         -2   -1    0    0    0  501 -0.00000000000E+00  0.00000000000E+00  0.23729725763E+04  0.23729725763E+04  0.00000000000E+00 0.  1.
          2   -1    0    0  501    0  0.00000000000E+00 -0.00000000000E+00 -0.22162977497E+04  0.22162977497E+04  0.00000000000E+00 0. -1.
         23    2    1    2    0    0 -0.47782406539E+02 -0.22916770246E+04  0.48341517230E+02  0.22945366052E+04  0.92166084086E+02 0.  0.
         11    1    3    3    0    0  0.14620122298E+02 -0.79447088833E+03 -0.14095242318E+02  0.79473040475E+03  0.00000000000E+00 0.  1.
        -11    1    3    3    0    0 -0.62402528837E+02 -0.14972061362E+04  0.62436759548E+02  0.14998062004E+04  0.00000000000E+00 0. -1.
         22    1    1    2    0    0  0.47782406539E+02  0.22916770246E+04  0.10833330939E+03  0.22947337208E+04  0.00000000000E+00 0. -1.
<mgrwt>
<rscale>  0 0.45865952E+04</rscale>
<asrwt>0</asrwt>
<pdfrwt beam="1">  1        2 0.34096888E+00 0.45865952E+04</pdfrwt>
<pdfrwt beam="2">  1       -2 0.36507271E+00 0.45865952E+04</pdfrwt>
<totfact> 0.47489692E-02</totfact>
</mgrwt>
</event>
<event>
 6    1  0.1568961E-005  0.2004558E+04  0.7818608E-02  0.8604493E-01
         -2   -1    0    0    0  501 -0.00000000000E+00  0.00000000000E+00  0.56160809113E+03  0.56160809113E+03  0.00000000000E+00 0.  1.
          2   -1    0    0  501    0  0.00000000000E+00 -0.00000000000E+00 -0.17887266858E+04  0.17887266858E+04  0.00000000000E+00 0. -1.
         23    2    1    2    0    0  0.51525970254E+03  0.75426345089E+03 -0.13715337421E+03  0.92821308866E+03  0.91447118544E+02 0.  0.
         13    1    3    3    0    0  0.30350816562E+03  0.44809613625E+03 -0.12652415186E+03  0.55580186661E+03  0.00000000000E+00 0. -1.
        -13    1    3    3    0    0  0.21175153691E+03  0.30616731464E+03 -0.10629222349E+02  0.37241122205E+03  0.00000000000E+00 0.  1.
         22    1    1    2    0    0 -0.51525970254E+03 -0.75426345089E+03 -0.10899652204E+04  0.14221216883E+04  0.00000000000E+00 0. -1.
<mgrwt>
<rscale>  0 0.20045582E+04</rscale>
<asrwt>0</asrwt>
<pdfrwt beam="1">  1        2 0.27518872E+00 0.20045582E+04</pdfrwt>
<pdfrwt beam="2">  1       -2 0.86401246E-01 0.20045582E+04</pdfrwt>
<totfact> 0.94364774E+00</totfact>
</mgrwt>
</event>
<event>
 6    1  0.1568961E-005  0.1029925E+04  0.7818608E-02  0.9276319E-01
          1   -1    0    0  501    0  0.00000000000E+00  0.00000000000E+00  0.30826700235E+04  0.30826700235E+04  0.00000000000E+00 0. -1.
         -1   -1    0    0    0  501 -0.00000000000E+00 -0.00000000000E+00 -0.86024911833E+02  0.86024911833E+02  0.00000000000E+00 0.  1.
         23    2    1    2    0    0 -0.29115314606E+03 -0.28918693852E+03  0.24469919400E+04  0.24827518990E+04  0.88815528372E+02 0.  0.
         11    1    3    3    0    0 -0.18209702068E+03 -0.22154354260E+03  0.18525565525E+04  0.18746217342E+04  0.00000000000E+00 0. -1.
        -11    1    3    3    0    0 -0.10905612538E+03 -0.67643395918E+02  0.59443538746E+03  0.60813016482E+03  0.00000000000E+00 0.  1.
         22    1    1    2    0    0  0.29115314606E+03  0.28918693852E+03  0.54965317170E+03  0.68594303629E+03  0.00000000000E+00 0.  1.
<mgrwt>
<rscale>  0 0.10299251E+04</rscale>
<asrwt>0</asrwt>
<pdfrwt beam="1">  1        1 0.47425684E+00 0.10299251E+04</pdfrwt>
<pdfrwt beam="2">  1       -1 0.13234604E-01 0.10299251E+04</pdfrwt>
<totfact> 0.21457314E+01</totfact>
</mgrwt>
</event>
<event>
 6    1  0.1568961E-005  0.1183805E+04  0.7818608E-02  0.9127151E-01
         -2   -1    0    0    0  501 -0.00000000000E+00  0.00000000000E+00  0.23587835796E+03  0.23587835796E+03  0.00000000000E+00 0.  1.
          2   -1    0    0  501    0  0.00000000000E+00 -0.00000000000E+00 -0.14852939840E+04  0.14852939840E+04  0.00000000000E+00 0. -1.
         23    2    1    2    0    0  0.12910634778E+03  0.49941184104E+03 -0.21577577129E+03  0.56597020149E+03  0.87649583526E+02 0.  0.
         13    1    3    3    0    0  0.71183571679E+02  0.37815919510E+03 -0.12828594520E+03  0.40562145093E+03  0.00000000000E+00 0. -1.
        -13    1    3    3    0    0  0.57922776105E+02  0.12125264594E+03 -0.87489826082E+02  0.16034875056E+03  0.00000000000E+00 0.  1.
         22    1    1    2    0    0 -0.12910634778E+03 -0.49941184104E+03 -0.10336398548E+04  0.11552021405E+04  0.00000000000E+00 0. -1.
<mgrwt>
<rscale>  0 0.11838052E+04</rscale>
<asrwt>0</asrwt>
<pdfrwt beam="1">  1        2 0.22850677E+00 0.11838052E+04</pdfrwt>
<pdfrwt beam="2">  1       -2 0.36288978E-01 0.11838052E+04</pdfrwt>
<totfact> 0.91283746E+01</totfact>
</mgrwt>
</event>
<event>
 6    1  0.1568961E-005  0.5272825E+04  0.7818608E-02  0.7787746E-01
          2   -1    0    0  501    0  0.00000000000E+00  0.00000000000E+00  0.50683437135E+04  0.50683437135E+04  0.00000000000E+00 0. -1.
         -2   -1    0    0    0  501 -0.00000000000E+00 -0.00000000000E+00 -0.13713890474E+04  0.13713890474E+04  0.00000000000E+00 0.  1.
         23    2    1    2    0    0  0.10035159662E+04 -0.15567294972E+04 -0.44106688222E+03  0.19061168358E+04  0.91051497259E+02 0.  0.
         13    1    3    3    0    0  0.93497825853E+03 -0.14409910977E+04 -0.38481502104E+03  0.17603188030E+04  0.00000000000E+00 0.  1.
        -13    1    3    3    0    0  0.68537707709E+02 -0.11573839945E+03 -0.56251861174E+02  0.14579803281E+03  0.00000000000E+00 0. -1.
         22    1    1    2    0    0 -0.10035159662E+04  0.15567294972E+04  0.41380215484E+04  0.45336159251E+04  0.00000000000E+00 0. -1.
<mgrwt>
<rscale>  0 0.52728251E+04</rscale>
<asrwt>0</asrwt>
<pdfrwt beam="1">  1        2 0.77974518E+00 0.52728251E+04</pdfrwt>
<pdfrwt beam="2">  1       -2 0.21098293E+00 0.52728251E+04</pdfrwt>
<totfact> 0.22080712E-03</totfact>
</mgrwt>
</event>
<event>
 6    1  0.1568961E-005  0.2613100E+04  0.7818608E-02  0.8363765E-01
          1   -1    0    0  501    0  0.00000000000E+00  0.00000000000E+00  0.10721028054E+04  0.10721028054E+04  0.00000000000E+00 0. -1.
         -1   -1    0    0    0  501 -0.00000000000E+00 -0.00000000000E+00 -0.15922664581E+04  0.15922664581E+04  0.00000000000E+00 0.  1.
         23    2    1    2    0    0 -0.65651507890E+03 -0.76760260789E+02  0.88699569211E+03  0.11096983632E+04  0.88118744060E+02 0.  0.
         11    1    3    3    0    0 -0.25246069740E+03  0.73997937015E+01  0.30064437865E+03  0.39265532353E+03  0.00000000000E+00 0.  1.
        -11    1    3    3    0    0 -0.40405438150E+03 -0.84160054490E+02  0.58635131346E+03  0.71704303969E+03  0.00000000000E+00 0. -1.
         22    1    1    2    0    0  0.65651507890E+03  0.76760260789E+02 -0.14071593449E+04  0.15546709003E+04  0.00000000000E+00 0.  1.
<mgrwt>
<rscale>  0 0.26131003E+04</rscale>
<asrwt>0</asrwt>
<pdfrwt beam="1">  1        1 0.16493889E+00 0.26131003E+04</pdfrwt>
<pdfrwt beam="2">  1       -1 0.24496407E+00 0.26131003E+04</pdfrwt>
<totfact> 0.88075936E-01</totfact>
</mgrwt>
</event>
<event>
 6    1  0.1568961E-005  0.5035092E+04  0.7818608E-02  0.7823117E-01
         -2   -1    0    0    0  501 -0.00000000000E+00  0.00000000000E+00  0.21367878854E+04  0.21367878854E+04  0.00000000000E+00 0. -1.
          2   -1    0    0  501    0  0.00000000000E+00 -0.00000000000E+00 -0.29661525726E+04  0.29661525726E+04  0.00000000000E+00 0.  1.
         23    2    1    2    0    0  0.19415290911E+04  0.47329585164E+03  0.11355589384E+04  0.23003578939E+04  0.92780184058E+02 0.  0.
         13    1    3    3    0    0  0.10918372424E+04  0.31346872445E+03  0.64473377051E+03  0.13061595767E+04  0.00000000000E+00 0. -1.
        -13    1    3    3    0    0  0.84969184870E+03  0.15982712718E+03  0.49082516793E+03  0.99419831714E+03  0.00000000000E+00 0.  1.
         22    1    1    2    0    0 -0.19415290911E+04 -0.47329585164E+03 -0.19649236256E+04  0.28025825641E+04  0.00000000000E+00 0.  1.
<mgrwt>
<rscale>  0 0.50350924E+04</rscale>
<asrwt>0</asrwt>
<pdfrwt beam="1">  1        2 0.45633116E+00 0.50350924E+04</pdfrwt>
<pdfrwt beam="2">  1       -2 0.32873660E+00 0.50350924E+04</pdfrwt>
<totfact> 0.28042505E-02</totfact>
</mgrwt>
</event>
<event>
 6    1  0.1774298E-005  0.3111933E+04  0.7818608E-02  0.8212471E-01
         -1   -1    0    0    0  501 -0.00000000000E+00  0.00000000000E+00  0.11357167204E+04  0.11357167204E+04  0.00000000000E+00 0.  1.
          1   -1    0    0  501    0  0.00000000000E+00 -0.00000000000E+00 -0.21317214665E+04  0.21317214665E+04  0.00000000000E+00 0. -1.
         23    2    1    2    0    0  0.20305070677E+03  0.13995145854E+04  0.17995327757E+03  0.14282133671E+04  0.86830728275E+02 0.  0.
         13    1    3    3    0    0  0.88624456736E+02  0.58588076125E+03  0.11849189498E+03  0.60427716315E+03  0.00000000000E+00 0.  1.
        -13    1    3    3    0    0  0.11442625003E+03  0.81363382419E+03  0.61461382596E+02  0.82393620391E+03  0.00000000000E+00 0. -1.
         22    1    1    2    0    0 -0.20305070677E+03 -0.13995145854E+04 -0.11759580237E+04  0.18392248198E+04  0.00000000000E+00 0. -1.
<mgrwt>
<rscale>  0 0.31119330E+04</rscale>
<asrwt>0</asrwt>
<pdfrwt beam="1">  1        1 0.32795715E+00 0.31119330E+04</pdfrwt>
<pdfrwt beam="2">  1       -1 0.17472565E+00 0.31119330E+04</pdfrwt>
<totfact> 0.46445870E-01</totfact>
</mgrwt>
</event>
<event>
 6    1  0.1568961E-005  0.7816555E+03  0.7818608E-02  0.9586956E-01
          2   -1    0    0  501    0  0.00000000000E+00  0.00000000000E+00  0.14579435782E+04  0.14579435782E+04  0.00000000000E+00 0. -1.
         -2   -1    0    0    0  501 -0.00000000000E+00 -0.00000000000E+00 -0.10476833572E+03  0.10476833572E+03  0.00000000000E+00 0.  1.
         23    2    1    2    0    0 -0.26269285448E+03 -0.23972830798E+03  0.40035436093E+03  0.54568446603E+03  0.10493200043E+03 0.  0.
         13    1    3    3    0    0 -0.13214109789E+03 -0.89569911319E+02  0.24860493668E+03  0.29544619359E+03  0.00000000000E+00 0.  1.
        -13    1    3    3    0    0 -0.13055175659E+03 -0.15015839666E+03  0.15174942425E+03  0.25023827244E+03  0.00000000000E+00 0. -1.
         22    1    1    2    0    0  0.26269285448E+03  0.23972830798E+03  0.95282088158E+03  0.10170274479E+04  0.00000000000E+00 0. -1.
<mgrwt>
<rscale>  0 0.78165548E+03</rscale>
<asrwt>0</asrwt>
<pdfrwt beam="1">  1        2 0.22429900E+00 0.78165548E+03</pdfrwt>
<pdfrwt beam="2">  1       -2 0.16118207E-01 0.78165548E+03</pdfrwt>
<totfact> 0.41993148E+02</totfact>
</mgrwt>
</event>
<event>
 6    1  0.1568961E-005  0.1408292E+04  0.7818608E-02  0.8947838E-01
          2   -1    0    0  501    0  0.00000000000E+00  0.00000000000E+00  0.28357621923E+04  0.28357621923E+04  0.00000000000E+00 0. -1.
         -2   -1    0    0    0  501 -0.00000000000E+00 -0.00000000000E+00 -0.17484586633E+03  0.17484586633E+03  0.00000000000E+00 0.  1.
         23    2    1    2    0    0 -0.21089782121E+03  0.24177191788E+03  0.26689213600E+04  0.26896787333E+04  0.91098361274E+02 0.  0.
         11    1    3    3    0    0 -0.14233406448E+03  0.17844054560E+03  0.21808813344E+04  0.21927935172E+04  0.00000000000E+00 0. -1.
        -11    1    3    3    0    0 -0.68563756731E+02  0.63331372280E+02  0.48804002556E+03  0.49688521613E+03  0.00000000000E+00 0.  1.
         22    1    1    2    0    0  0.21089782121E+03 -0.24177191788E+03 -0.80050340373E+01  0.32092932530E+03  0.00000000000E+00 0.  1.
<mgrwt>
<rscale>  0 0.14082916E+04</rscale>
<asrwt>0</asrwt>
<pdfrwt beam="1">  1        2 0.43627107E+00 0.14082916E+04</pdfrwt>
<pdfrwt beam="2">  1       -2 0.26899366E-01 0.14082916E+04</pdfrwt>
<totfact> 0.27041092E+01</totfact>
</mgrwt>
</event>
<event>
 6    1  0.1568961E-005  0.2004898E+04  0.7818608E-02  0.8604334E-01
          2   -1    0    0  501    0  0.00000000000E+00  0.00000000000E+00  0.11901051087E+04  0.11901051087E+04  0.00000000000E+00 0.  1.
         -2   -1    0    0    0  501 -0.00000000000E+00 -0.00000000000E+00 -0.84438297619E+03  0.84438297619E+03  0.00000000000E+00 0. -1.
         23    2    1    2    0    0 -0.63101252766E+03  0.77282169189E+03  0.24332206492E+03  0.10315344711E+04  0.97095624393E+02 0.  0.
         11    1    3    3    0    0 -0.40374212457E+03  0.48092562764E+03  0.20029200664E+03  0.65910094098E+03  0.00000000000E+00 0.  1.
        -11    1    3    3    0    0 -0.22727040309E+03  0.29189606426E+03  0.43030058276E+02  0.37243353013E+03  0.00000000000E+00 0. -1.
         22    1    1    2    0    0  0.63101252766E+03 -0.77282169189E+03  0.10240006758E+03  0.10029536138E+04  0.00000000000E+00 0. -1.
<mgrwt>
<rscale>  0 0.20048985E+04</rscale>
<asrwt>0</asrwt>
<pdfrwt beam="1">  1        2 0.18309309E+00 0.20048985E+04</pdfrwt>
<pdfrwt beam="2">  1       -2 0.12990507E+00 0.20048985E+04</pdfrwt>
<totfact> 0.77598956E+00</totfact>
</mgrwt>
</event>
<event>
 6    1  0.1568961E-005  0.1621546E+04  0.7818608E-02  0.8807420E-01
         -2   -1    0    0    0  501 -0.00000000000E+00  0.00000000000E+00  0.26525604908E+03  0.26525604908E+03  0.00000000000E+00 0.  1.
          2   -1    0    0  501    0  0.00000000000E+00 -0.00000000000E+00 -0.24781821558E+04  0.24781821558E+04  0.00000000000E+00 0. -1.
         23    2    1    2    0    0 -0.60644518310E+03  0.36813338817E+03 -0.17649082163E+04  0.19043804108E+04  0.92009704218E+02 0.  0.
         11    1    3    3    0    0 -0.14657195733E+03  0.13723185168E+03 -0.49751377446E+03  0.53650337890E+03  0.00000000000E+00 0.  1.
        -11    1    3    3    0    0 -0.45987322577E+03  0.23090153650E+03 -0.12673944418E+04  0.13678770319E+04  0.00000000000E+00 0. -1.
         22    1    1    2    0    0  0.60644518310E+03 -0.36813338817E+03 -0.44801789046E+03  0.83905779406E+03  0.00000000000E+00 0.  1.
<mgrwt>
<rscale>  0 0.16215459E+04</rscale>
<asrwt>0</asrwt>
<pdfrwt beam="1">  1        2 0.38125879E+00 0.16215459E+04</pdfrwt>
<pdfrwt beam="2">  1       -2 0.40808623E-01 0.16215459E+04</pdfrwt>
<totfact> 0.19547526E+01</totfact>
</mgrwt>
</event>
<event>
 6    1  0.1568961E-005  0.1382026E+04  0.7818608E-02  0.8966933E-01
         -2   -1    0    0    0  501 -0.00000000000E+00  0.00000000000E+00  0.60304367361E+03  0.60304367361E+03  0.00000000000E+00 0.  1.
          2   -1    0    0  501    0  0.00000000000E+00 -0.00000000000E+00 -0.79181438361E+03  0.79181438361E+03  0.00000000000E+00 0. -1.
         23    2    1    2    0    0 -0.42480564470E+03  0.36104634533E+03  0.31184852452E+03  0.64556911615E+03  0.93250641983E+02 0.  0.
         13    1    3    3    0    0 -0.24652811573E+03  0.16531910429E+03  0.12802360680E+03  0.32325927982E+03  0.00000000000E+00 0. -1.
        -13    1    3    3    0    0 -0.17827752897E+03  0.19572724104E+03  0.18382491772E+03  0.32230983633E+03  0.00000000000E+00 0.  1.
         22    1    1    2    0    0  0.42480564470E+03 -0.36104634533E+03 -0.50061923451E+03  0.74928894107E+03  0.00000000000E+00 0. -1.
<mgrwt>
<rscale>  0 0.13820255E+04</rscale>
<asrwt>0</asrwt>
<pdfrwt beam="1">  1        2 0.12181760E+00 0.13820255E+04</pdfrwt>
<pdfrwt beam="2">  1       -2 0.92775950E-01 0.13820255E+04</pdfrwt>
<totfact> 0.33530971E+01</totfact>
</mgrwt>
</event>
<event>
 6    1  0.1868297E-005  0.2642556E+04  0.7818608E-02  0.8353888E-01
          2   -1    0    0  501    0  0.00000000000E+00  0.00000000000E+00  0.29336091360E+04  0.29336091360E+04  0.00000000000E+00 0.  1.
         -2   -1    0    0    0  501 -0.00000000000E+00 -0.00000000000E+00 -0.59509478670E+03  0.59509478670E+03  0.00000000000E+00 0. -1.
         23    2    1    2    0    0  0.75245201212E+03  0.11414427993E+03 -0.26901963917E+03  0.81237433147E+03  0.91474264076E+02 0.  0.
         11    1    3    3    0    0  0.51430480252E+03  0.97060597150E+02 -0.22449918178E+03  0.56949984375E+03  0.00000000000E+00 0. -1.
        -11    1    3    3    0    0  0.23814720960E+03  0.17083682778E+02 -0.44520457389E+02  0.24287448772E+03  0.00000000000E+00 0.  1.
         22    1    1    2    0    0 -0.75245201212E+03 -0.11414427993E+03  0.26075339885E+04  0.27163295912E+04  0.00000000000E+00 0.  1.
<mgrwt>
<rscale>  0 0.26425560E+04</rscale>
<asrwt>0</asrwt>
<pdfrwt beam="1">  1        2 0.45132447E+00 0.26425560E+04</pdfrwt>
<pdfrwt beam="2">  1       -2 0.91553046E-01 0.26425560E+04</pdfrwt>
<totfact> 0.17145075E+00</totfact>
</mgrwt>
</event>
<event>
 6    1  0.1568961E-005  0.3217136E+04  0.7818608E-02  0.8184306E-01
          2   -1    0    0  501    0  0.00000000000E+00  0.00000000000E+00  0.39662283232E+04  0.39662283232E+04  0.00000000000E+00 0.  1.
         -2   -1    0    0    0  501 -0.00000000000E+00 -0.00000000000E+00 -0.65238064327E+03  0.65238064327E+03  0.00000000000E+00 0. -1.
         23    2    1    2    0    0 -0.99761033428E+03  0.11792835880E+04  0.22961237774E+04  0.27688257084E+04  0.90968361445E+02 0.  0.
         13    1    3    3    0    0 -0.18984336727E+03  0.17931920369E+03  0.35681648727E+03  0.44216952235E+03  0.00000000000E+00 0. -1.
        -13    1    3    3    0    0 -0.80776696701E+03  0.99996438427E+03  0.19393072901E+04  0.23266561861E+04  0.00000000000E+00 0.  1.
         22    1    1    2    0    0  0.99761033428E+03 -0.11792835880E+04  0.10177239026E+04  0.18497832581E+04  0.00000000000E+00 0. -1.
<mgrwt>
<rscale>  0 0.32171357E+04</rscale>
<asrwt>0</asrwt>
<pdfrwt beam="1">  1        2 0.61018896E+00 0.32171357E+04</pdfrwt>
<pdfrwt beam="2">  1       -2 0.10036626E+00 0.32171357E+04</pdfrwt>
<totfact> 0.25037537E-01</totfact>
</mgrwt>
</event>
<event>
 6    1  0.1568961E-005  0.1011350E+04  0.7818608E-02  0.9296183E-01
         -3   -1    0    0    0  501 -0.00000000000E+00  0.00000000000E+00  0.20948206420E+03  0.20948206420E+03  0.00000000000E+00 0.  1.
          3   -1    0    0  501    0  0.00000000000E+00 -0.00000000000E+00 -0.12206644553E+04  0.12206644553E+04  0.00000000000E+00 0. -1.
         23    2    1    2    0    0 -0.50657364715E+02 -0.31672535347E+03  0.35220180882E+02  0.33568799549E+03  0.92546480437E+02 0.  0.
         13    1    3    3    0    0 -0.57652094987E+02 -0.21461469623E+03 -0.12885350098E+02  0.22259664001E+03  0.00000000000E+00 0. -1.
        -13    1    3    3    0    0  0.69947302723E+01 -0.10211065724E+03  0.48105530980E+02  0.11309135548E+03  0.00000000000E+00 0.  1.
         22    1    1    2    0    0  0.50657364715E+02  0.31672535347E+03 -0.10464025719E+04  0.10944585240E+04  0.00000000000E+00 0. -1.
<mgrwt>
<rscale>  0 0.10113502E+04</rscale>
<asrwt>0</asrwt>
<pdfrwt beam="1">  1        3 0.18779453E+00 0.10113502E+04</pdfrwt>
<pdfrwt beam="2">  1       -3 0.32228010E-01 0.10113502E+04</pdfrwt>
<totfact> 0.43753324E+00</totfact>
</mgrwt>
</event>
<event>
 6    1  0.1568961E-005  0.3846904E+03  0.7818608E-02  0.1049214E+00
         -1   -1    0    0    0  501 -0.00000000000E+00  0.00000000000E+00  0.49937202221E+03  0.49937202221E+03  0.00000000000E+00 0.  1.
          1   -1    0    0  501    0  0.00000000000E+00 -0.00000000000E+00 -0.74086405990E+02  0.74086405990E+02  0.00000000000E+00 0. -1.
         23    2    1    2    0    0  0.58887652157E+02  0.92153348910E+02  0.98484923507E+01  0.14386792647E+03  0.92956937192E+02 0.  0.
         11    1    3    3    0    0  0.26729915756E+01  0.86954999009E+02  0.83158888433E+01  0.87392624081E+02  0.00000000000E+00 0. -1.
        -11    1    3    3    0    0  0.56214660581E+02  0.51983499014E+01  0.15326035074E+01  0.56475302385E+02  0.00000000000E+00 0.  1.
         22    1    1    2    0    0 -0.58887652157E+02 -0.92153348910E+02  0.41543712387E+03  0.42959050173E+03  0.00000000000E+00 0.  1.
<mgrwt>
<rscale>  0 0.38469041E+03</rscale>
<asrwt>0</asrwt>
<pdfrwt beam="1">  1        1 0.11397909E-01 0.38469041E+03</pdfrwt>
<pdfrwt beam="2">  1       -1 0.76826463E-01 0.38469041E+03</pdfrwt>
<totfact> 0.95705496E+02</totfact>
</mgrwt>
</event>
<event>
 6    1  0.1568961E-005  0.3107771E+04  0.7818608E-02  0.8213609E-01
          1   -1    0    0  501    0  0.00000000000E+00  0.00000000000E+00  0.27122719902E+04  0.27122719902E+04  0.00000000000E+00 0. -1.
         -1   -1    0    0    0  501 -0.00000000000E+00 -0.00000000000E+00 -0.89023511193E+03  0.89023511193E+03  0.00000000000E+00 0.  1.
         23    2    1    2    0    0  0.40086520145E+03 -0.92753677616E+03 -0.45459741182E+03  0.11117078184E+04  0.90653659009E+02 0.  0.
         13    1    3    3    0    0  0.20113215425E+03 -0.41145731027E+03 -0.16245400052E+03  0.48594502151E+03  0.00000000000E+00 0. -1.
        -13    1    3    3    0    0  0.19973304721E+03 -0.51607946589E+03 -0.29214341130E+03  0.62576279693E+03  0.00000000000E+00 0.  1.
         22    1    1    2    0    0 -0.40086520145E+03  0.92753677616E+03  0.22766342901E+04  0.24907992837E+04  0.00000000000E+00 0. -1.
<mgrwt>
<rscale>  0 0.31077708E+04</rscale>
<asrwt>0</asrwt>
<pdfrwt beam="1">  1        1 0.41727261E+00 0.31077708E+04</pdfrwt>
<pdfrwt beam="2">  1       -1 0.13695925E+00 0.31077708E+04</pdfrwt>
<totfact> 0.35985628E-01</totfact>
</mgrwt>
</event>
<event>
 6    1  0.1568961E-005  0.3287636E+04  0.7818608E-02  0.8166048E-01
         -2   -1    0    0    0  501 -0.00000000000E+00  0.00000000000E+00  0.70441430465E+03  0.70441430465E+03  0.00000000000E+00 0.  1.
          2   -1    0    0  501    0  0.00000000000E+00 -0.00000000000E+00 -0.38360069359E+04  0.38360069359E+04  0.00000000000E+00 0. -1.
         23    2    1    2    0    0  0.96399532650E+03 -0.10958570486E+04 -0.26076480821E+04  0.29897092909E+04  0.91342559449E+02 0.  0.
         11    1    3    3    0    0  0.43740464977E+03 -0.43984329212E+03 -0.11571054849E+04  0.13128892004E+04  0.00000000000E+00 0. -1.
        -11    1    3    3    0    0  0.52659067672E+03 -0.65601375645E+03 -0.14505425972E+04  0.16768200905E+04  0.00000000000E+00 0.  1.
         22    1    1    2    0    0 -0.96399532650E+03  0.10958570486E+04 -0.52394454914E+03  0.15507119497E+04  0.00000000000E+00 0. -1.
<mgrwt>
<rscale>  0 0.32876363E+04</rscale>
<asrwt>0</asrwt>
<pdfrwt beam="1">  1        2 0.59015490E+00 0.32876363E+04</pdfrwt>
<pdfrwt beam="2">  1       -2 0.10837143E+00 0.32876363E+04</pdfrwt>
<totfact> 0.26201652E-01</totfact>
</mgrwt>
</event>
<event>
 6    1  0.1568961E-005  0.2205918E+04  0.7818608E-02  0.8515969E-01
          2   -1    0    0  501    0  0.00000000000E+00  0.00000000000E+00  0.78596712960E+03  0.78596712960E+03  0.00000000000E+00 0.  1.
         -2   -1    0    0    0  501 -0.00000000000E+00 -0.00000000000E+00 -0.15477980502E+04  0.15477980502E+04  0.00000000000E+00 0. -1.
         23    2    1    2    0    0 -0.78261437777E+03  0.31712593059E+03 -0.11269676942E+04  0.14137766018E+04  0.12511585085E+03 0.  0.
         13    1    3    3    0    0 -0.27237154244E+03  0.49537461835E+02 -0.39193266694E+03  0.47984521741E+03  0.00000000000E+00 0. -1.
        -13    1    3    3    0    0 -0.51024283532E+03  0.26758846876E+03 -0.73503502721E+03  0.93393138444E+03  0.00000000000E+00 0.  1.
         22    1    1    2    0    0  0.78261437777E+03 -0.31712593059E+03  0.36513677355E+03  0.91998857794E+03  0.00000000000E+00 0.  1.
<mgrwt>
<rscale>  0 0.22059179E+04</rscale>
<asrwt>0</asrwt>
<pdfrwt beam="1">  1        2 0.12091802E+00 0.22059179E+04</pdfrwt>
<pdfrwt beam="2">  1       -2 0.23812278E+00 0.22059179E+04</pdfrwt>
<totfact> 0.24507240E+00</totfact>
</mgrwt>
</event>
<event>
 6    1  0.1568961E-005  0.1858865E+04  0.7818608E-02  0.8675607E-01
          1   -1    0    0  501    0  0.00000000000E+00  0.00000000000E+00  0.73868366469E+03  0.73868366469E+03  0.00000000000E+00 0. -1.
         -1   -1    0    0    0  501 -0.00000000000E+00 -0.00000000000E+00 -0.11694379392E+04  0.11694379392E+04  0.00000000000E+00 0.  1.
         23    2    1    2    0    0 -0.82717997140E+03 -0.40929508663E+03 -0.30661449821E+03  0.97690741955E+03  0.92663276635E+02 0.  0.
         13    1    3    3    0    0 -0.26570251043E+03 -0.16550086798E+03 -0.70826094401E+02  0.32094344829E+03  0.00000000000E+00 0. -1.
        -13    1    3    3    0    0 -0.56147746097E+03 -0.24379421865E+03 -0.23578840381E+03  0.65596397126E+03  0.00000000000E+00 0.  1.
         22    1    1    2    0    0  0.82717997140E+03  0.40929508663E+03 -0.12413977628E+03  0.93121418432E+03  0.00000000000E+00 0. -1.
<mgrwt>
<rscale>  0 0.18588649E+04</rscale>
<asrwt>0</asrwt>
<pdfrwt beam="1">  1        1 0.11364364E+00 0.18588649E+04</pdfrwt>
<pdfrwt beam="2">  1       -1 0.17991353E+00 0.18588649E+04</pdfrwt>
<totfact> 0.49070797E+00</totfact>
</mgrwt>
</event>
<event>
 6    1  0.1568961E-005  0.2473126E+04  0.7818608E-02  0.8412623E-01
         -1   -1    0    0    0  501 -0.00000000000E+00  0.00000000000E+00  0.79969553403E+03  0.79969553403E+03  0.00000000000E+00 0.  1.
          1   -1    0    0  501    0  0.00000000000E+00 -0.00000000000E+00 -0.19120874518E+04  0.19120874518E+04  0.00000000000E+00 0. -1.
         23    2    1    2    0    0 -0.89638835178E+03  0.78466662621E+03 -0.20441539922E+03  0.12139061051E+04  0.11210970128E+03 0.  0.
         13    1    3    3    0    0 -0.23987093113E+03  0.14830212137E+03 -0.58550824181E+02  0.28802739768E+03  0.00000000000E+00 0.  1.
        -13    1    3    3    0    0 -0.65651742066E+03  0.63636450485E+03 -0.14586457504E+03  0.92587870745E+03  0.00000000000E+00 0. -1.
         22    1    1    2    0    0  0.89638835178E+03 -0.78466662621E+03 -0.90797651854E+03  0.14978768807E+04  0.00000000000E+00 0. -1.
<mgrwt>
<rscale>  0 0.24731258E+04</rscale>
<asrwt>0</asrwt>
<pdfrwt beam="1">  1        1 0.29416730E+00 0.24731258E+04</pdfrwt>
<pdfrwt beam="2">  1       -1 0.12303008E+00 0.24731258E+04</pdfrwt>
<totfact> 0.17721105E+00</totfact>
</mgrwt>
</event>
<event>
 6    1  0.1568961E-005  0.2158014E+04  0.7818608E-02  0.8536109E-01
          1   -1    0    0  501    0  0.00000000000E+00  0.00000000000E+00  0.15477728803E+04  0.15477728803E+04  0.00000000000E+00 0. -1.
         -1   -1    0    0    0  501 -0.00000000000E+00 -0.00000000000E+00 -0.75221405958E+03  0.75221405958E+03  0.00000000000E+00 0.  1.
         23    2    1    2    0    0 -0.14608639467E+03  0.55811712583E+03 -0.57087900190E+03  0.81675119195E+03  0.91343931877E+02 0.  0.
         13    1    3    3    0    0 -0.14153547647E+03  0.43769704971E+03 -0.41355361783E+03  0.61857707138E+03  0.00000000000E+00 0. -1.
        -13    1    3    3    0    0 -0.45509182055E+01  0.12042007612E+03 -0.15732538407E+03  0.19817412057E+03  0.00000000000E+00 0.  1.
         22    1    1    2    0    0  0.14608639467E+03 -0.55811712583E+03  0.13664378226E+04  0.14832357480E+04  0.00000000000E+00 0. -1.
<mgrwt>
<rscale>  0 0.21580144E+04</rscale>
<asrwt>0</asrwt>
<pdfrwt beam="1">  1        1 0.23811890E+00 0.21580144E+04</pdfrwt>
<pdfrwt beam="2">  1       -1 0.11572524E+00 0.21580144E+04</pdfrwt>
<totfact> 0.37503346E+00</totfact>
</mgrwt>
</event>
<event>
 6    1  0.1568961E-005  0.2655245E+04  0.7818608E-02  0.8349674E-01
         -1   -1    0    0    0  501 -0.00000000000E+00  0.00000000000E+00  0.13692146149E+04  0.13692146149E+04  0.00000000000E+00 0.  1.
          1   -1    0    0  501    0  0.00000000000E+00 -0.00000000000E+00 -0.12872935021E+04  0.12872935021E+04  0.00000000000E+00 0. -1.
         23    2    1    2    0    0  0.26937956333E+03 -0.12974884051E+04 -0.48457966447E+01  0.13285133854E+04  0.94248729058E+02 0.  0.
         13    1    3    3    0    0  0.19616110734E+03 -0.72098856653E+03  0.80175319981E+01  0.74724023842E+03  0.00000000000E+00 0.  1.
        -13    1    3    3    0    0  0.73218455983E+02 -0.57649983862E+03 -0.12863328643E+02  0.58127314702E+03  0.00000000000E+00 0. -1.
         22    1    1    2    0    0 -0.26937956333E+03  0.12974884051E+04  0.86766909462E+02  0.13279947316E+04  0.00000000000E+00 0.  1.
<mgrwt>
<rscale>  0 0.26552447E+04</rscale>
<asrwt>0</asrwt>
<pdfrwt beam="1">  1        1 0.19804515E+00 0.26552447E+04</pdfrwt>
<pdfrwt beam="2">  1       -1 0.21064840E+00 0.26552447E+04</pdfrwt>
<totfact> 0.10304441E+00</totfact>
</mgrwt>
</event>
<event>
 6    1  0.1568961E-005  0.4035362E+04  0.7818608E-02  0.7997451E-01
         -2   -1    0    0    0  501 -0.00000000000E+00  0.00000000000E+00  0.13084053518E+04  0.13084053518E+04  0.00000000000E+00 0. -1.
          2   -1    0    0  501    0  0.00000000000E+00 -0.00000000000E+00 -0.31114489922E+04  0.31114489922E+04  0.00000000000E+00 0.  1.
         23    2    1    2    0    0  0.11911070135E+04  0.13899330266E+04 -0.18288919273E+04  0.25891938430E+04  0.91811430915E+02 0.  0.
         13    1    3    3    0    0  0.40174807369E+03  0.53004728557E+03 -0.63711444423E+03  0.92101381895E+03  0.00000000000E+00 0. -1.
        -13    1    3    3    0    0  0.78935893977E+03  0.85988574105E+03 -0.11917774831E+04  0.16681800241E+04  0.00000000000E+00 0.  1.
         22    1    1    2    0    0 -0.11911070135E+04 -0.13899330266E+04  0.25848286993E+02  0.18306605010E+04  0.00000000000E+00 0. -1.
<mgrwt>
<rscale>  0 0.40353619E+04</rscale>
<asrwt>0</asrwt>
<pdfrwt beam="1">  1        2 0.47868445E+00 0.40353619E+04</pdfrwt>
<pdfrwt beam="2">  1       -2 0.20129313E+00 0.40353619E+04</pdfrwt>
<totfact> 0.15168671E-01</totfact>
</mgrwt>
</event>
<event>
 6    1  0.1568961E-005  0.1725701E+04  0.7818608E-02  0.8746840E-01
          1   -1    0    0  501    0  0.00000000000E+00  0.00000000000E+00  0.12028445152E+04  0.12028445152E+04  0.00000000000E+00 0. -1.
         -1   -1    0    0    0  501 -0.00000000000E+00 -0.00000000000E+00 -0.61895884984E+03  0.61895884984E+03  0.00000000000E+00 0.  1.
         23    2    1    2    0    0  0.14302221357E+03  0.14163114552E+03  0.11759006713E+04  0.11965062340E+04  0.91487946117E+02 0.  0.
         11    1    3    3    0    0  0.59003782062E+02  0.56873379274E+01  0.25135463820E+03  0.25824977493E+03  0.00000000000E+00 0.  1.
        -11    1    3    3    0    0  0.84018431512E+02  0.13594380759E+03  0.92454603306E+03  0.93825645902E+03  0.00000000000E+00 0. -1.
         22    1    1    2    0    0 -0.14302221357E+03 -0.14163114552E+03 -0.59201500589E+03  0.62529713109E+03  0.00000000000E+00 0.  1.
<mgrwt>
<rscale>  0 0.17257013E+04</rscale>
<asrwt>0</asrwt>
<pdfrwt beam="1">  1        1 0.18505300E+00 0.17257013E+04</pdfrwt>
<pdfrwt beam="2">  1       -1 0.95224439E-01 0.17257013E+04</pdfrwt>
<totfact> 0.10756599E+01</totfact>
</mgrwt>
</event>
<event>
 6    1  0.1568961E-005  0.1130108E+04  0.7818608E-02  0.9176334E-01
         -1   -1    0    0    0  501 -0.00000000000E+00  0.00000000000E+00  0.74771414914E+03  0.74771414914E+03  0.00000000000E+00 0.  1.
          1   -1    0    0  501    0  0.00000000000E+00 -0.00000000000E+00 -0.42701589845E+03  0.42701589845E+03  0.00000000000E+00 0. -1.
         23    2    1    2    0    0 -0.18436045701E+03  0.51720435404E+03  0.39628108693E+02  0.55789170031E+03  0.90463475082E+02 0.  0.
         13    1    3    3    0    0 -0.66754135598E+02  0.29624376569E+03 -0.45912385494E+01  0.30370637597E+03  0.00000000000E+00 0.  1.
        -13    1    3    3    0    0 -0.11760632141E+03  0.22096058835E+03  0.44219347242E+02  0.25418532434E+03  0.00000000000E+00 0. -1.
         22    1    1    2    0    0  0.18436045701E+03 -0.51720435404E+03  0.28107014201E+03  0.61683834728E+03  0.00000000000E+00 0.  1.
<mgrwt>
<rscale>  0 0.11301077E+04</rscale>
<asrwt>0</asrwt>
<pdfrwt beam="1">  1        1 0.65694754E-01 0.11301077E+04</pdfrwt>
<pdfrwt beam="2">  1       -1 0.11503295E+00 0.11301077E+04</pdfrwt>
<totfact> 0.37510929E+01</totfact>
</mgrwt>
</event>
<event>
 6    1  0.1568961E-005  0.8622107E+03  0.7818608E-02  0.9474093E-01
          1   -1    0    0  501    0  0.00000000000E+00  0.00000000000E+00  0.74680041012E+03  0.74680041012E+03  0.00000000000E+00 0. -1.
         -1   -1    0    0    0  501 -0.00000000000E+00 -0.00000000000E+00 -0.24886411658E+03  0.24886411658E+03  0.00000000000E+00 0.  1.
         23    2    1    2    0    0 -0.20813244849E+03  0.34050014328E+03  0.42497424751E+03  0.58997631656E+03  0.90606177312E+02 0.  0.
         11    1    3    3    0    0 -0.42071960343E+02  0.12724474390E+03  0.99560498842E+02  0.16695378890E+03  0.00000000000E+00 0.  1.
        -11    1    3    3    0    0 -0.16606048815E+03  0.21325539938E+03  0.32541374867E+03  0.42302252766E+03  0.00000000000E+00 0. -1.
         22    1    1    2    0    0  0.20813244849E+03 -0.34050014328E+03  0.72962046028E+02  0.40568821014E+03  0.00000000000E+00 0.  1.
<mgrwt>
<rscale>  0 0.86221070E+03</rscale>
<asrwt>0</asrwt>
<pdfrwt beam="1">  1        1 0.11489237E+00 0.86221070E+03</pdfrwt>
<pdfrwt beam="2">  1       -1 0.38286788E-01 0.86221070E+03</pdfrwt>
<totfact> 0.16401936E+02</totfact>
</mgrwt>
</event>
<event>
 6    1  0.1568961E-005  0.2451976E+04  0.7818608E-02  0.8420297E-01
          3   -1    0    0  501    0  0.00000000000E+00  0.00000000000E+00  0.13644868459E+04  0.13644868459E+04  0.00000000000E+00 0. -1.
         -3   -1    0    0    0  501 -0.00000000000E+00 -0.00000000000E+00 -0.11015473888E+04  0.11015473888E+04  0.00000000000E+00 0.  1.
         23    2    1    2    0    0 -0.11355775176E+04  0.21052192797E+03  0.54024264142E+03  0.12782830670E+04  0.91047828455E+02 0.  0.
         13    1    3    3    0    0 -0.87024558537E+03  0.17249592302E+03  0.45475725261E+03  0.99693850418E+03  0.00000000000E+00 0. -1.
        -13    1    3    3    0    0 -0.26533193223E+03  0.38026004948E+02  0.85485388810E+02  0.28134456279E+03  0.00000000000E+00 0.  1.
         22    1    1    2    0    0  0.11355775176E+04 -0.21052192797E+03 -0.27730318431E+03  0.11877511678E+04  0.00000000000E+00 0.  1.
<mgrwt>
<rscale>  0 0.24519763E+04</rscale>
<asrwt>0</asrwt>
<pdfrwt beam="1">  1        3 0.20992105E+00 0.24519763E+04</pdfrwt>
<pdfrwt beam="2">  1       -3 0.16946883E+00 0.24519763E+04</pdfrwt>
<totfact> 0.69516301E-02</totfact>
</mgrwt>
</event>
<event>
 6    1  0.1568961E-005  0.3858551E+04  0.7818608E-02  0.8033705E-01
         -1   -1    0    0    0  501 -0.00000000000E+00  0.00000000000E+00  0.20231865345E+04  0.20231865345E+04  0.00000000000E+00 0.  1.
          1   -1    0    0  501    0  0.00000000000E+00 -0.00000000000E+00 -0.18397234847E+04  0.18397234847E+04  0.00000000000E+00 0. -1.
         23    2    1    2    0    0 -0.15499203429E+04 -0.12538534811E+03 -0.10495625344E+04  0.18783882516E+04  0.93735560374E+02 0.  0.
         13    1    3    3    0    0 -0.91318451347E+03 -0.53820598265E+02 -0.66709509299E+03  0.11321742249E+04  0.00000000000E+00 0. -1.
        -13    1    3    3    0    0 -0.63673582948E+03 -0.71564749840E+02 -0.38246744138E+03  0.74621402672E+03  0.00000000000E+00 0.  1.
         22    1    1    2    0    0  0.15499203429E+04  0.12538534811E+03  0.12330255841E+04  0.19845217676E+04  0.00000000000E+00 0.  1.
<mgrwt>
<rscale>  0 0.38585509E+04</rscale>
<asrwt>0</asrwt>
<pdfrwt beam="1">  1        1 0.28303438E+00 0.38585509E+04</pdfrwt>
<pdfrwt beam="2">  1       -1 0.31125947E+00 0.38585509E+04</pdfrwt>
<totfact> 0.84580816E-02</totfact>
</mgrwt>
</event>
<event>
 6    1  0.1568961E-005  0.9269677E+03  0.7818608E-02  0.9392484E-01
         -1   -1    0    0    0  501 -0.00000000000E+00  0.00000000000E+00  0.17606211876E+03  0.17606211876E+03  0.00000000000E+00 0.  1.
          1   -1    0    0  501    0  0.00000000000E+00 -0.00000000000E+00 -0.12201220157E+04  0.12201220157E+04  0.00000000000E+00 0. -1.
         23    2    1    2    0    0  0.20608791910E+03  0.17921065950E+03 -0.10815190421E+04  0.11205178898E+04  0.10624599846E+03 0.  0.
         13    1    3    3    0    0  0.11480360382E+03  0.12107103488E+03 -0.83158336555E+03  0.84815621014E+03  0.00000000000E+00 0.  1.
        -13    1    3    3    0    0  0.91284315274E+02  0.58139624612E+02 -0.24993567653E+03  0.27236167970E+03  0.00000000000E+00 0. -1.
         22    1    1    2    0    0 -0.20608791910E+03 -0.17921065950E+03  0.37459145141E+02  0.27566624463E+03  0.00000000000E+00 0.  1.
<mgrwt>
<rscale>  0 0.92696767E+03</rscale>
<asrwt>0</asrwt>
<pdfrwt beam="1">  1        1 0.18771107E+00 0.92696767E+03</pdfrwt>
<pdfrwt beam="2">  1       -1 0.27086481E-01 0.92696767E+03</pdfrwt>
<totfact> 0.12667447E+02</totfact>
</mgrwt>
</event>
<event>
 6    1  0.1568961E-005  0.2127897E+04  0.7818608E-02  0.8549053E-01
         -1   -1    0    0    0  501 -0.00000000000E+00  0.00000000000E+00  0.58689055367E+03  0.58689055367E+03  0.00000000000E+00 0.  1.
          1   -1    0    0  501    0  0.00000000000E+00 -0.00000000000E+00 -0.19287861018E+04  0.19287861018E+04  0.00000000000E+00 0. -1.
         23    2    1    2    0    0  0.67974380792E+03 -0.53284921255E+03 -0.14020858751E+04  0.16498806038E+04  0.10139663703E+03 0.  0.
         13    1    3    3    0    0  0.23610463060E+03 -0.14268010969E+03 -0.51144373158E+03  0.58110042236E+03  0.00000000000E+00 0. -1.
        -13    1    3    3    0    0  0.44363917732E+03 -0.39016910286E+03 -0.89064214347E+03  0.10687801814E+04  0.00000000000E+00 0.  1.
         22    1    1    2    0    0 -0.67974380792E+03  0.53284921255E+03  0.60190326890E+02  0.86579605172E+03  0.00000000000E+00 0.  1.
<mgrwt>
<rscale>  0 0.21278969E+04</rscale>
<asrwt>0</asrwt>
<pdfrwt beam="1">  1        1 0.29673633E+00 0.21278969E+04</pdfrwt>
<pdfrwt beam="2">  1       -1 0.90290852E-01 0.21278969E+04</pdfrwt>
<totfact> 0.36645652E+00</totfact>
</mgrwt>
</event>
<event>
 6    1  0.1568961E-005  0.3819826E+04  0.7818608E-02  0.8041914E-01
          2   -1    0    0  501    0  0.00000000000E+00  0.00000000000E+00  0.19247606798E+04  0.19247606798E+04  0.00000000000E+00 0. -1.
         -2   -1    0    0    0  501 -0.00000000000E+00 -0.00000000000E+00 -0.18951799496E+04  0.18951799496E+04  0.00000000000E+00 0.  1.
         23    2    1    2    0    0  0.38229106525E+03  0.24729455374E+03  0.18683939103E+04  0.19255977444E+04  0.98639822440E+02 0.  0.
         11    1    3    3    0    0  0.24408325840E+03  0.13573553205E+03  0.95071022674E+03  0.99088380092E+03  0.00000000000E+00 0.  1.
        -11    1    3    3    0    0  0.13820780685E+03  0.11155902169E+03  0.91768368353E+03  0.93471394352E+03  0.00000000000E+00 0. -1.
         22    1    1    2    0    0 -0.38229106525E+03 -0.24729455374E+03 -0.18388131801E+04  0.18943428850E+04  0.00000000000E+00 0.  1.
<mgrwt>
<rscale>  0 0.38198261E+04</rscale>
<asrwt>0</asrwt>
<pdfrwt beam="1">  1        2 0.29611703E+00 0.38198261E+04</pdfrwt>
<pdfrwt beam="2">  1       -2 0.29156615E+00 0.38198261E+04</pdfrwt>
<totfact> 0.21079227E-01</totfact>
</mgrwt>
</event>
<event>
 6    1  0.1920660E-005  0.3211878E+04  0.7818608E-02  0.8185687E-01
          2   -1    0    0  501    0  0.00000000000E+00  0.00000000000E+00  0.14305343292E+04  0.14305343292E+04  0.00000000000E+00 0. -1.
         -2   -1    0    0    0  501 -0.00000000000E+00 -0.00000000000E+00 -0.18028510679E+04  0.18028510679E+04  0.00000000000E+00 0.  1.
         23    2    1    2    0    0 -0.14416974783E+04  0.46582236226E+03  0.34830745310E+03  0.15556543943E+04  0.57100092592E+02 0.  0.
         13    1    3    3    0    0 -0.59350802856E+03  0.19889938420E+03  0.11594032073E+03  0.63659634225E+03  0.00000000000E+00 0.  1.
        -13    1    3    3    0    0 -0.84818944970E+03  0.26692297807E+03  0.23236713237E+03  0.91905805203E+03  0.00000000000E+00 0. -1.
         22    1    1    2    0    0  0.14416974783E+04 -0.46582236226E+03 -0.72062419180E+03  0.16777310028E+04  0.00000000000E+00 0.  1.
<mgrwt>
<rscale>  0 0.32118782E+04</rscale>
<asrwt>0</asrwt>
<pdfrwt beam="1">  1        2 0.22008221E+00 0.32118782E+04</pdfrwt>
<pdfrwt beam="2">  1       -2 0.27736170E+00 0.32118782E+04</pdfrwt>
<totfact> 0.51102192E-01</totfact>
</mgrwt>
</event>
<event>
 6    1  0.1568961E-005  0.2483133E+04  0.7818608E-02  0.8409019E-01
          3   -1    0    0  501    0  0.00000000000E+00  0.00000000000E+00  0.25437162435E+04  0.25437162435E+04  0.00000000000E+00 0. -1.
         -3   -1    0    0    0  501 -0.00000000000E+00 -0.00000000000E+00 -0.60599817267E+03  0.60599817267E+03  0.00000000000E+00 0.  1.
         23    2    1    2    0    0  0.10024298871E+04  0.22907933989E+03  0.91298242067E+02  0.10362790122E+04  0.90530655944E+02 0.  0.
         11    1    3    3    0    0  0.27576263020E+03  0.89963710257E+02  0.57046871668E+02  0.29562280519E+03  0.00000000000E+00 0.  1.
        -11    1    3    3    0    0  0.72666725691E+03  0.13911562963E+03  0.34251370398E+02  0.74065620705E+03  0.00000000000E+00 0. -1.
         22    1    1    2    0    0 -0.10024298871E+04 -0.22907933989E+03  0.18464198288E+04  0.21134354039E+04  0.00000000000E+00 0. -1.
<mgrwt>
<rscale>  0 0.24831330E+04</rscale>
<asrwt>0</asrwt>
<pdfrwt beam="1">  1        3 0.39134095E+00 0.24831330E+04</pdfrwt>
<pdfrwt beam="2">  1       -3 0.93230490E-01 0.24831330E+04</pdfrwt>
<totfact> 0.29613967E-02</totfact>
</mgrwt>
</event>
<event>
 6    1  0.1568961E-005  0.1289558E+04  0.7818608E-02  0.9037887E-01
          1   -1    0    0  501    0  0.00000000000E+00  0.00000000000E+00  0.33574361973E+03  0.33574361973E+03  0.00000000000E+00 0. -1.
         -1   -1    0    0    0  501 -0.00000000000E+00 -0.00000000000E+00 -0.12382658724E+04  0.12382658724E+04  0.00000000000E+00 0.  1.
         23    2    1    2    0    0 -0.38292547583E+03 -0.44035921761E+03 -0.77882455626E+03  0.97747845295E+03  0.91368900475E+02 0.  0.
         13    1    3    3    0    0 -0.13295067926E+03 -0.10599588823E+03 -0.27304318597E+03  0.32165757078E+03  0.00000000000E+00 0. -1.
        -13    1    3    3    0    0 -0.24997479656E+03 -0.33436332938E+03 -0.50578137029E+03  0.65582088217E+03  0.00000000000E+00 0.  1.
         22    1    1    2    0    0  0.38292547583E+03  0.44035921761E+03 -0.12369769637E+03  0.59653103914E+03  0.00000000000E+00 0. -1.
<mgrwt>
<rscale>  0 0.12895579E+04</rscale>
<asrwt>0</asrwt>
<pdfrwt beam="1">  1        1 0.51652865E-01 0.12895579E+04</pdfrwt>
<pdfrwt beam="2">  1       -1 0.19050244E+00 0.12895579E+04</pdfrwt>
<totfact> 0.13037160E+01</totfact>
</mgrwt>
</event>
<event>
 6    1  0.1568961E-005  0.1794800E+04  0.7818608E-02  0.8709070E-01
          1   -1    0    0  501    0  0.00000000000E+00  0.00000000000E+00  0.15440400892E+04  0.15440400892E+04  0.00000000000E+00 0. -1.
         -1   -1    0    0    0  501 -0.00000000000E+00 -0.00000000000E+00 -0.52157106857E+03  0.52157106857E+03  0.00000000000E+00 0.  1.
         23    2    1    2    0    0 -0.23966648505E+03  0.40199288715E+03  0.13906527914E+04  0.14701301804E+04  0.91264756207E+02 0.  0.
         13    1    3    3    0    0 -0.17130171828E+03  0.34812583707E+03  0.10829672096E+04  0.11503711811E+04  0.00000000000E+00 0. -1.
        -13    1    3    3    0    0 -0.68364766765E+02  0.53867050080E+02  0.30768558177E+03  0.31975899932E+03  0.00000000000E+00 0.  1.
         22    1    1    2    0    0  0.23966648505E+03 -0.40199288715E+03 -0.36818377075E+03  0.59548097738E+03  0.00000000000E+00 0.  1.
<mgrwt>
<rscale>  0 0.17947999E+04</rscale>
<asrwt>0</asrwt>
<pdfrwt beam="1">  1        1 0.23754463E+00 0.17947999E+04</pdfrwt>
<pdfrwt beam="2">  1       -1 0.80241703E-01 0.17947999E+04</pdfrwt>
<totfact> 0.89219305E+00</totfact>
</mgrwt>
</event>
<event>
 6    1  0.1568961E-005  0.4072051E+04  0.7818608E-02  0.7990167E-01
          2   -1    0    0  501    0  0.00000000000E+00  0.00000000000E+00  0.33563434173E+04  0.33563434173E+04  0.00000000000E+00 0. -1.
         -2   -1    0    0    0  501 -0.00000000000E+00 -0.00000000000E+00 -0.12350942336E+04  0.12350942336E+04  0.00000000000E+00 0.  1.
         23    2    1    2    0    0  0.16007393689E+04 -0.25714200540E+03 -0.32558763195E+03  0.16562206332E+04  0.92579381228E+02 0.  0.
         13    1    3    3    0    0  0.53100770336E+03 -0.46155343141E+02 -0.86648778672E+02  0.54000695141E+03  0.00000000000E+00 0.  1.
        -13    1    3    3    0    0  0.10697316655E+04 -0.21098666226E+03 -0.23893885328E+03  0.11162136818E+04  0.00000000000E+00 0. -1.
         22    1    1    2    0    0 -0.16007393689E+04  0.25714200540E+03  0.24468368157E+04  0.29352170176E+04  0.00000000000E+00 0. -1.
<mgrwt>
<rscale>  0 0.40720513E+04</rscale>
<asrwt>0</asrwt>
<pdfrwt beam="1">  1        2 0.51636052E+00 0.40720513E+04</pdfrwt>
<pdfrwt beam="2">  1       -2 0.19001450E+00 0.40720513E+04</pdfrwt>
<totfact> 0.12390175E-01</totfact>
</mgrwt>
</event>
<event>
 6    1  0.1568961E-005  0.2111613E+04  0.7818608E-02  0.8556145E-01
          1   -1    0    0  501    0  0.00000000000E+00  0.00000000000E+00  0.71969925453E+03  0.71969925453E+03  0.00000000000E+00 0. -1.
         -1   -1    0    0    0  501 -0.00000000000E+00 -0.00000000000E+00 -0.15488795629E+04  0.15488795629E+04  0.00000000000E+00 0.  1.
         23    2    1    2    0    0 -0.56915722458E+03 -0.74823530418E+02 -0.13649599733E+04  0.14833410469E+04  0.87443842790E+02 0.  0.
         11    1    3    3    0    0 -0.16904543372E+03 -0.57870810989E+02 -0.47219182903E+03  0.50486682683E+03  0.00000000000E+00 0. -1.
        -11    1    3    3    0    0 -0.40011179086E+03 -0.16952719429E+02 -0.89276814427E+03  0.97847422005E+03  0.00000000000E+00 0.  1.
         22    1    1    2    0    0  0.56915722458E+03  0.74823530418E+02  0.53577966492E+03  0.78523777057E+03  0.00000000000E+00 0. -1.
<mgrwt>
<rscale>  0 0.21116131E+04</rscale>
<asrwt>0</asrwt>
<pdfrwt beam="1">  1        1 0.11072296E+00 0.21116131E+04</pdfrwt>
<pdfrwt beam="2">  1       -1 0.23828916E+00 0.21116131E+04</pdfrwt>
<totfact> 0.19958046E+00</totfact>
</mgrwt>
</event>
<event>
 6    1  0.1568961E-005  0.1890490E+04  0.7818608E-02  0.8659604E-01
          1   -1    0    0  501    0  0.00000000000E+00  0.00000000000E+00  0.45226825782E+03  0.45226825782E+03  0.00000000000E+00 0. -1.
         -1   -1    0    0    0  501 -0.00000000000E+00 -0.00000000000E+00 -0.19755721340E+04  0.19755721340E+04  0.00000000000E+00 0.  1.
         23    2    1    2    0    0 -0.93079203824E+03 -0.14842544773E+03 -0.79512126766E+03  0.12367678318E+04  0.94725431786E+02 0.  0.
         11    1    3    3    0    0 -0.64002262075E+03 -0.89003603071E+02 -0.59847697044E+03  0.88075267844E+03  0.00000000000E+00 0. -1.
        -11    1    3    3    0    0 -0.29076941749E+03 -0.59421844663E+02 -0.19664429721E+03  0.35601515332E+03  0.00000000000E+00 0.  1.
         22    1    1    2    0    0  0.93079203824E+03  0.14842544773E+03 -0.72818260853E+03  0.11910725601E+04  0.00000000000E+00 0.  1.
<mgrwt>
<rscale>  0 0.18904905E+04</rscale>
<asrwt>0</asrwt>
<pdfrwt beam="1">  1        1 0.69579732E-01 0.18904905E+04</pdfrwt>
<pdfrwt beam="2">  1       -1 0.30393417E+00 0.18904905E+04</pdfrwt>
<totfact> 0.14843290E+00</totfact>
</mgrwt>
</event>
<event>
 6    1  0.1568961E-005  0.2498364E+04  0.7818608E-02  0.8403569E-01
          1   -1    0    0  501    0  0.00000000000E+00  0.00000000000E+00  0.88321051653E+03  0.88321051653E+03  0.00000000000E+00 0. -1.
         -1   -1    0    0    0  501 -0.00000000000E+00 -0.00000000000E+00 -0.17667988109E+04  0.17667988109E+04  0.00000000000E+00 0.  1.
         23    2    1    2    0    0  0.11520411998E+04  0.37695867261E+03 -0.12876819149E+03  0.12220561928E+04  0.86852313035E+02 0.  0.
         11    1    3    3    0    0  0.55054579448E+03  0.14560646843E+03 -0.88879420372E+02  0.57636921052E+03  0.00000000000E+00 0. -1.
        -11    1    3    3    0    0  0.60149540534E+03  0.23135220418E+03 -0.39888771122E+02  0.64568698228E+03  0.00000000000E+00 0.  1.
         22    1    1    2    0    0 -0.11520411998E+04 -0.37695867261E+03 -0.75482010284E+03  0.14279531346E+04  0.00000000000E+00 0. -1.
<mgrwt>
<rscale>  0 0.24983637E+04</rscale>
<asrwt>0</asrwt>
<pdfrwt beam="1">  1        1 0.13587854E+00 0.24983637E+04</pdfrwt>
<pdfrwt beam="2">  1       -1 0.27181520E+00 0.24983637E+04</pdfrwt>
<totfact> 0.83939475E-01</totfact>
</mgrwt>
</event>
<event>
 6    1  0.1568961E-005  0.2013393E+04  0.7818608E-02  0.8600384E-01
         -1   -1    0    0    0  501 -0.00000000000E+00  0.00000000000E+00  0.20806342132E+04  0.20806342132E+04  0.00000000000E+00 0.  1.
          1   -1    0    0  501    0  0.00000000000E+00 -0.00000000000E+00 -0.48708122387E+03  0.48708122387E+03  0.00000000000E+00 0. -1.
         23    2    1    2    0    0 -0.25054625669E+03  0.97238260347E+03  0.75712392376E+03  0.12608432413E+04  0.90485849836E+02 0.  0.
         13    1    3    3    0    0 -0.57854566200E+02  0.38374825243E+03  0.26804322252E+03  0.47165351818E+03  0.00000000000E+00 0. -1.
        -13    1    3    3    0    0 -0.19269169049E+03  0.58863435103E+03  0.48908070124E+03  0.78918972315E+03  0.00000000000E+00 0.  1.
         22    1    1    2    0    0  0.25054625669E+03 -0.97238260347E+03  0.83642906556E+03  0.13068721957E+04  0.00000000000E+00 0. -1.
<mgrwt>
<rscale>  0 0.20133930E+04</rscale>
<asrwt>0</asrwt>
<pdfrwt beam="1">  1        1 0.74935574E-01 0.20133930E+04</pdfrwt>
<pdfrwt beam="2">  1       -1 0.32009757E+00 0.20133930E+04</pdfrwt>
<totfact> 0.10416717E+00</totfact>
</mgrwt>
</event>
<event>
 6    1  0.1568961E-005  0.2163180E+04  0.7818608E-02  0.8533911E-01
         -2   -1    0    0    0  501 -0.00000000000E+00  0.00000000000E+00  0.86757225977E+03  0.86757225977E+03  0.00000000000E+00 0.  1.
          2   -1    0    0  501    0  0.00000000000E+00 -0.00000000000E+00 -0.13484032769E+04  0.13484032769E+04  0.00000000000E+00 0. -1.
         23    2    1    2    0    0  0.83879389261E+02 -0.24257177089E+03  0.83336687679E+03  0.87694868094E+03  0.93068908297E+02 0.  0.
         11    1    3    3    0    0  0.84440468059E+01 -0.13654676874E+03  0.51871056437E+03  0.53644847988E+03  0.00000000000E+00 0. -1.
        -11    1    3    3    0    0  0.75435342455E+02 -0.10602500215E+03  0.31465631242E+03  0.34050020106E+03  0.00000000000E+00 0.  1.
         22    1    1    2    0    0 -0.83879389261E+02  0.24257177089E+03 -0.13141978939E+04  0.13390268557E+04  0.00000000000E+00 0. -1.
<mgrwt>
<rscale>  0 0.21631803E+04</rscale>
<asrwt>0</asrwt>
<pdfrwt beam="1">  1        2 0.20744666E+00 0.21631803E+04</pdfrwt>
<pdfrwt beam="2">  1       -2 0.13347266E+00 0.21631803E+04</pdfrwt>
<totfact> 0.57706188E+00</totfact>
</mgrwt>
</event>
<event>
 6    1  0.1568961E-005  0.4510170E+04  0.7818608E-02  0.7908859E-01
          2   -1    0    0  501    0  0.00000000000E+00  0.00000000000E+00  0.25641214770E+04  0.25641214770E+04  0.00000000000E+00 0. -1.
         -2   -1    0    0    0  501 -0.00000000000E+00 -0.00000000000E+00 -0.19832944614E+04  0.19832944614E+04  0.00000000000E+00 0.  1.
         23    2    1    2    0    0  0.15459189268E+04  0.10482359799E+04  0.15629880167E+04  0.24371305952E+04  0.89498603461E+02 0.  0.
         13    1    3    3    0    0  0.99902608489E+03  0.63792064502E+03  0.95439598496E+03  0.15217974779E+04  0.00000000000E+00 0.  1.
        -13    1    3    3    0    0  0.54689284190E+03  0.41031533485E+03  0.60859203172E+03  0.91533311729E+03  0.00000000000E+00 0. -1.
         22    1    1    2    0    0 -0.15459189268E+04 -0.10482359799E+04 -0.98216100106E+03  0.21102853432E+04  0.00000000000E+00 0.  1.
<mgrwt>
<rscale>  0 0.45101698E+04</rscale>
<asrwt>0</asrwt>
<pdfrwt beam="1">  1        2 0.39448023E+00 0.45101698E+04</pdfrwt>
<pdfrwt beam="2">  1       -2 0.30512223E+00 0.45101698E+04</pdfrwt>
<totfact> 0.71500335E-02</totfact>
</mgrwt>
</event>
<event>
 6    1  0.1568961E-005  0.1240308E+04  0.7818608E-02  0.9078289E-01
          1   -1    0    0  501    0  0.00000000000E+00  0.00000000000E+00  0.79523354922E+03  0.79523354922E+03  0.00000000000E+00 0.  1.
         -1   -1    0    0    0  501 -0.00000000000E+00 -0.00000000000E+00 -0.48362007850E+03  0.48362007850E+03  0.00000000000E+00 0. -1.
         23    2    1    2    0    0 -0.56176700455E+03 -0.20680417171E+03  0.31060339366E+03  0.68022924374E+03  0.88810039136E+02 0.  0.
         11    1    3    3    0    0 -0.27256182389E+03 -0.14276130165E+03  0.13615135387E+03  0.33646385876E+03  0.00000000000E+00 0.  1.
        -11    1    3    3    0    0 -0.28920518066E+03 -0.64042870067E+02  0.17445203979E+03  0.34376538498E+03  0.00000000000E+00 0. -1.
         22    1    1    2    0    0  0.56176700455E+03  0.20680417171E+03  0.10100770640E+01  0.59862438398E+03  0.00000000000E+00 0. -1.
<mgrwt>
<rscale>  0 0.12403079E+04</rscale>
<asrwt>0</asrwt>
<pdfrwt beam="1">  1        1 0.12234362E+00 0.12403079E+04</pdfrwt>
<pdfrwt beam="2">  1       -1 0.74403089E-01 0.12403079E+04</pdfrwt>
<totfact> 0.40065345E+01</totfact>
</mgrwt>
</event>
<event>
 6    1  0.1568961E-005  0.1757883E+04  0.7818608E-02  0.8729023E-01
         -1   -1    0    0    0  501 -0.00000000000E+00  0.00000000000E+00  0.41290473720E+03  0.41290473720E+03  0.00000000000E+00 0.  1.
          1   -1    0    0  501    0  0.00000000000E+00 -0.00000000000E+00 -0.18709831373E+04  0.18709831373E+04  0.00000000000E+00 0. -1.
         23    2    1    2    0    0 -0.57970067265E+03  0.33448077961E+03  0.53945780787E+01  0.67463854029E+03  0.84721878987E+02 0.  0.
         11    1    3    3    0    0 -0.25156216169E+03  0.19295604699E+03  0.11094314596E+02  0.31723593914E+03  0.00000000000E+00 0.  1.
        -11    1    3    3    0    0 -0.32813851096E+03  0.14152473262E+03 -0.56997365173E+01  0.35740260116E+03  0.00000000000E+00 0. -1.
         22    1    1    2    0    0  0.57970067265E+03 -0.33448077961E+03 -0.14634729781E+04  0.16092493342E+04  0.00000000000E+00 0. -1.
<mgrwt>
<rscale>  0 0.17578826E+04</rscale>
<asrwt>0</asrwt>
<pdfrwt beam="1">  1        1 0.28784356E+00 0.17578826E+04</pdfrwt>
<pdfrwt beam="2">  1       -1 0.63523805E-01 0.17578826E+04</pdfrwt>
<totfact> 0.86777197E+00</totfact>
</mgrwt>
</event>
<event>
 6    1  0.1568961E-005  0.1061802E+04  0.7818608E-02  0.9243244E-01
          2   -1    0    0  501    0  0.00000000000E+00  0.00000000000E+00  0.16317140974E+04  0.16317140974E+04  0.00000000000E+00 0. -1.
         -2   -1    0    0    0  501 -0.00000000000E+00 -0.00000000000E+00 -0.17273591463E+03  0.17273591463E+03  0.00000000000E+00 0.  1.
         23    2    1    2    0    0 -0.26650775434E+03 -0.11912053928E+03  0.14818853435E+04  0.15116346709E+04  0.61960642089E+02 0.  0.
         13    1    3    3    0    0 -0.13860621183E+03 -0.86042596863E+02  0.70788585314E+03  0.72644159539E+03  0.00000000000E+00 0.  1.
        -13    1    3    3    0    0 -0.12790154251E+03 -0.33077942415E+02  0.77399949032E+03  0.78519307554E+03  0.00000000000E+00 0. -1.
         22    1    1    2    0    0  0.26650775434E+03  0.11912053928E+03 -0.22907160653E+02  0.29281534115E+03  0.00000000000E+00 0.  1.
<mgrwt>
<rscale>  0 0.10618015E+04</rscale>
<asrwt>0</asrwt>
<pdfrwt beam="1">  1        2 0.25103293E+00 0.10618015E+04</pdfrwt>
<pdfrwt beam="2">  1       -2 0.26574757E-01 0.10618015E+04</pdfrwt>
<totfact> 0.13666879E+02</totfact>
</mgrwt>
</event>
<event>
 6    1  0.1568961E-005  0.8353616E+03  0.7818608E-02  0.9510198E-01
         -2   -1    0    0    0  501 -0.00000000000E+00  0.00000000000E+00  0.92007394234E+02  0.92007394234E+02  0.00000000000E+00 0.  1.
          2   -1    0    0  501    0  0.00000000000E+00 -0.00000000000E+00 -0.18961218484E+04  0.18961218484E+04  0.00000000000E+00 0. -1.
         23    2    1    2    0    0  0.13594164731E+03  0.23926482024E+03 -0.17704528487E+03  0.33795292861E+03  0.84494753615E+02 0.  0.
         13    1    3    3    0    0  0.45209684289E+02  0.19896473840E+02 -0.19849773157E+02  0.53233436101E+02  0.00000000000E+00 0. -1.
        -13    1    3    3    0    0  0.90731963019E+02  0.21936834640E+03 -0.15719551171E+03  0.28471949251E+03  0.00000000000E+00 0.  1.
         22    1    1    2    0    0 -0.13594164731E+03 -0.23926482024E+03 -0.16270691693E+04  0.16501763140E+04  0.00000000000E+00 0. -1.
<mgrwt>
<rscale>  0 0.83536155E+03</rscale>
<asrwt>0</asrwt>
<pdfrwt beam="1">  1        2 0.29171104E+00 0.83536155E+03</pdfrwt>
<pdfrwt beam="2">  1       -2 0.14154985E-01 0.83536155E+03</pdfrwt>
<totfact> 0.29918999E+02</totfact>
</mgrwt>
</event>
<event>
 6    1  0.1568961E-005  0.1997211E+04  0.7818608E-02  0.8607926E-01
         -2   -1    0    0    0  501 -0.00000000000E+00  0.00000000000E+00  0.23521055339E+03  0.23521055339E+03  0.00000000000E+00 0.  1.
          2   -1    0    0  501    0  0.00000000000E+00 -0.00000000000E+00 -0.42396598236E+04  0.42396598236E+04  0.00000000000E+00 0. -1.
         23    2    1    2    0    0  0.96525191333E+03 -0.23370044418E+03 -0.18248949169E+04  0.20797118576E+04  0.92912858317E+02 0.  0.
         11    1    3    3    0    0  0.17267923579E+03 -0.79238441956E+02 -0.34894467032E+03  0.39731502879E+03  0.00000000000E+00 0.  1.
        -11    1    3    3    0    0  0.79257267754E+03 -0.15446200222E+03 -0.14759502465E+04  0.16823968288E+04  0.00000000000E+00 0. -1.
         22    1    1    2    0    0 -0.96525191333E+03  0.23370044418E+03 -0.21795543533E+04  0.23951585194E+04  0.00000000000E+00 0. -1.
<mgrwt>
<rscale>  0 0.19972108E+04</rscale>
<asrwt>0</asrwt>
<pdfrwt beam="1">  1        2 0.65225533E+00 0.19972108E+04</pdfrwt>
<pdfrwt beam="2">  1       -2 0.36186241E-01 0.19972108E+04</pdfrwt>
<totfact> 0.14528124E+00</totfact>
</mgrwt>
</event>
<event>
 6    1  0.1568961E-005  0.1282179E+04  0.7818608E-02  0.9043818E-01
          1   -1    0    0  501    0  0.00000000000E+00  0.00000000000E+00  0.83330919190E+03  0.83330919190E+03  0.00000000000E+00 0. -1.
         -1   -1    0    0    0  501 -0.00000000000E+00 -0.00000000000E+00 -0.49320908533E+03  0.49320908533E+03  0.00000000000E+00 0.  1.
         23    2    1    2    0    0  0.35910370908E+03 -0.49416329874E+03 -0.13858075264E+02  0.62051598673E+03  0.10814436574E+03 0.  0.
         11    1    3    3    0    0  0.31904148964E+03 -0.37824803557E+03  0.12847032838E+02  0.49499908563E+03  0.00000000000E+00 0. -1.
        -11    1    3    3    0    0  0.40062219440E+02 -0.11591526318E+03 -0.26705108102E+02  0.12551690110E+03  0.00000000000E+00 0.  1.
         22    1    1    2    0    0 -0.35910370908E+03  0.49416329874E+03  0.35395818184E+03  0.70600229050E+03  0.00000000000E+00 0. -1.
<mgrwt>
<rscale>  0 0.12821789E+04</rscale>
<asrwt>0</asrwt>
<pdfrwt beam="1">  1        1 0.12820141E+00 0.12821789E+04</pdfrwt>
<pdfrwt beam="2">  1       -1 0.75878321E-01 0.12821789E+04</pdfrwt>
<totfact> 0.35531883E+01</totfact>
</mgrwt>
</event>
<event>
 6    1  0.1568961E-005  0.3668678E+04  0.7818608E-02  0.8074939E-01
         -2   -1    0    0    0  501 -0.00000000000E+00  0.00000000000E+00  0.23614974417E+04  0.23614974417E+04  0.00000000000E+00 0. -1.
          2   -1    0    0  501    0  0.00000000000E+00 -0.00000000000E+00 -0.14248585510E+04  0.14248585510E+04  0.00000000000E+00 0.  1.
         23    2    1    2    0    0 -0.73074279656E+03  0.15861647169E+04  0.10440006762E+04  0.20366617061E+04  0.90277069719E+02 0.  0.
         13    1    3    3    0    0 -0.11702767237E+03  0.21168520455E+03  0.11531122578E+03  0.26796040886E+03  0.00000000000E+00 0.  1.
        -13    1    3    3    0    0 -0.61371512418E+03  0.13744795123E+04  0.92868945039E+03  0.17687012972E+04  0.00000000000E+00 0. -1.
         22    1    1    2    0    0  0.73074279656E+03 -0.15861647169E+04 -0.10736178545E+03  0.17496942867E+04  0.00000000000E+00 0. -1.
<mgrwt>
<rscale>  0 0.36686781E+04</rscale>
<asrwt>0</asrwt>
<pdfrwt beam="1">  1        2 0.21920901E+00 0.36686781E+04</pdfrwt>
<pdfrwt beam="2">  1       -2 0.36330730E+00 0.36686781E+04</pdfrwt>
<totfact> 0.14533795E-01</totfact>
</mgrwt>
</event>
<event>
 6    1  0.1568961E-005  0.1351794E+04  0.7818608E-02  0.8989471E-01
          1   -1    0    0  501    0  0.00000000000E+00  0.00000000000E+00  0.38593736711E+03  0.38593736711E+03  0.00000000000E+00 0. -1.
         -1   -1    0    0    0  501 -0.00000000000E+00 -0.00000000000E+00 -0.11837077548E+04  0.11837077548E+04  0.00000000000E+00 0.  1.
         23    2    1    2    0    0  0.24656457056E+03 -0.47131056678E+03 -0.87934372406E+03  0.10315169336E+04  0.88623142732E+02 0.  0.
         11    1    3    3    0    0  0.73838314730E+02 -0.11544613613E+03 -0.16069328995E+03  0.21119242531E+03  0.00000000000E+00 0. -1.
        -11    1    3    3    0    0  0.17272625583E+03 -0.35586443065E+03 -0.71865043411E+03  0.82032450829E+03  0.00000000000E+00 0.  1.
         22    1    1    2    0    0 -0.24656457056E+03  0.47131056678E+03  0.81573336402E+02  0.53812818828E+03  0.00000000000E+00 0. -1.
<mgrwt>
<rscale>  0 0.13517944E+04</rscale>
<asrwt>0</asrwt>
<pdfrwt beam="1">  1        1 0.59374981E-01 0.13517944E+04</pdfrwt>
<pdfrwt beam="2">  1       -1 0.18210888E+00 0.13517944E+04</pdfrwt>
<totfact> 0.12376720E+01</totfact>
</mgrwt>
</event>
<event>
 6    1  0.1568961E-005  0.1829350E+04  0.7818608E-02  0.8690845E-01
          1   -1    0    0  501    0  0.00000000000E+00  0.00000000000E+00  0.21910357248E+04  0.21910357248E+04  0.00000000000E+00 0. -1.
         -1   -1    0    0    0  501 -0.00000000000E+00 -0.00000000000E+00 -0.38184243773E+03  0.38184243773E+03  0.00000000000E+00 0.  1.
         23    2    1    2    0    0  0.70087931071E+03  0.53048055276E+03  0.12507304957E+04  0.15314742475E+04  0.91897620265E+02 0.  0.
         11    1    3    3    0    0  0.40854971009E+03  0.27751365744E+03  0.76678307079E+03  0.91207618834E+03  0.00000000000E+00 0. -1.
        -11    1    3    3    0    0  0.29232960061E+03  0.25296689532E+03  0.48394742496E+03  0.61939805913E+03  0.00000000000E+00 0.  1.
         22    1    1    2    0    0 -0.70087931071E+03 -0.53048055276E+03  0.55846279132E+03  0.10414039151E+04  0.00000000000E+00 0.  1.
<mgrwt>
<rscale>  0 0.18293501E+04</rscale>
<asrwt>0</asrwt>
<pdfrwt beam="1">  1        1 0.33708241E+00 0.18293501E+04</pdfrwt>
<pdfrwt beam="2">  1       -1 0.58744992E-01 0.18293501E+04</pdfrwt>
<totfact> 0.61093186E+00</totfact>
</mgrwt>
</event>
<event>
 6    1  0.1568961E-005  0.1502623E+04  0.7818608E-02  0.8882711E-01
          2   -1    0    0  501    0  0.00000000000E+00  0.00000000000E+00  0.39054268506E+04  0.39054268506E+04  0.00000000000E+00 0. -1.
         -2   -1    0    0    0  501 -0.00000000000E+00 -0.00000000000E+00 -0.14453443088E+03  0.14453443088E+03  0.00000000000E+00 0.  1.
         23    2    1    2    0    0 -0.47550740838E+03 -0.57417064501E+03  0.20684487668E+04  0.22005979469E+04  0.91497529987E+02 0.  0.
         13    1    3    3    0    0 -0.19715381298E+03 -0.20817471146E+03  0.67946540807E+03  0.73748191654E+03  0.00000000000E+00 0. -1.
        -13    1    3    3    0    0 -0.27835359540E+03 -0.36599593354E+03  0.13889833588E+04  0.14631160304E+04  0.00000000000E+00 0.  1.
         22    1    1    2    0    0  0.47550740838E+03  0.57417064501E+03  0.16924436528E+04  0.18493633345E+04  0.00000000000E+00 0.  1.
<mgrwt>
<rscale>  0 0.15026226E+04</rscale>
<asrwt>0</asrwt>
<pdfrwt beam="1">  1        2 0.60083482E+00 0.15026226E+04</pdfrwt>
<pdfrwt beam="2">  1       -2 0.22236069E-01 0.15026226E+04</pdfrwt>
<totfact> 0.71182644E+00</totfact>
</mgrwt>
</event>
<event>
 6    1  0.1568961E-005  0.3644538E+04  0.7818608E-02  0.8080365E-01
          2   -1    0    0  501    0  0.00000000000E+00  0.00000000000E+00  0.27451723368E+04  0.27451723368E+04  0.00000000000E+00 0. -1.
         -2   -1    0    0    0  501 -0.00000000000E+00 -0.00000000000E+00 -0.12096376247E+04  0.12096376247E+04  0.00000000000E+00 0.  1.
         23    2    1    2    0    0  0.14494297872E+04  0.19567534924E+02  0.19645059749E+04  0.24431069679E+04  0.90875379528E+02 0.  0.
         13    1    3    3    0    0  0.69510391251E+03  0.41075907187E+02  0.88816456631E+03  0.11285800708E+04  0.00000000000E+00 0. -1.
        -13    1    3    3    0    0  0.75432587470E+03 -0.21508372263E+02  0.10763414086E+04  0.13145268971E+04  0.00000000000E+00 0.  1.
         22    1    1    2    0    0 -0.14494297872E+04 -0.19567534924E+02 -0.42897126280E+03  0.15117029936E+04  0.00000000000E+00 0. -1.
<mgrwt>
<rscale>  0 0.36445377E+04</rscale>
<asrwt>0</asrwt>
<pdfrwt beam="1">  1        2 0.42233420E+00 0.36445377E+04</pdfrwt>
<pdfrwt beam="2">  1       -2 0.18609810E+00 0.36445377E+04</pdfrwt>
<totfact> 0.33362984E-01</totfact>
</mgrwt>
</event>
<event>
 6    1  0.1568961E-005  0.1310510E+04  0.7818608E-02  0.9021272E-01
         -2   -1    0    0    0  501 -0.00000000000E+00  0.00000000000E+00  0.25190944121E+03  0.25190944121E+03  0.00000000000E+00 0.  1.
          2   -1    0    0  501    0  0.00000000000E+00 -0.00000000000E+00 -0.17044182459E+04  0.17044182459E+04  0.00000000000E+00 0. -1.
         23    2    1    2    0    0 -0.18054747720E+03  0.49454445112E+03 -0.15597147229E+03  0.55697760227E+03  0.93409547737E+02 0.  0.
         13    1    3    3    0    0 -0.12244822882E+03  0.24408992062E+03 -0.11636223073E+03  0.29683939568E+03  0.00000000000E+00 0. -1.
        -13    1    3    3    0    0 -0.58099248385E+02  0.25045453050E+03 -0.39609241554E+02  0.26013820659E+03  0.00000000000E+00 0.  1.
         22    1    1    2    0    0  0.18054747720E+03 -0.49454445112E+03 -0.12965373324E+04  0.13993500849E+04  0.00000000000E+00 0. -1.
<mgrwt>
<rscale>  0 0.13105099E+04</rscale>
<asrwt>0</asrwt>
<pdfrwt beam="1">  1        2 0.26221820E+00 0.13105099E+04</pdfrwt>
<pdfrwt beam="2">  1       -2 0.38755298E-01 0.13105099E+04</pdfrwt>
<totfact> 0.60081387E+01</totfact>
</mgrwt>
</event>
<event>
 6    1  0.1568961E-005  0.3158552E+04  0.7818608E-02  0.8199850E-01
         -2   -1    0    0    0  501 -0.00000000000E+00  0.00000000000E+00  0.14965248087E+04  0.14965248087E+04  0.00000000000E+00 0.  1.
          2   -1    0    0  501    0  0.00000000000E+00 -0.00000000000E+00 -0.16666031001E+04  0.16666031001E+04  0.00000000000E+00 0. -1.
         23    2    1    2    0    0  0.61337058435E+03 -0.11901849185E+04 -0.92133410635E+03  0.16278269893E+04  0.90556931059E+02 0.  0.
         13    1    3    3    0    0  0.42994356812E+03 -0.90882303858E+03 -0.66698776355E+03  0.12065170798E+04  0.00000000000E+00 0.  1.
        -13    1    3    3    0    0  0.18342701623E+03 -0.28136187992E+03 -0.25434634280E+03  0.42130990951E+03  0.00000000000E+00 0. -1.
         22    1    1    2    0    0 -0.61337058435E+03  0.11901849185E+04  0.75125581490E+03  0.15353009195E+04  0.00000000000E+00 0.  1.
<mgrwt>
<rscale>  0 0.31585521E+04</rscale>
<asrwt>0</asrwt>
<pdfrwt beam="1">  1        2 0.25640048E+00 0.31585521E+04</pdfrwt>
<pdfrwt beam="2">  1       -2 0.23023459E+00 0.31585521E+04</pdfrwt>
<totfact> 0.73703031E-01</totfact>
</mgrwt>
</event>
<event>
 6    1  0.1568961E-005  0.2520325E+04  0.7818608E-02  0.8395780E-01
          1   -1    0    0  501    0  0.00000000000E+00  0.00000000000E+00  0.50043522528E+03  0.50043522528E+03  0.00000000000E+00 0. -1.
         -1   -1    0    0    0  501 -0.00000000000E+00 -0.00000000000E+00 -0.31732557695E+04  0.31732557695E+04  0.00000000000E+00 0.  1.
         23    2    1    2    0    0 -0.56900642464E+03 -0.86116129894E+03 -0.28850207614E+03  0.10755490334E+04  0.90582455925E+02 0.  0.
         11    1    3    3    0    0 -0.41796005356E+03 -0.58467528107E+03 -0.16680790975E+03  0.73780801665E+03  0.00000000000E+00 0.  1.
        -11    1    3    3    0    0 -0.15104637108E+03 -0.27648601787E+03 -0.12169416638E+03  0.33774101679E+03  0.00000000000E+00 0. -1.
         22    1    1    2    0    0  0.56900642464E+03  0.86116129894E+03 -0.23843184681E+04  0.25981419613E+04  0.00000000000E+00 0.  1.
<mgrwt>
<rscale>  0 0.25203246E+04</rscale>
<asrwt>0</asrwt>
<pdfrwt beam="1">  1        1 0.76990036E-01 0.25203246E+04</pdfrwt>
<pdfrwt beam="2">  1       -1 0.48819318E+00 0.25203246E+04</pdfrwt>
<totfact> 0.69700739E-02</totfact>
</mgrwt>
</event>
<event>
 6    1  0.1568961E-005  0.3258094E+04  0.7818608E-02  0.8173641E-01
         -1   -1    0    0    0  501 -0.00000000000E+00  0.00000000000E+00  0.11038769068E+04  0.11038769068E+04  0.00000000000E+00 0.  1.
          1   -1    0    0  501    0  0.00000000000E+00 -0.00000000000E+00 -0.24040667836E+04  0.24040667836E+04  0.00000000000E+00 0. -1.
         23    2    1    2    0    0  0.83844745784E+03  0.11546354241E+04  0.19266720858E+03  0.14428046202E+04  0.91582840600E+02 0.  0.
         13    1    3    3    0    0  0.46357956728E+03  0.66086389335E+03  0.15275659041E+03  0.82157268494E+03  0.00000000000E+00 0.  1.
        -13    1    3    3    0    0  0.37486789055E+03  0.49377153073E+03  0.39910618179E+02  0.62123193525E+03  0.00000000000E+00 0. -1.
         22    1    1    2    0    0 -0.83844745784E+03 -0.11546354241E+04 -0.14928570854E+04  0.20651390703E+04  0.00000000000E+00 0. -1.
<mgrwt>
<rscale>  0 0.32580938E+04</rscale>
<asrwt>0</asrwt>
<pdfrwt beam="1">  1        1 0.36985642E+00 0.32580938E+04</pdfrwt>
<pdfrwt beam="2">  1       -1 0.16982722E+00 0.32580938E+04</pdfrwt>
<totfact> 0.32424382E-01</totfact>
</mgrwt>
</event>
<event>
 6    1  0.1568961E-005  0.6606501E+04  0.7818608E-02  0.7619437E-01
         -2   -1    0    0    0  501 -0.00000000000E+00  0.00000000000E+00  0.23015860342E+04  0.23015860342E+04  0.00000000000E+00 0.  1.
          2   -1    0    0  501    0  0.00000000000E+00 -0.00000000000E+00 -0.47408448861E+04  0.47408448861E+04  0.00000000000E+00 0. -1.
         23    2    1    2    0    0  0.17828933600E+04  0.87757791508E+03 -0.40317407689E+04  0.44958939804E+04  0.96318873872E+02 0.  0.
         11    1    3    3    0    0  0.11959358085E+04  0.63452515187E+03 -0.27031794570E+04  0.30232538437E+04  0.00000000000E+00 0.  1.
        -11    1    3    3    0    0  0.58695755150E+03  0.24305276321E+03 -0.13285613118E+04  0.14726401367E+04  0.00000000000E+00 0. -1.
         22    1    1    2    0    0 -0.17828933600E+04 -0.87757791508E+03  0.15924819169E+04  0.25465369398E+04  0.00000000000E+00 0.  1.
<mgrwt>
<rscale>  0 0.66065006E+04</rscale>
<asrwt>0</asrwt>
<pdfrwt beam="1">  1        2 0.72936075E+00 0.66065006E+04</pdfrwt>
<pdfrwt beam="2">  1       -2 0.35409016E+00 0.66065006E+04</pdfrwt>
<totfact> 0.64146927E-04</totfact>
</mgrwt>
</event>
<event>
 6    1  0.1568961E-005  0.4117781E+04  0.7818608E-02  0.7981199E-01
         -1   -1    0    0    0  501 -0.00000000000E+00  0.00000000000E+00  0.15497480981E+04  0.15497480981E+04  0.00000000000E+00 0.  1.
          1   -1    0    0  501    0  0.00000000000E+00 -0.00000000000E+00 -0.27353028678E+04  0.27353028678E+04  0.00000000000E+00 0. -1.
         23    2    1    2    0    0  0.17074855844E+04 -0.91031878767E+03 -0.13220843666E+04  0.23452500361E+04  0.90018571976E+02 0.  0.
         13    1    3    3    0    0  0.11536015021E+04 -0.64911360790E+03 -0.86840562092E+03  0.15831213548E+04  0.00000000000E+00 0.  1.
        -13    1    3    3    0    0  0.55388408232E+03 -0.26120517977E+03 -0.45367874568E+03  0.76212868130E+03  0.00000000000E+00 0. -1.
         22    1    1    2    0    0 -0.17074855844E+04  0.91031878767E+03  0.13652959685E+03  0.19398009297E+04  0.00000000000E+00 0.  1.
<mgrwt>
<rscale>  0 0.41177812E+04</rscale>
<asrwt>0</asrwt>
<pdfrwt beam="1">  1        1 0.42081583E+00 0.41177812E+04</pdfrwt>
<pdfrwt beam="2">  1       -1 0.23842278E+00 0.41177812E+04</pdfrwt>
<totfact> 0.59629032E-02</totfact>
</mgrwt>
</event>
<event>
 6    1  0.1568961E-005  0.8885299E+03  0.7818608E-02  0.9440034E-01
          2   -1    0    0  501    0  0.00000000000E+00  0.00000000000E+00  0.16843165662E+03  0.16843165662E+03  0.00000000000E+00 0.  1.
         -2   -1    0    0    0  501 -0.00000000000E+00 -0.00000000000E+00 -0.11718187129E+04  0.11718187129E+04  0.00000000000E+00 0. -1.
         23    2    1    2    0    0 -0.16467466396E+03 -0.33841567636E+03 -0.16373250801E+03  0.42010762224E+03  0.89661391511E+02 0.  0.
         11    1    3    3    0    0 -0.10631891052E+03 -0.20264434925E+03 -0.14556247030E+03  0.27121370868E+03  0.00000000000E+00 0. -1.
        -11    1    3    3    0    0 -0.58355753436E+02 -0.13577132710E+03 -0.18170037716E+02  0.14889391355E+03  0.00000000000E+00 0.  1.
         22    1    1    2    0    0  0.16467466396E+03  0.33841567636E+03 -0.83965454825E+03  0.92014274727E+03  0.00000000000E+00 0. -1.
<mgrwt>
<rscale>  0 0.88852995E+03</rscale>
<asrwt>0</asrwt>
<pdfrwt beam="1">  1        2 0.25912563E-01 0.88852995E+03</pdfrwt>
<pdfrwt beam="2">  1       -2 0.18027980E+00 0.88852995E+03</pdfrwt>
<totfact> 0.38181260E+01</totfact>
</mgrwt>
</event>
<event>
 6    1  0.1568961E-005  0.1816410E+04  0.7818608E-02  0.8697621E-01
          1   -1    0    0  501    0  0.00000000000E+00  0.00000000000E+00  0.42082670879E+04  0.42082670879E+04  0.00000000000E+00 0. -1.
         -1   -1    0    0    0  501 -0.00000000000E+00 -0.00000000000E+00 -0.19600389587E+03  0.19600389587E+03  0.00000000000E+00 0.  1.
         23    2    1    2    0    0  0.53039677834E+03  0.64627711919E+03  0.11645066769E+04  0.14363235403E+04  0.89188871529E+02 0.  0.
         11    1    3    3    0    0  0.33381022363E+03  0.43458724405E+03  0.82672473159E+03  0.99185135979E+03  0.00000000000E+00 0. -1.
        -11    1    3    3    0    0  0.19658655470E+03  0.21168987515E+03  0.33778194528E+03  0.44447218055E+03  0.00000000000E+00 0.  1.
         22    1    1    2    0    0 -0.53039677834E+03 -0.64627711919E+03  0.28477565151E+04  0.29679474434E+04  0.00000000000E+00 0. -1.
<mgrwt>
<rscale>  0 0.18164105E+04</rscale>
<asrwt>0</asrwt>
<pdfrwt beam="1">  1        1 0.64742564E+00 0.18164105E+04</pdfrwt>
<pdfrwt beam="2">  1       -1 0.30154449E-01 0.18164105E+04</pdfrwt>
<totfact> 0.60035330E-01</totfact>
</mgrwt>
</event>
<event>
 6    1  0.1568961E-005  0.1615743E+04  0.7818608E-02  0.8810934E-01
         -2   -1    0    0    0  501 -0.00000000000E+00  0.00000000000E+00  0.33566175615E+03  0.33566175615E+03  0.00000000000E+00 0.  1.
          2   -1    0    0  501    0  0.00000000000E+00 -0.00000000000E+00 -0.19443878848E+04  0.19443878848E+04  0.00000000000E+00 0. -1.
         23    2    1    2    0    0 -0.72897123504E+03 -0.13337785548E+03 -0.12511547107E+04  0.14572215709E+04  0.94434542531E+02 0.  0.
         13    1    3    3    0    0 -0.41840584564E+03 -0.11020294533E+03 -0.79065084355E+03  0.90129734119E+03  0.00000000000E+00 0. -1.
        -13    1    3    3    0    0 -0.31056538940E+03 -0.23174910156E+02 -0.46050386716E+03  0.55592422975E+03  0.00000000000E+00 0.  1.
         22    1    1    2    0    0  0.72897123504E+03  0.13337785548E+03 -0.35757141790E+03  0.82282806998E+03  0.00000000000E+00 0.  1.
<mgrwt>
<rscale>  0 0.16157434E+04</rscale>
<asrwt>0</asrwt>
<pdfrwt beam="1">  1        2 0.29913660E+00 0.16157434E+04</pdfrwt>
<pdfrwt beam="2">  1       -2 0.51640270E-01 0.16157434E+04</pdfrwt>
<totfact> 0.24341238E+01</totfact>
</mgrwt>
</event>
<event>
 6    1  0.1568961E-005  0.3347160E+04  0.7818608E-02  0.8150998E-01
         -2   -1    0    0    0  501 -0.00000000000E+00  0.00000000000E+00  0.19007459180E+04  0.19007459180E+04  0.00000000000E+00 0.  1.
          2   -1    0    0  501    0  0.00000000000E+00 -0.00000000000E+00 -0.14735631802E+04  0.14735631802E+04  0.00000000000E+00 0. -1.
         23    2    1    2    0    0 -0.13709715725E+04 -0.93815851023E+03  0.19629645638E+02  0.16638109352E+04  0.90427109809E+02 0.  0.
         11    1    3    3    0    0 -0.89528516461E+03 -0.60428043957E+03 -0.29824725463E+02  0.10805461072E+04  0.00000000000E+00 0.  1.
        -11    1    3    3    0    0 -0.47568640790E+03 -0.33387807065E+03  0.49454371101E+02  0.58326482797E+03  0.00000000000E+00 0. -1.
         22    1    1    2    0    0  0.13709715725E+04  0.93815851023E+03  0.40755309215E+03  0.17104981631E+04  0.00000000000E+00 0. -1.
<mgrwt>
<rscale>  0 0.33471595E+04</rscale>
<asrwt>0</asrwt>
<pdfrwt beam="1">  1        2 0.22670203E+00 0.33471595E+04</pdfrwt>
<pdfrwt beam="2">  1       -2 0.29242245E+00 0.33471595E+04</pdfrwt>
<totfact> 0.38655247E-01</totfact>
</mgrwt>
</event>
<event>
 6    1  0.1568961E-005  0.7319176E+03  0.7818608E-02  0.9664154E-01
         -2   -1    0    0    0  501 -0.00000000000E+00  0.00000000000E+00  0.49695772462E+02  0.49695772462E+02  0.00000000000E+00 0. -1.
          2   -1    0    0  501    0  0.00000000000E+00 -0.00000000000E+00 -0.26949145145E+04  0.26949145145E+04  0.00000000000E+00 0.  1.
         23    2    1    2    0    0 -0.12729384846E+03 -0.30101054703E+03 -0.19124411000E+04  0.19422549131E+04  0.90067270683E+02 0.  0.
         11    1    3    3    0    0 -0.52796098348E+02 -0.20079165644E+03 -0.13688219897E+04  0.13844776477E+04  0.00000000000E+00 0. -1.
        -11    1    3    3    0    0 -0.74497750111E+02 -0.10021889059E+03 -0.54361911022E+03  0.55777726540E+03  0.00000000000E+00 0.  1.
         22    1    1    2    0    0  0.12729384846E+03  0.30101054703E+03 -0.73277764205E+03  0.80235537386E+03  0.00000000000E+00 0. -1.
<mgrwt>
<rscale>  0 0.73191764E+03</rscale>
<asrwt>0</asrwt>
<pdfrwt beam="1">  1        2 0.41460241E+00 0.73191764E+03</pdfrwt>
<pdfrwt beam="2">  1       -2 0.76455001E-02 0.73191764E+03</pdfrwt>
<totfact> 0.29595004E+02</totfact>
</mgrwt>
</event>
<event>
 6    1  0.1568961E-005  0.1799059E+04  0.7818608E-02  0.8706800E-01
         -2   -1    0    0    0  501 -0.00000000000E+00  0.00000000000E+00  0.56559738089E+03  0.56559738089E+03  0.00000000000E+00 0.  1.
          2   -1    0    0  501    0  0.00000000000E+00 -0.00000000000E+00 -0.14306165139E+04  0.14306165139E+04  0.00000000000E+00 0. -1.
         23    2    1    2    0    0  0.47238893011E+03 -0.67055558695E+03 -0.30249447773E+02  0.82589918333E+03  0.91642432671E+02 0.  0.
         13    1    3    3    0    0  0.34535247848E+03 -0.46920428042E+03 -0.61263382943E+02  0.58581071452E+03  0.00000000000E+00 0.  1.
        -13    1    3    3    0    0  0.12703645163E+03 -0.20135130653E+03  0.31013935170E+02  0.24008846882E+03  0.00000000000E+00 0. -1.
         22    1    1    2    0    0 -0.47238893011E+03  0.67055558695E+03 -0.83476968526E+03  0.11703147115E+04  0.00000000000E+00 0. -1.
<mgrwt>
<rscale>  0 0.17990586E+04</rscale>
<asrwt>0</asrwt>
<pdfrwt beam="1">  1        2 0.22009485E+00 0.17990586E+04</pdfrwt>
<pdfrwt beam="2">  1       -2 0.87014982E-01 0.17990586E+04</pdfrwt>
<totfact> 0.14987968E+01</totfact>
</mgrwt>
</event>
<event>
 6    1  0.1568961E-005  0.1991897E+04  0.7818608E-02  0.8610419E-01
          1   -1    0    0  501    0  0.00000000000E+00  0.00000000000E+00  0.19035375626E+04  0.19035375626E+04  0.00000000000E+00 0. -1.
         -1   -1    0    0    0  501 -0.00000000000E+00 -0.00000000000E+00 -0.52108943068E+03  0.52108943068E+03  0.00000000000E+00 0.  1.
         23    2    1    2    0    0  0.28367484322E+03  0.63044667741E+03 -0.17653312307E+03  0.71923642713E+03  0.90568564293E+02 0.  0.
         11    1    3    3    0    0  0.21421704307E+03  0.54225528700E+03 -0.16747950189E+03  0.60661282659E+03  0.00000000000E+00 0. -1.
        -11    1    3    3    0    0  0.69457800145E+02  0.88191390401E+02 -0.90536211814E+01  0.11262360054E+03  0.00000000000E+00 0.  1.
         22    1    1    2    0    0 -0.28367484322E+03 -0.63044667741E+03  0.15589812550E+04  0.17053905662E+04  0.00000000000E+00 0. -1.
<mgrwt>
<rscale>  0 0.19918969E+04</rscale>
<asrwt>0</asrwt>
<pdfrwt beam="1">  1        1 0.29285193E+00 0.19918969E+04</pdfrwt>
<pdfrwt beam="2">  1       -1 0.80167606E-01 0.19918969E+04</pdfrwt>
<totfact> 0.49944836E+00</totfact>
</mgrwt>
</event>
<event>
 6    1  0.1568961E-005  0.1138064E+04  0.7818608E-02  0.9168866E-01
         -2   -1    0    0    0  501 -0.00000000000E+00  0.00000000000E+00  0.10395797355E+04  0.10395797355E+04  0.00000000000E+00 0.  1.
          2   -1    0    0  501    0  0.00000000000E+00 -0.00000000000E+00 -0.31146980329E+03  0.31146980329E+03  0.00000000000E+00 0. -1.
         23    2    1    2    0    0  0.47395553516E+03 -0.25631033238E+03  0.17260689989E+03  0.57715519542E+03  0.11395675459E+03 0.  0.
         13    1    3    3    0    0  0.38505148753E+03 -0.24460402456E+03  0.17187710321E+03  0.48748078474E+03  0.00000000000E+00 0. -1.
        -13    1    3    3    0    0  0.88904047628E+02 -0.11706307818E+02  0.72979667711E+00  0.89674410679E+02  0.00000000000E+00 0.  1.
         22    1    1    2    0    0 -0.47395553516E+03  0.25631033238E+03  0.55550303231E+03  0.77389434337E+03  0.00000000000E+00 0.  1.
<mgrwt>
<rscale>  0 0.11380645E+04</rscale>
<asrwt>0</asrwt>
<pdfrwt beam="1">  1        2 0.47918432E-01 0.11380645E+04</pdfrwt>
<pdfrwt beam="2">  1       -2 0.15993534E+00 0.11380645E+04</pdfrwt>
<totfact> 0.26270032E+01</totfact>
</mgrwt>
</event>
<event>
 6    1  0.1568961E-005  0.2589579E+04  0.7818608E-02  0.8371750E-01
          1   -1    0    0  501    0  0.00000000000E+00  0.00000000000E+00  0.85740803901E+03  0.85740803901E+03  0.00000000000E+00 0. -1.
         -1   -1    0    0    0  501 -0.00000000000E+00 -0.00000000000E+00 -0.19552875934E+04  0.19552875934E+04  0.00000000000E+00 0.  1.
         23    2    1    2    0    0 -0.11315486759E+04  0.53463638661E+03 -0.19576455712E+03  0.12699545848E+04  0.90677526128E+02 0.  0.
         13    1    3    3    0    0 -0.28811064826E+03  0.16083836243E+03 -0.18214201113E+02  0.33046706582E+03  0.00000000000E+00 0. -1.
        -13    1    3    3    0    0 -0.84343802763E+03  0.37379802418E+03 -0.17755035601E+03  0.93948751894E+03  0.00000000000E+00 0.  1.
         22    1    1    2    0    0  0.11315486759E+04 -0.53463638661E+03 -0.90211499725E+03  0.15427410476E+04  0.00000000000E+00 0.  1.
<mgrwt>
<rscale>  0 0.25895786E+04</rscale>
<asrwt>0</asrwt>
<pdfrwt beam="1">  1        1 0.13190893E+00 0.25895786E+04</pdfrwt>
<pdfrwt beam="2">  1       -1 0.30081347E+00 0.25895786E+04</pdfrwt>
<totfact> 0.56782027E-01</totfact>
</mgrwt>
</event>
<event>
 6    1  0.1568961E-005  0.3262894E+04  0.7818608E-02  0.8172402E-01
         -2   -1    0    0    0  501 -0.00000000000E+00  0.00000000000E+00  0.88641583047E+03  0.88641583047E+03  0.00000000000E+00 0.  1.
          2   -1    0    0  501    0  0.00000000000E+00 -0.00000000000E+00 -0.30026765765E+04  0.30026765765E+04  0.00000000000E+00 0. -1.
         23    2    1    2    0    0 -0.25890396782E+03 -0.51440559819E+03  0.75883315552E+03  0.95689027774E+03  0.90370690572E+02 0.  0.
         13    1    3    3    0    0 -0.68964226967E+02 -0.19823512350E+03  0.22150136539E+03  0.30514928094E+03  0.00000000000E+00 0. -1.
        -13    1    3    3    0    0 -0.18993974085E+03 -0.31617047469E+03  0.53733179013E+03  0.65174099680E+03  0.00000000000E+00 0.  1.
         22    1    1    2    0    0  0.25890396782E+03  0.51440559819E+03 -0.28750939016E+04  0.29322021292E+04  0.00000000000E+00 0. -1.
<mgrwt>
<rscale>  0 0.32628945E+04</rscale>
<asrwt>0</asrwt>
<pdfrwt beam="1">  1        2 0.46195024E+00 0.32628945E+04</pdfrwt>
<pdfrwt beam="2">  1       -2 0.13637167E+00 0.32628945E+04</pdfrwt>
<totfact> 0.55816781E-01</totfact>
</mgrwt>
</event>
<event>
 6    1  0.1568961E-005  0.2041702E+04  0.7818608E-02  0.8587368E-01
         -2   -1    0    0    0  501 -0.00000000000E+00  0.00000000000E+00  0.65580661443E+03  0.65580661443E+03  0.00000000000E+00 0.  1.
          2   -1    0    0  501    0  0.00000000000E+00 -0.00000000000E+00 -0.15890908792E+04  0.15890908792E+04  0.00000000000E+00 0. -1.
         23    2    1    2    0    0 -0.65868355972E+03 -0.25151883965E+03 -0.12761274332E+04  0.14608903529E+04  0.92593946599E+02 0.  0.
         11    1    3    3    0    0 -0.45016285409E+03 -0.12571755644E+03 -0.85561178314E+03  0.97494770252E+03  0.00000000000E+00 0.  1.
        -11    1    3    3    0    0 -0.20852070563E+03 -0.12580128321E+03 -0.42051565008E+03  0.48594265042E+03  0.00000000000E+00 0. -1.
         22    1    1    2    0    0  0.65868355972E+03  0.25151883965E+03  0.34284316843E+03  0.78400714071E+03  0.00000000000E+00 0.  1.
<mgrwt>
<rscale>  0 0.20417016E+04</rscale>
<asrwt>0</asrwt>
<pdfrwt beam="1">  1        2 0.24447552E+00 0.20417016E+04</pdfrwt>
<pdfrwt beam="2">  1       -2 0.10089333E+00 0.20417016E+04</pdfrwt>
<totfact> 0.84697642E+00</totfact>
</mgrwt>
</event>
<event>
 6    1  0.1568961E-005  0.3970379E+04  0.7818608E-02  0.8010549E-01
          2   -1    0    0  501    0  0.00000000000E+00  0.00000000000E+00  0.20858117351E+04  0.20858117351E+04  0.00000000000E+00 0. -1.
         -2   -1    0    0    0  501 -0.00000000000E+00 -0.00000000000E+00 -0.18894215897E+04  0.18894215897E+04  0.00000000000E+00 0.  1.
         23    2    1    2    0    0 -0.62721529327E+03  0.18731226935E+04  0.28517107711E+03  0.19978942788E+04  0.90947000860E+02 0.  0.
         13    1    3    3    0    0 -0.27400601278E+03  0.83848263152E+03  0.17259585487E+03  0.89884467374E+03  0.00000000000E+00 0. -1.
        -13    1    3    3    0    0 -0.35320928049E+03  0.10346400620E+04  0.11257522224E+03  0.10990496050E+04  0.00000000000E+00 0.  1.
         22    1    1    2    0    0  0.62721529327E+03 -0.18731226935E+04 -0.88780931712E+02  0.19773390460E+04  0.00000000000E+00 0.  1.
<mgrwt>
<rscale>  0 0.39703792E+04</rscale>
<asrwt>0</asrwt>
<pdfrwt beam="1">  1        2 0.32089411E+00 0.39703792E+04</pdfrwt>
<pdfrwt beam="2">  1       -2 0.29068024E+00 0.39703792E+04</pdfrwt>
<totfact> 0.17150485E-01</totfact>
</mgrwt>
</event>
<event>
 6    1  0.1568961E-005  0.3403615E+04  0.7818608E-02  0.8137020E-01
          2   -1    0    0  501    0  0.00000000000E+00  0.00000000000E+00  0.15386407497E+04  0.15386407497E+04  0.00000000000E+00 0. -1.
         -2   -1    0    0    0  501 -0.00000000000E+00 -0.00000000000E+00 -0.18822775288E+04  0.18822775288E+04  0.00000000000E+00 0.  1.
         23    2    1    2    0    0  0.13519401046E+04 -0.89768772348E+03 -0.68323281962E+03  0.17629343322E+04  0.86862411981E+02 0.  0.
         13    1    3    3    0    0  0.83995576710E+03 -0.54765365318E+03 -0.46678826123E+03  0.11060476913E+04  0.00000000000E+00 0. -1.
        -13    1    3    3    0    0  0.51198433751E+03 -0.35003407030E+03 -0.21644455839E+03  0.65688664097E+03  0.00000000000E+00 0.  1.
         22    1    1    2    0    0 -0.13519401046E+04  0.89768772348E+03  0.33959604050E+03  0.16579839463E+04  0.00000000000E+00 0. -1.
<mgrwt>
<rscale>  0 0.34036151E+04</rscale>
<asrwt>0</asrwt>
<pdfrwt beam="1">  1        2 0.23671396E+00 0.34036151E+04</pdfrwt>
<pdfrwt beam="2">  1       -2 0.28958116E+00 0.34036151E+04</pdfrwt>
<totfact> 0.36797540E-01</totfact>
</mgrwt>
</event>
<event>
 6    1  0.1568961E-005  0.2964219E+04  0.7818608E-02  0.8254023E-01
         -2   -1    0    0    0  501 -0.00000000000E+00  0.00000000000E+00  0.11207109732E+04  0.11207109732E+04  0.00000000000E+00 0. -1.
          2   -1    0    0  501    0  0.00000000000E+00 -0.00000000000E+00 -0.19600497930E+04  0.19600497930E+04  0.00000000000E+00 0.  1.
         23    2    1    2    0    0  0.50355007819E+03 -0.48970923537E+03 -0.17748595837E+04  0.19108988444E+04  0.89610462313E+02 0.  0.
         11    1    3    3    0    0  0.22912000076E+03 -0.18030308690E+03 -0.82126722951E+03  0.87148438894E+03  0.00000000000E+00 0. -1.
        -11    1    3    3    0    0  0.27443007743E+03 -0.30940614847E+03 -0.95359235422E+03  0.10394144554E+04  0.00000000000E+00 0.  1.
         22    1    1    2    0    0 -0.50355007819E+03  0.48970923537E+03  0.93552076392E+03  0.11698619218E+04  0.00000000000E+00 0. -1.
<mgrwt>
<rscale>  0 0.29642195E+04</rscale>
<asrwt>0</asrwt>
<pdfrwt beam="1">  1        2 0.30154612E+00 0.29642195E+04</pdfrwt>
<pdfrwt beam="2">  1       -2 0.17241707E+00 0.29642195E+04</pdfrwt>
<totfact> 0.12370592E+00</totfact>
</mgrwt>
</event>
<event>
 6    1  0.1568961E-005  0.8744583E+03  0.7818608E-02  0.9458085E-01
          1   -1    0    0  501    0  0.00000000000E+00  0.00000000000E+00  0.22590875552E+03  0.22590875552E+03  0.00000000000E+00 0. -1.
         -1   -1    0    0    0  501 -0.00000000000E+00 -0.00000000000E+00 -0.84622372157E+03  0.84622372157E+03  0.00000000000E+00 0.  1.
         23    2    1    2    0    0 -0.17760047259E+03  0.14903993766E+03  0.13333177286E+03  0.28362868003E+03  0.94408874576E+02 0.  0.
         11    1    3    3    0    0 -0.51996537626E+02  0.10028497300E+03  0.40474824994E+02  0.11999552989E+03  0.00000000000E+00 0. -1.
        -11    1    3    3    0    0 -0.12560393497E+03  0.48754964658E+02  0.92856947871E+02  0.16363315014E+03  0.00000000000E+00 0.  1.
         22    1    1    2    0    0  0.17760047259E+03 -0.14903993766E+03 -0.75364673892E+03  0.78850379705E+03  0.00000000000E+00 0.  1.
<mgrwt>
<rscale>  0 0.87445834E+03</rscale>
<asrwt>0</asrwt>
<pdfrwt beam="1">  1        1 0.34755194E-01 0.87445834E+03</pdfrwt>
<pdfrwt beam="2">  1       -1 0.13018826E+00 0.87445834E+03</pdfrwt>
<totfact> 0.64756315E+01</totfact>
</mgrwt>
</event>
<event>
 6    1  0.1568961E-005  0.6257742E+03  0.7818608E-02  0.9853330E-01
         -1   -1    0    0    0  501 -0.00000000000E+00  0.00000000000E+00  0.13501658523E+03  0.13501658523E+03  0.00000000000E+00 0.  1.
          1   -1    0    0  501    0  0.00000000000E+00 -0.00000000000E+00 -0.72508386669E+03  0.72508386669E+03  0.00000000000E+00 0. -1.
         23    2    1    2    0    0 -0.49797972468E+02 -0.33326699757E-01 -0.71645826771E+03  0.72425303538E+03  0.93542347145E+02 0.  0.
         11    1    3    3    0    0 -0.63588709646E+02 -0.29463458980E+02 -0.39628253553E+03  0.40243194130E+03  0.00000000000E+00 0.  1.
        -11    1    3    3    0    0  0.13790737178E+02  0.29430132280E+02 -0.32017573218E+03  0.32182109408E+03  0.00000000000E+00 0. -1.
         22    1    1    2    0    0  0.49797972468E+02  0.33326699757E-01  0.12639098626E+03  0.13584741654E+03  0.00000000000E+00 0.  1.
<mgrwt>
<rscale>  0 0.62577423E+03</rscale>
<asrwt>0</asrwt>
<pdfrwt beam="1">  1        1 0.11155136E+00 0.62577423E+03</pdfrwt>
<pdfrwt beam="2">  1       -1 0.20771782E-01 0.62577423E+03</pdfrwt>
<totfact> 0.50068488E+02</totfact>
</mgrwt>
</event>
<event>
 6    1  0.1568961E-005  0.2099929E+04  0.7818608E-02  0.8561275E-01
          1   -1    0    0  501    0  0.00000000000E+00  0.00000000000E+00  0.17920806209E+04  0.17920806209E+04  0.00000000000E+00 0. -1.
         -1   -1    0    0    0  501 -0.00000000000E+00 -0.00000000000E+00 -0.61516498952E+03  0.61516498952E+03  0.00000000000E+00 0.  1.
         23    2    1    2    0    0  0.85039702563E+03 -0.71770500727E+02 -0.10763291807E+03  0.86504228989E+03  0.91581724611E+02 0.  0.
         13    1    3    3    0    0  0.31752446245E+03  0.15576264094E+02 -0.53120125345E+02  0.32231374773E+03  0.00000000000E+00 0. -1.
        -13    1    3    3    0    0  0.53287256318E+03 -0.87346764822E+02 -0.54512792721E+02  0.54272854217E+03  0.00000000000E+00 0.  1.
         22    1    1    2    0    0 -0.85039702563E+03  0.71770500727E+02  0.12845485494E+04  0.15422033205E+04  0.00000000000E+00 0. -1.
<mgrwt>
<rscale>  0 0.20999288E+04</rscale>
<asrwt>0</asrwt>
<pdfrwt beam="1">  1        1 0.27570471E+00 0.20999288E+04</pdfrwt>
<pdfrwt beam="2">  1       -1 0.94640769E-01 0.20999288E+04</pdfrwt>
<totfact> 0.40962397E+00</totfact>
</mgrwt>
</event>
<event>
 6    1  0.1568961E-005  0.1857960E+04  0.7818608E-02  0.8676070E-01
          2   -1    0    0  501    0  0.00000000000E+00  0.00000000000E+00  0.31215888219E+04  0.31215888219E+04  0.00000000000E+00 0. -1.
         -2   -1    0    0    0  501 -0.00000000000E+00 -0.00000000000E+00 -0.27646296512E+03  0.27646296512E+03  0.00000000000E+00 0.  1.
         23    2    1    2    0    0 -0.48089257306E+03 -0.40083985851E+03  0.18052510884E+03  0.66089497658E+03  0.11073660710E+03 0.  0.
         13    1    3    3    0    0 -0.27626691140E+03 -0.29872858340E+03  0.12310239091E+03  0.42510748232E+03  0.00000000000E+00 0. -1.
        -13    1    3    3    0    0 -0.20462566167E+03 -0.10211127510E+03  0.57422717934E+02  0.23578749426E+03  0.00000000000E+00 0.  1.
         22    1    1    2    0    0  0.48089257306E+03  0.40083985851E+03  0.26646007479E+04  0.27371568104E+04  0.00000000000E+00 0. -1.
<mgrwt>
<rscale>  0 0.18579599E+04</rscale>
<asrwt>0</asrwt>
<pdfrwt beam="1">  1        2 0.48024441E+00 0.18579599E+04</pdfrwt>
<pdfrwt beam="2">  1       -2 0.42532766E-01 0.18579599E+04</pdfrwt>
<totfact> 0.72077708E+00</totfact>
</mgrwt>
</event>
<event>
 6    1  0.1568961E-005  0.2300507E+04  0.7818608E-02  0.8477721E-01
         -2   -1    0    0    0  501 -0.00000000000E+00  0.00000000000E+00  0.89322729817E+03  0.89322729817E+03  0.00000000000E+00 0.  1.
          2   -1    0    0  501    0  0.00000000000E+00 -0.00000000000E+00 -0.14812394626E+04  0.14812394626E+04  0.00000000000E+00 0. -1.
         23    2    1    2    0    0 -0.19646771017E+03 -0.29867149859E+03  0.83204823314E+03  0.91009803741E+03  0.90387776917E+02 0.  0.
         11    1    3    3    0    0 -0.13356824539E+03 -0.26548303571E+03  0.65324536225E+03  0.71767069170E+03  0.00000000000E+00 0.  1.
        -11    1    3    3    0    0 -0.62899464778E+02 -0.33188462882E+02  0.17880287089E+03  0.19242734571E+03  0.00000000000E+00 0. -1.
         22    1    1    2    0    0  0.19646771017E+03  0.29867149859E+03 -0.14200603976E+04  0.14643687234E+04  0.00000000000E+00 0. -1.
<mgrwt>
<rscale>  0 0.23005074E+04</rscale>
<asrwt>0</asrwt>
<pdfrwt beam="1">  1        2 0.22788299E+00 0.23005074E+04</pdfrwt>
<pdfrwt beam="2">  1       -2 0.13741958E+00 0.23005074E+04</pdfrwt>
<totfact> 0.44456676E+00</totfact>
</mgrwt>
</event>
<event>
 6    1  0.1568961E-005  0.2074028E+04  0.7818608E-02  0.8572772E-01
          1   -1    0    0  501    0  0.00000000000E+00  0.00000000000E+00  0.34794539325E+04  0.34794539325E+04  0.00000000000E+00 0. -1.
         -1   -1    0    0    0  501 -0.00000000000E+00 -0.00000000000E+00 -0.30907079945E+03  0.30907079945E+03  0.00000000000E+00 0.  1.
         23    2    1    2    0    0  0.71209819402E+02  0.82122204538E+03  0.27315562209E+04  0.28546909432E+04  0.91566954209E+02 0.  0.
         11    1    3    3    0    0  0.93186628969E+01  0.23847200230E+03  0.65929549596E+03  0.70116066943E+03  0.00000000000E+00 0.  1.
        -11    1    3    3    0    0  0.61891156505E+02  0.58275004308E+03  0.20722607249E+04  0.21535302737E+04  0.00000000000E+00 0. -1.
         22    1    1    2    0    0 -0.71209819402E+02 -0.82122204538E+03  0.43882691219E+03  0.93383378877E+03  0.00000000000E+00 0.  1.
<mgrwt>
<rscale>  0 0.20740276E+04</rscale>
<asrwt>0</asrwt>
<pdfrwt beam="1">  1        1 0.53530058E+00 0.20740276E+04</pdfrwt>
<pdfrwt beam="2">  1       -1 0.47549356E-01 0.20740276E+04</pdfrwt>
<totfact> 0.10595450E+00</totfact>
</mgrwt>
</event>
<event>
 6    1  0.1568961E-005  0.3928569E+04  0.7818608E-02  0.8019114E-01
          2   -1    0    0  501    0  0.00000000000E+00  0.00000000000E+00  0.25862944281E+04  0.25862944281E+04  0.00000000000E+00 0. -1.
         -2   -1    0    0    0  501 -0.00000000000E+00 -0.00000000000E+00 -0.14918693712E+04  0.14918693712E+04  0.00000000000E+00 0.  1.
         23    2    1    2    0    0 -0.63141398584E+03 -0.84443744629E+03  0.22666301069E+04  0.25015145353E+04  0.90579835837E+02 0.  0.
         11    1    3    3    0    0 -0.33919208590E+03 -0.39503560838E+03  0.10491966934E+04  0.11712890781E+04  0.00000000000E+00 0. -1.
        -11    1    3    3    0    0 -0.29222189994E+03 -0.44940183792E+03  0.12174334135E+04  0.13302254572E+04  0.00000000000E+00 0.  1.
         22    1    1    2    0    0  0.63141398584E+03  0.84443744629E+03 -0.11722050500E+04  0.15766492639E+04  0.00000000000E+00 0.  1.
<mgrwt>
<rscale>  0 0.39285689E+04</rscale>
<asrwt>0</asrwt>
<pdfrwt beam="1">  1        2 0.39789145E+00 0.39285689E+04</pdfrwt>
<pdfrwt beam="2">  1       -2 0.22951837E+00 0.39285689E+04</pdfrwt>
<totfact> 0.21176009E-01</totfact>
</mgrwt>
</event>
<event>
 6    1  0.1568961E-005  0.1581567E+04  0.7818608E-02  0.8831953E-01
          2   -1    0    0  501    0  0.00000000000E+00  0.00000000000E+00  0.38961433723E+04  0.38961433723E+04  0.00000000000E+00 0. -1.
         -2   -1    0    0    0  501 -0.00000000000E+00 -0.00000000000E+00 -0.16050201610E+03  0.16050201610E+03  0.00000000000E+00 0.  1.
         23    2    1    2    0    0 -0.67582093236E+03  0.24162226791E+03  0.27093479634E+04  0.28042902546E+04  0.91445024256E+02 0.  0.
         11    1    3    3    0    0 -0.47435118753E+03  0.13953450904E+03  0.17328101216E+04  0.18019738749E+04  0.00000000000E+00 0. -1.
        -11    1    3    3    0    0 -0.20146974483E+03  0.10208775888E+03  0.97653784180E+03  0.10023163797E+04  0.00000000000E+00 0.  1.
         22    1    1    2    0    0  0.67582093236E+03 -0.24162226791E+03  0.10262933928E+04  0.12523551338E+04  0.00000000000E+00 0.  1.
<mgrwt>
<rscale>  0 0.15815674E+04</rscale>
<asrwt>0</asrwt>
<pdfrwt beam="1">  1        2 0.59940660E+00 0.15815674E+04</pdfrwt>
<pdfrwt beam="2">  1       -2 0.24692621E-01 0.15815674E+04</pdfrwt>
<totfact> 0.59429197E+00</totfact>
</mgrwt>
</event>
<event>
 6    1  0.1568961E-005  0.2423062E+04  0.7818608E-02  0.8430919E-01
         -2   -1    0    0    0  501 -0.00000000000E+00  0.00000000000E+00  0.48078504838E+03  0.48078504838E+03  0.00000000000E+00 0.  1.
          2   -1    0    0  501    0  0.00000000000E+00 -0.00000000000E+00 -0.30529400536E+04  0.30529400536E+04  0.00000000000E+00 0. -1.
         23    2    1    2    0    0  0.50626021240E+03 -0.30556378929E+03 -0.28270364891E+04  0.28898049185E+04  0.95752411246E+02 0.  0.
         11    1    3    3    0    0  0.11992908251E+03 -0.85002901965E+02 -0.91251182759E+03  0.92427610251E+03  0.00000000000E+00 0. -1.
        -11    1    3    3    0    0  0.38633112990E+03 -0.22056088732E+03 -0.19145246615E+04  0.19655288160E+04  0.00000000000E+00 0.  1.
         22    1    1    2    0    0 -0.50626021240E+03  0.30556378929E+03  0.25488148382E+03  0.64392018355E+03  0.00000000000E+00 0.  1.
<mgrwt>
<rscale>  0 0.24230625E+04</rscale>
<asrwt>0</asrwt>
<pdfrwt beam="1">  1        2 0.46968308E+00 0.24230625E+04</pdfrwt>
<pdfrwt beam="2">  1       -2 0.73966931E-01 0.24230625E+04</pdfrwt>
<totfact> 0.23840958E+00</totfact>
</mgrwt>
</event>
<event>
 6    1  0.1568961E-005  0.1415113E+04  0.7818608E-02  0.8942951E-01
          2   -1    0    0  501    0  0.00000000000E+00  0.00000000000E+00  0.44585037488E+03  0.44585037488E+03  0.00000000000E+00 0. -1.
         -2   -1    0    0    0  501 -0.00000000000E+00 -0.00000000000E+00 -0.11228800230E+04  0.11228800230E+04  0.00000000000E+00 0.  1.
         23    2    1    2    0    0  0.46129205272E+03 -0.22624411510E+03 -0.87449633211E+03  0.10183034283E+04  0.90671272601E+02 0.  0.
         13    1    3    3    0    0  0.25900552279E+03 -0.12360135213E+03 -0.39920384778E+03  0.49165523201E+03  0.00000000000E+00 0.  1.
        -13    1    3    3    0    0  0.20228652993E+03 -0.10264276297E+03 -0.47529248434E+03  0.52664819628E+03  0.00000000000E+00 0. -1.
         22    1    1    2    0    0 -0.46129205272E+03  0.22624411510E+03  0.19746668402E+03  0.55042696956E+03  0.00000000000E+00 0. -1.
<mgrwt>
<rscale>  0 0.14151134E+04</rscale>
<asrwt>0</asrwt>
<pdfrwt beam="1">  1        2 0.68592366E-01 0.14151134E+04</pdfrwt>
<pdfrwt beam="2">  1       -2 0.17275077E+00 0.14151134E+04</pdfrwt>
<totfact> 0.13909961E+01</totfact>
</mgrwt>
</event>
<event>
 6    1  0.1568961E-005  0.3438126E+04  0.7818608E-02  0.8128612E-01
          1   -1    0    0  501    0  0.00000000000E+00  0.00000000000E+00  0.36815802271E+04  0.36815802271E+04  0.00000000000E+00 0. -1.
         -1   -1    0    0    0  501 -0.00000000000E+00 -0.00000000000E+00 -0.80269267242E+03  0.80269267242E+03  0.00000000000E+00 0.  1.
         23    2    1    2    0    0 -0.14845599855E+04  0.16230939073E+03  0.33305946407E+03  0.15327473015E+04  0.90127658447E+02 0.  0.
         11    1    3    3    0    0 -0.12824999046E+04  0.17108133624E+03  0.28587210732E+03  0.13250651647E+04  0.00000000000E+00 0. -1.
        -11    1    3    3    0    0 -0.20206008086E+03 -0.87719455101E+01  0.47187356748E+02  0.20768213679E+03  0.00000000000E+00 0.  1.
         22    1    1    2    0    0  0.14845599855E+04 -0.16230939073E+03  0.25458280906E+04  0.29515255980E+04  0.00000000000E+00 0. -1.
<mgrwt>
<rscale>  0 0.34381259E+04</rscale>
<asrwt>0</asrwt>
<pdfrwt beam="1">  1        1 0.56639695E+00 0.34381259E+04</pdfrwt>
<pdfrwt beam="2">  1       -1 0.12349118E+00 0.34381259E+04</pdfrwt>
<totfact> 0.84343110E-02</totfact>
</mgrwt>
</event>
<event>
 6    1  0.1568961E-005  0.1074948E+04  0.7818608E-02  0.9229959E-01
         -2   -1    0    0    0  501 -0.00000000000E+00  0.00000000000E+00  0.10962843101E+03  0.10962843101E+03  0.00000000000E+00 0. -1.
          2   -1    0    0  501    0  0.00000000000E+00 -0.00000000000E+00 -0.26350680504E+04  0.26350680504E+04  0.00000000000E+00 0.  1.
         23    2    1    2    0    0 -0.34007803470E+03 -0.12106300166E+03 -0.22750129327E+04  0.23053528283E+04  0.93051057377E+02 0.  0.
         13    1    3    3    0    0 -0.12429841213E+03 -0.60697739625E+02 -0.62014952230E+03  0.63538944031E+03  0.00000000000E+00 0. -1.
        -13    1    3    3    0    0 -0.21577962257E+03 -0.60365262037E+02 -0.16548634104E+04  0.16699633880E+04  0.00000000000E+00 0.  1.
         22    1    1    2    0    0  0.34007803470E+03  0.12106300166E+03 -0.25042668671E+03  0.43934365305E+03  0.00000000000E+00 0. -1.
<mgrwt>
<rscale>  0 0.10749481E+04</rscale>
<asrwt>0</asrwt>
<pdfrwt beam="1">  1        2 0.40539504E+00 0.10749481E+04</pdfrwt>
<pdfrwt beam="2">  1       -2 0.16865914E-01 0.10749481E+04</pdfrwt>
<totfact> 0.83952057E+01</totfact>
</mgrwt>
</event>
<event>
 6    1  0.1568961E-005  0.1135508E+04  0.7818608E-02  0.9171258E-01
          2   -1    0    0  501    0  0.00000000000E+00  0.00000000000E+00  0.16916676206E+03  0.16916676206E+03  0.00000000000E+00 0. -1.
         -2   -1    0    0    0  501 -0.00000000000E+00 -0.00000000000E+00 -0.19054856414E+04  0.19054856414E+04  0.00000000000E+00 0.  1.
         23    2    1    2    0    0 -0.21205770854E+03  0.51190153343E+03 -0.67835078982E+03  0.88037097511E+03  0.88778421260E+02 0.  0.
         13    1    3    3    0    0 -0.11528894189E+03  0.17230554535E+03 -0.22961974407E+03  0.30936381163E+03  0.00000000000E+00 0. -1.
        -13    1    3    3    0    0 -0.96768766648E+02  0.33959598809E+03 -0.44873104575E+03  0.57100716348E+03  0.00000000000E+00 0.  1.
         22    1    1    2    0    0  0.21205770854E+03 -0.51190153343E+03 -0.10579680895E+04  0.11942814284E+04  0.00000000000E+00 0. -1.
<mgrwt>
<rscale>  0 0.11355084E+04</rscale>
<asrwt>0</asrwt>
<pdfrwt beam="1">  1        2 0.26025656E-01 0.11355084E+04</pdfrwt>
<pdfrwt beam="2">  1       -2 0.29315164E+00 0.11355084E+04</pdfrwt>
<totfact> 0.73307155E+00</totfact>
</mgrwt>
</event>
<event>
 6    1  0.1568961E-005  0.1725622E+04  0.7818608E-02  0.8746885E-01
          2   -1    0    0  501    0  0.00000000000E+00  0.00000000000E+00  0.24969907563E+04  0.24969907563E+04  0.00000000000E+00 0. -1.
         -2   -1    0    0    0  501 -0.00000000000E+00 -0.00000000000E+00 -0.29813604042E+03  0.29813604042E+03  0.00000000000E+00 0.  1.
         23    2    1    2    0    0 -0.74006856755E+03  0.22366248520E+03  0.17140923903E+04  0.18825913704E+04  0.91165527816E+02 0.  0.
         13    1    3    3    0    0 -0.60413917934E+03  0.16347572436E+03  0.14546562356E+04  0.15835824021E+04  0.00000000000E+00 0. -1.
        -13    1    3    3    0    0 -0.13592938821E+03  0.60186760836E+02  0.25943615471E+03  0.29900896831E+03  0.00000000000E+00 0.  1.
         22    1    1    2    0    0  0.74006856755E+03 -0.22366248520E+03  0.48476232555E+03  0.91253542629E+03  0.00000000000E+00 0. -1.
<mgrwt>
<rscale>  0 0.17256221E+04</rscale>
<asrwt>0</asrwt>
<pdfrwt beam="1">  1        2 0.38415241E+00 0.17256221E+04</pdfrwt>
<pdfrwt beam="2">  1       -2 0.45867085E-01 0.17256221E+04</pdfrwt>
<totfact> 0.14982526E+01</totfact>
</mgrwt>
</event>
<event>
 6    1  0.1568961E-005  0.1429157E+04  0.7818608E-02  0.8932980E-01
         -2   -1    0    0    0  501 -0.00000000000E+00  0.00000000000E+00  0.12028619847E+04  0.12028619847E+04  0.00000000000E+00 0.  1.
          2   -1    0    0  501    0  0.00000000000E+00 -0.00000000000E+00 -0.42450601818E+03  0.42450601818E+03  0.00000000000E+00 0. -1.
         23    2    1    2    0    0  0.56656623086E+03  0.18717824471E+03 -0.50361270069E+02  0.60618964065E+03  0.94321968052E+02 0.  0.
         13    1    3    3    0    0  0.52502761474E+03  0.16092905724E+03 -0.22269373939E+02  0.54958901256E+03  0.00000000000E+00 0.  1.
        -13    1    3    3    0    0  0.41538616120E+02  0.26249187473E+02 -0.28091896130E+02  0.56600628091E+02  0.00000000000E+00 0. -1.
         22    1    1    2    0    0 -0.56656623086E+03 -0.18717824471E+03  0.82871723656E+03  0.10211783622E+04  0.00000000000E+00 0.  1.
<mgrwt>
<rscale>  0 0.14291566E+04</rscale>
<asrwt>0</asrwt>
<pdfrwt beam="1">  1        2 0.65308619E-01 0.14291566E+04</pdfrwt>
<pdfrwt beam="2">  1       -2 0.18505569E+00 0.14291566E+04</pdfrwt>
<totfact> 0.12072631E+01</totfact>
</mgrwt>
</event>
<event>
 6    1  0.1568961E-005  0.1185436E+04  0.7818608E-02  0.9125701E-01
         -2   -1    0    0    0  501 -0.00000000000E+00  0.00000000000E+00  0.33804750510E+03  0.33804750510E+03  0.00000000000E+00 0.  1.
          2   -1    0    0  501    0  0.00000000000E+00 -0.00000000000E+00 -0.10392455611E+04  0.10392455611E+04  0.00000000000E+00 0. -1.
         23    2    1    2    0    0 -0.36165742378E+03 -0.13654886546E+03 -0.86930191202E+03  0.95574758672E+03  0.91246646195E+02 0.  0.
         11    1    3    3    0    0 -0.28891234103E+03 -0.14273169108E+03 -0.74284136689E+03  0.80972586275E+03  0.00000000000E+00 0. -1.
        -11    1    3    3    0    0 -0.72745082754E+02  0.61828256149E+01 -0.12646054512E+03  0.14602172397E+03  0.00000000000E+00 0.  1.
         22    1    1    2    0    0  0.36165742378E+03  0.13654886546E+03  0.16810385604E+03  0.42154547946E+03  0.00000000000E+00 0. -1.
<mgrwt>
<rscale>  0 0.11854356E+04</rscale>
<asrwt>0</asrwt>
<pdfrwt beam="1">  1        2 0.15988393E+00 0.11854356E+04</pdfrwt>
<pdfrwt beam="2">  1       -2 0.52007309E-01 0.11854356E+04</pdfrwt>
<totfact> 0.81965811E+01</totfact>
</mgrwt>
</event>
<event>
 6    1  0.1568961E-005  0.2716706E+04  0.7818608E-02  0.8329605E-01
         -2   -1    0    0    0  501 -0.00000000000E+00  0.00000000000E+00  0.41349302894E+03  0.41349302894E+03  0.00000000000E+00 0.  1.
          2   -1    0    0  501    0  0.00000000000E+00 -0.00000000000E+00 -0.44622837148E+04  0.44622837148E+04  0.00000000000E+00 0. -1.
         23    2    1    2    0    0  0.28526396845E+03  0.26306415700E+03 -0.43600074308E+04  0.43783492166E+04  0.98482403531E+02 0.  0.
         11    1    3    3    0    0  0.26192238954E+03  0.19011537207E+03 -0.34850403650E+04  0.35000362196E+04  0.00000000000E+00 0.  1.
        -11    1    3    3    0    0  0.23341578907E+02  0.72948784922E+02 -0.87496706578E+03  0.87831299702E+03  0.00000000000E+00 0. -1.
         22    1    1    2    0    0 -0.28526396845E+03 -0.26306415700E+03  0.31121674494E+03  0.49742752711E+03  0.00000000000E+00 0.  1.
<mgrwt>
<rscale>  0 0.27167062E+04</rscale>
<asrwt>0</asrwt>
<pdfrwt beam="1">  1        2 0.68650518E+00 0.27167062E+04</pdfrwt>
<pdfrwt beam="2">  1       -2 0.63614313E-01 0.27167062E+04</pdfrwt>
<totfact> 0.26890928E-01</totfact>
</mgrwt>
</event>
<event>
 6    1  0.1568961E-005  0.3261062E+04  0.7818608E-02  0.8172874E-01
          1   -1    0    0  501    0  0.00000000000E+00  0.00000000000E+00  0.16517491336E+04  0.16517491336E+04  0.00000000000E+00 0. -1.
         -1   -1    0    0    0  501 -0.00000000000E+00 -0.00000000000E+00 -0.16095857592E+04  0.16095857592E+04  0.00000000000E+00 0.  1.
         23    2    1    2    0    0  0.91308713472E+03 -0.61131179831E+03  0.12241002980E+04  0.16475179511E+04  0.91997985143E+02 0.  0.
         11    1    3    3    0    0  0.63767565259E+03 -0.42973194925E+03  0.79196959862E+03  0.11038639550E+04  0.00000000000E+00 0. -1.
        -11    1    3    3    0    0  0.27541148213E+03 -0.18157984905E+03  0.43213069935E+03  0.54365399603E+03  0.00000000000E+00 0.  1.
         22    1    1    2    0    0 -0.91308713472E+03  0.61131179831E+03 -0.11819369235E+04  0.16138169417E+04  0.00000000000E+00 0.  1.
<mgrwt>
<rscale>  0 0.32610623E+04</rscale>
<asrwt>0</asrwt>
<pdfrwt beam="1">  1        1 0.25411525E+00 0.32610623E+04</pdfrwt>
<pdfrwt beam="2">  1       -1 0.24762858E+00 0.32610623E+04</pdfrwt>
<totfact> 0.30925624E-01</totfact>
</mgrwt>
</event>
<event>
 6    1  0.1568961E-005  0.8705498E+03  0.7818608E-02  0.9463163E-01
          2   -1    0    0  501    0  0.00000000000E+00  0.00000000000E+00  0.36413983814E+04  0.36413983814E+04  0.00000000000E+00 0. -1.
         -2   -1    0    0    0  501 -0.00000000000E+00 -0.00000000000E+00 -0.52030627337E+02  0.52030627337E+02  0.00000000000E+00 0.  1.
         23    2    1    2    0    0 -0.41079008295E+03  0.85358801245E+02  0.22269502593E+04  0.22678708558E+04  0.88860251375E+02 0.  0.
         11    1    3    3    0    0 -0.28427022194E+03  0.20342913786E+02  0.15757363946E+04  0.16013021509E+04  0.00000000000E+00 0.  1.
        -11    1    3    3    0    0 -0.12651986101E+03  0.65015887459E+02  0.65121386466E+03  0.66656870492E+03  0.00000000000E+00 0. -1.
         22    1    1    2    0    0  0.41079008295E+03 -0.85358801245E+02  0.13624174948E+04  0.14255581529E+04  0.00000000000E+00 0.  1.
<mgrwt>
<rscale>  0 0.87054981E+03</rscale>
<asrwt>0</asrwt>
<pdfrwt beam="1">  1        2 0.56021493E+00 0.87054981E+03</pdfrwt>
<pdfrwt beam="2">  1       -2 0.80047148E-02 0.87054981E+03</pdfrwt>
<totfact> 0.67437433E+01</totfact>
</mgrwt>
</event>
<event>
 6    1  0.1568961E-005  0.1370343E+04  0.7818608E-02  0.8975570E-01
          2   -1    0    0  501    0  0.00000000000E+00  0.00000000000E+00  0.34803436734E+04  0.34803436734E+04  0.00000000000E+00 0. -1.
         -2   -1    0    0    0  501 -0.00000000000E+00 -0.00000000000E+00 -0.13488898037E+03  0.13488898037E+03  0.00000000000E+00 0.  1.
         23    2    1    2    0    0  0.46788799705E+03 -0.36543983197E+03  0.25664670392E+04  0.26358005666E+04  0.90697932368E+02 0.  0.
         13    1    3    3    0    0  0.22325223508E+03 -0.12442728033E+03  0.11904563750E+04  0.12175837093E+04  0.00000000000E+00 0. -1.
        -13    1    3    3    0    0  0.24463576197E+03 -0.24101255164E+03  0.13760106642E+04  0.14182168573E+04  0.00000000000E+00 0.  1.
         22    1    1    2    0    0 -0.46788799705E+03  0.36543983197E+03  0.77898765383E+03  0.97943208718E+03  0.00000000000E+00 0.  1.
<mgrwt>
<rscale>  0 0.13703430E+04</rscale>
<asrwt>0</asrwt>
<pdfrwt beam="1">  1        2 0.53543742E+00 0.13703430E+04</pdfrwt>
<pdfrwt beam="2">  1       -2 0.20752153E-01 0.13703430E+04</pdfrwt>
<totfact> 0.16686770E+01</totfact>
</mgrwt>
</event>
<event>
 6    1  0.1568961E-005  0.2722532E+04  0.7818608E-02  0.8327731E-01
         -2   -1    0    0    0  501 -0.00000000000E+00  0.00000000000E+00  0.14927503767E+04  0.14927503767E+04  0.00000000000E+00 0.  1.
          2   -1    0    0  501    0  0.00000000000E+00 -0.00000000000E+00 -0.12413626642E+04  0.12413626642E+04  0.00000000000E+00 0. -1.
         23    2    1    2    0    0  0.15920034910E+03  0.82785308321E+03  0.11974487116E+04  0.14669441917E+04  0.85769259723E+02 0.  0.
         13    1    3    3    0    0  0.12426445220E+03  0.53422267115E+03  0.71599697098E+03  0.90193524098E+03  0.00000000000E+00 0. -1.
        -13    1    3    3    0    0  0.34935896892E+02  0.29363041206E+03  0.48145174066E+03  0.56500895069E+03  0.00000000000E+00 0.  1.
         22    1    1    2    0    0 -0.15920034910E+03 -0.82785308321E+03 -0.94606099906E+03  0.12671688492E+04  0.00000000000E+00 0. -1.
<mgrwt>
<rscale>  0 0.27225316E+04</rscale>
<asrwt>0</asrwt>
<pdfrwt beam="1">  1        2 0.19097887E+00 0.27225316E+04</pdfrwt>
<pdfrwt beam="2">  1       -2 0.22965390E+00 0.27225316E+04</pdfrwt>
<totfact> 0.13466424E+00</totfact>
</mgrwt>
</event>
<event>
 6    1  0.1568961E-005  0.2139336E+04  0.7818608E-02  0.8544111E-01
          1   -1    0    0  501    0  0.00000000000E+00  0.00000000000E+00  0.72808953711E+03  0.72808953711E+03  0.00000000000E+00 0. -1.
         -1   -1    0    0    0  501 -0.00000000000E+00 -0.00000000000E+00 -0.15714961142E+04  0.15714961142E+04  0.00000000000E+00 0.  1.
         23    2    1    2    0    0  0.99637750143E+03 -0.14399632860E+03 -0.40266697021E+02  0.10117437608E+04  0.92200664882E+02 0.  0.
         11    1    3    3    0    0  0.60196039214E+03 -0.11959167531E+03 -0.55881846712E+02  0.61626395587E+03  0.00000000000E+00 0.  1.
        -11    1    3    3    0    0  0.39441710929E+03 -0.24404653290E+02  0.15615149692E+02  0.39547980493E+03  0.00000000000E+00 0. -1.
         22    1    1    2    0    0 -0.99637750143E+03  0.14399632860E+03 -0.80313988008E+03  0.12878418905E+04  0.00000000000E+00 0. -1.
<mgrwt>
<rscale>  0 0.21393362E+04</rscale>
<asrwt>0</asrwt>
<pdfrwt beam="1">  1        1 0.11201378E+00 0.21393362E+04</pdfrwt>
<pdfrwt beam="2">  1       -1 0.24176863E+00 0.21393362E+04</pdfrwt>
<totfact> 0.18553941E+00</totfact>
</mgrwt>
</event>
<event>
 6    1  0.1568961E-005  0.1325149E+04  0.7818608E-02  0.9009856E-01
          2   -1    0    0  501    0  0.00000000000E+00  0.00000000000E+00  0.10081546785E+04  0.10081546785E+04  0.00000000000E+00 0. -1.
         -2   -1    0    0    0  501 -0.00000000000E+00 -0.00000000000E+00 -0.43545398057E+03  0.43545398057E+03  0.00000000000E+00 0.  1.
         23    2    1    2    0    0 -0.41785476810E+02  0.17658111777E+03 -0.40258339314E+03  0.45158750228E+03  0.94503791269E+02 0.  0.
         13    1    3    3    0    0  0.78075083848E+01  0.26157115003E+01 -0.90445886601E+02  0.90819918172E+02  0.00000000000E+00 0.  1.
        -13    1    3    3    0    0 -0.49592985195E+02  0.17396540627E+03 -0.31213750654E+03  0.36076758411E+03  0.00000000000E+00 0. -1.
         22    1    1    2    0    0  0.41785476810E+02 -0.17658111777E+03  0.97528409108E+03  0.99202115680E+03  0.00000000000E+00 0. -1.
<mgrwt>
<rscale>  0 0.13251490E+04</rscale>
<asrwt>0</asrwt>
<pdfrwt beam="1">  1        2 0.15510072E+00 0.13251490E+04</pdfrwt>
<pdfrwt beam="2">  1       -2 0.66992920E-01 0.13251490E+04</pdfrwt>
<totfact> 0.49815617E+01</totfact>
</mgrwt>
</event>
<event>
 6    1  0.1568961E-005  0.1558247E+04  0.7818608E-02  0.8846617E-01
          1   -1    0    0  501    0  0.00000000000E+00  0.00000000000E+00  0.17594467404E+04  0.17594467404E+04  0.00000000000E+00 0. -1.
         -1   -1    0    0    0  501 -0.00000000000E+00 -0.00000000000E+00 -0.34501387356E+03  0.34501387356E+03  0.00000000000E+00 0.  1.
         23    2    1    2    0    0 -0.14218032670E+03  0.76163442202E+03  0.78501761321E+03  0.11062292782E+04  0.84783989407E+02 0.  0.
         11    1    3    3    0    0 -0.67965881974E+02  0.20735771900E+03  0.18577218039E+03  0.28657963597E+03  0.00000000000E+00 0.  1.
        -11    1    3    3    0    0 -0.74214444726E+02  0.55427670302E+03  0.59924543281E+03  0.81964964226E+03  0.00000000000E+00 0. -1.
         22    1    1    2    0    0  0.14218032670E+03 -0.76163442202E+03  0.62941525359E+03  0.99823133569E+03  0.00000000000E+00 0.  1.
<mgrwt>
<rscale>  0 0.15582471E+04</rscale>
<asrwt>0</asrwt>
<pdfrwt beam="1">  1        1 0.27068411E+00 0.15582471E+04</pdfrwt>
<pdfrwt beam="2">  1       -1 0.53079058E-01 0.15582471E+04</pdfrwt>
<totfact> 0.14961802E+01</totfact>
</mgrwt>
</event>
<event>
 6    1  0.1568961E-005  0.3470550E+03  0.7818608E-02  0.1063830E+00
          2   -1    0    0  501    0  0.00000000000E+00  0.00000000000E+00  0.19601694921E+03  0.19601694921E+03  0.00000000000E+00 0. -1.
         -2   -1    0    0    0  501 -0.00000000000E+00 -0.00000000000E+00 -0.15361832097E+03  0.15361832097E+03  0.00000000000E+00 0.  1.
         23    2    1    2    0    0 -0.91834429809E+02 -0.12325189054E+03 -0.27445813587E+02  0.18080743753E+03  0.91178208817E+02 0.  0.
         13    1    3    3    0    0 -0.29470189185E+02 -0.30208185550E+02 -0.51153438433E+02  0.66315162583E+02  0.00000000000E+00 0.  1.
        -13    1    3    3    0    0 -0.62364240624E+02 -0.93043704995E+02  0.23707624846E+02  0.11449227495E+03  0.00000000000E+00 0. -1.
         22    1    1    2    0    0  0.91834429809E+02  0.12325189054E+03  0.69844441826E+02  0.16882783264E+03  0.00000000000E+00 0. -1.
<mgrwt>
<rscale>  0 0.34705501E+03</rscale>
<asrwt>0</asrwt>
<pdfrwt beam="1">  1        2 0.30156454E-01 0.34705501E+03</pdfrwt>
<pdfrwt beam="2">  1       -2 0.23633588E-01 0.34705501E+03</pdfrwt>
<totfact> 0.27487242E+03</totfact>
</mgrwt>
</event>
<event>
 6    1  0.1568961E-005  0.2868462E+04  0.7818608E-02  0.8282323E-01
          2   -1    0    0  501    0  0.00000000000E+00  0.00000000000E+00  0.18985208572E+04  0.18985208572E+04  0.00000000000E+00 0. -1.
         -2   -1    0    0    0  501 -0.00000000000E+00 -0.00000000000E+00 -0.10834851520E+04  0.10834851520E+04  0.00000000000E+00 0.  1.
         23    2    1    2    0    0  0.69556158439E+03  0.72656367886E+03 -0.65284058721E+03  0.12025787118E+04  0.91071558114E+02 0.  0.
         13    1    3    3    0    0  0.20843835922E+03  0.24145881225E+03 -0.25427793817E+03  0.40792913287E+03  0.00000000000E+00 0. -1.
        -13    1    3    3    0    0  0.48712322517E+03  0.48510486661E+03 -0.39856264904E+03  0.79464957894E+03  0.00000000000E+00 0.  1.
         22    1    1    2    0    0 -0.69556158439E+03 -0.72656367886E+03  0.14678762923E+04  0.17794272974E+04  0.00000000000E+00 0. -1.
<mgrwt>
<rscale>  0 0.28684624E+04</rscale>
<asrwt>0</asrwt>
<pdfrwt beam="1">  1        2 0.29208013E+00 0.28684624E+04</pdfrwt>
<pdfrwt beam="2">  1       -2 0.16669002E+00 0.28684624E+04</pdfrwt>
<totfact> 0.14819693E+00</totfact>
</mgrwt>
</event>
<event>
 6    1  0.1568961E-005  0.2996059E+04  0.7818608E-02  0.8244857E-01
         -2   -1    0    0    0  501 -0.00000000000E+00  0.00000000000E+00  0.15009301221E+04  0.15009301221E+04  0.00000000000E+00 0.  1.
          2   -1    0    0  501    0  0.00000000000E+00 -0.00000000000E+00 -0.14951340284E+04  0.14951340284E+04  0.00000000000E+00 0. -1.
         23    2    1    2    0    0  0.94657143001E+03 -0.11167297921E+04  0.31416800257E+03  0.15000106305E+04  0.90815512230E+02 0.  0.
         13    1    3    3    0    0  0.61413111317E+03 -0.77224058043E+03  0.24146458149E+03  0.10157842696E+04  0.00000000000E+00 0. -1.
        -13    1    3    3    0    0  0.33244031684E+03 -0.34448921164E+03  0.72703421083E+02  0.48422636095E+03  0.00000000000E+00 0.  1.
         22    1    1    2    0    0 -0.94657143001E+03  0.11167297921E+04 -0.30837190887E+03  0.14960535200E+04  0.00000000000E+00 0.  1.
<mgrwt>
<rscale>  0 0.29960585E+04</rscale>
<asrwt>0</asrwt>
<pdfrwt beam="1">  1        2 0.23002062E+00 0.29960585E+04</pdfrwt>
<pdfrwt beam="2">  1       -2 0.23091233E+00 0.29960585E+04</pdfrwt>
<totfact> 0.92307850E-01</totfact>
</mgrwt>
</event>
<event>
 6    1  0.1568961E-005  0.7895886E+03  0.7818608E-02  0.9575211E-01
         -2   -1    0    0    0  501 -0.00000000000E+00  0.00000000000E+00  0.63100586644E+02  0.63100586644E+02  0.00000000000E+00 0.  1.
          2   -1    0    0  501    0  0.00000000000E+00 -0.00000000000E+00 -0.24700648842E+04  0.24700648842E+04  0.00000000000E+00 0. -1.
         23    2    1    2    0    0  0.30819303571E+03  0.22464375833E+03 -0.14737961183E+04  0.15250729075E+04  0.91239298416E+02 0.  0.
         13    1    3    3    0    0  0.24144693345E+03  0.14912314198E+03 -0.94232912534E+03  0.98413338202E+03  0.00000000000E+00 0. -1.
        -13    1    3    3    0    0  0.66746102262E+02  0.75520616349E+02 -0.53146699293E+03  0.54093952549E+03  0.00000000000E+00 0.  1.
         22    1    1    2    0    0 -0.30819303571E+03 -0.22464375833E+03 -0.93316817928E+03  0.10080925633E+04  0.00000000000E+00 0.  1.
<mgrwt>
<rscale>  0 0.78958861E+03</rscale>
<asrwt>0</asrwt>
<pdfrwt beam="1">  1        2 0.38001002E+00 0.78958861E+03</pdfrwt>
<pdfrwt beam="2">  1       -2 0.97077816E-02 0.78958861E+03</pdfrwt>
<totfact> 0.26962611E+02</totfact>
</mgrwt>
</event>
<event>
 6    1  0.1568961E-005  0.2030012E+04  0.7818608E-02  0.8592716E-01
          1   -1    0    0  501    0  0.00000000000E+00  0.00000000000E+00  0.16402413271E+04  0.16402413271E+04  0.00000000000E+00 0. -1.
         -1   -1    0    0    0  501 -0.00000000000E+00 -0.00000000000E+00 -0.62810107556E+03  0.62810107556E+03  0.00000000000E+00 0.  1.
         23    2    1    2    0    0  0.77609653739E+03  0.35167759187E+03  0.11192546206E+04  0.14095779111E+04  0.90421334438E+02 0.  0.
         11    1    3    3    0    0  0.40649546208E+03  0.18159604943E+03  0.65873833352E+03  0.79507979343E+03  0.00000000000E+00 0.  1.
        -11    1    3    3    0    0  0.36960107531E+03  0.17008154244E+03  0.46051628708E+03  0.61449811767E+03  0.00000000000E+00 0. -1.
         22    1    1    2    0    0 -0.77609653739E+03 -0.35167759187E+03 -0.10711436904E+03  0.85876449160E+03  0.00000000000E+00 0.  1.
<mgrwt>
<rscale>  0 0.20300122E+04</rscale>
<asrwt>0</asrwt>
<pdfrwt beam="1">  1        1 0.25234482E+00 0.20300122E+04</pdfrwt>
<pdfrwt beam="2">  1       -1 0.96630936E-01 0.20300122E+04</pdfrwt>
<totfact> 0.49919432E+00</totfact>
</mgrwt>
</event>
<event>
 6    1  0.1568961E-005  0.3876651E+04  0.7818608E-02  0.8029903E-01
          2   -1    0    0  501    0  0.00000000000E+00  0.00000000000E+00  0.21607508113E+04  0.21607508113E+04  0.00000000000E+00 0. -1.
         -2   -1    0    0    0  501 -0.00000000000E+00 -0.00000000000E+00 -0.17387968220E+04  0.17387968220E+04  0.00000000000E+00 0.  1.
         23    2    1    2    0    0  0.10816580656E+04  0.11427008624E+04 -0.92568500496E+03  0.18278622589E+04  0.91860095932E+02 0.  0.
         13    1    3    3    0    0  0.13754799326E+03  0.10397723493E+03 -0.97525511382E+02  0.19809578795E+03  0.00000000000E+00 0.  1.
        -13    1    3    3    0    0  0.94411007230E+03  0.10387236275E+04 -0.82815949358E+03  0.16297664709E+04  0.00000000000E+00 0. -1.
         22    1    1    2    0    0 -0.10816580656E+04 -0.11427008624E+04  0.13476389943E+04  0.20716853744E+04  0.00000000000E+00 0. -1.
<mgrwt>
<rscale>  0 0.38766515E+04</rscale>
<asrwt>0</asrwt>
<pdfrwt beam="1">  1        2 0.33242320E+00 0.38766515E+04</pdfrwt>
<pdfrwt beam="2">  1       -2 0.26750720E+00 0.38766515E+04</pdfrwt>
<totfact> 0.21731677E-01</totfact>
</mgrwt>
</event>
<event>
 6    1  0.1568961E-005  0.1823837E+04  0.7818608E-02  0.8693725E-01
         -2   -1    0    0    0  501 -0.00000000000E+00  0.00000000000E+00  0.69124651866E+03  0.69124651866E+03  0.00000000000E+00 0.  1.
          2   -1    0    0  501    0  0.00000000000E+00 -0.00000000000E+00 -0.12030370433E+04  0.12030370433E+04  0.00000000000E+00 0. -1.
         23    2    1    2    0    0 -0.69568431648E+03 -0.54826320888E+03 -0.41249177096E+02  0.89129882919E+03  0.90237984823E+02 0.  0.
         11    1    3    3    0    0 -0.15779799492E+03 -0.94042341767E+02 -0.36393405206E+02  0.18726625214E+03  0.00000000000E+00 0. -1.
        -11    1    3    3    0    0 -0.53788632156E+03 -0.45422086711E+03 -0.48557718904E+01  0.70403257706E+03  0.00000000000E+00 0.  1.
         22    1    1    2    0    0  0.69568431648E+03  0.54826320888E+03 -0.47054134752E+03  0.10029847328E+04  0.00000000000E+00 0. -1.
<mgrwt>
<rscale>  0 0.18238368E+04</rscale>
<asrwt>0</asrwt>
<pdfrwt beam="1">  1        2 0.18508262E+00 0.18238368E+04</pdfrwt>
<pdfrwt beam="2">  1       -2 0.10634562E+00 0.18238368E+04</pdfrwt>
<totfact> 0.12672698E+01</totfact>
</mgrwt>
</event>
<event>
 6    1  0.1568961E-005  0.4496824E+04  0.7818608E-02  0.7911193E-01
         -1   -1    0    0    0  501 -0.00000000000E+00  0.00000000000E+00  0.10139555823E+04  0.10139555823E+04  0.00000000000E+00 0.  1.
          1   -1    0    0  501    0  0.00000000000E+00 -0.00000000000E+00 -0.49857767691E+04  0.49857767691E+04  0.00000000000E+00 0. -1.
         23    2    1    2    0    0  0.14095476007E+04  0.15022490865E+04 -0.78711918539E+03  0.22068569785E+04  0.84168610993E+02 0.  0.
         11    1    3    3    0    0  0.54228195969E+03  0.51896791628E+03 -0.28295391162E+03  0.80215979582E+03  0.00000000000E+00 0. -1.
        -11    1    3    3    0    0  0.86726564100E+03  0.98328117019E+03 -0.50416527377E+03  0.14046971827E+04  0.00000000000E+00 0.  1.
         22    1    1    2    0    0 -0.14095476007E+04 -0.15022490865E+04 -0.31847020014E+04  0.37928753729E+04  0.00000000000E+00 0. -1.
<mgrwt>
<rscale>  0 0.44968239E+04</rscale>
<asrwt>0</asrwt>
<pdfrwt beam="1">  1        1 0.76704257E+00 0.44968239E+04</pdfrwt>
<pdfrwt beam="2">  1       -1 0.15599317E+00 0.44968239E+04</pdfrwt>
<totfact> 0.20984933E-03</totfact>
</mgrwt>
</event>
<event>
 6    1  0.1568961E-005  0.6683516E+03  0.7818608E-02  0.9772940E-01
          1   -1    0    0  501    0  0.00000000000E+00  0.00000000000E+00  0.68486396077E+03  0.68486396077E+03  0.00000000000E+00 0. -1.
         -1   -1    0    0    0  501 -0.00000000000E+00 -0.00000000000E+00 -0.16305931888E+03  0.16305931888E+03  0.00000000000E+00 0.  1.
         23    2    1    2    0    0 -0.18673595665E+03  0.26919460238E+03  0.24327123465E+03  0.41790361683E+03  0.90147034878E+02 0.  0.
         13    1    3    3    0    0 -0.96575727466E+02  0.19873310635E+03  0.12739701212E+03  0.25505238166E+03  0.00000000000E+00 0. -1.
        -13    1    3    3    0    0 -0.90160229186E+02  0.70461496034E+02  0.11587422254E+03  0.16285123518E+03  0.00000000000E+00 0.  1.
         22    1    1    2    0    0  0.18673595665E+03 -0.26919460238E+03  0.27853340724E+03  0.43001966282E+03  0.00000000000E+00 0.  1.
<mgrwt>
<rscale>  0 0.66835156E+03</rscale>
<asrwt>0</asrwt>
<pdfrwt beam="1">  1        1 0.10536368E+00 0.66835156E+03</pdfrwt>
<pdfrwt beam="2">  1       -1 0.25086050E-01 0.66835156E+03</pdfrwt>
<totfact> 0.39647047E+02</totfact>
</mgrwt>
</event>
<event>
 6    1  0.1582962E-005  0.2910728E+04  0.7818608E-02  0.8269693E-01
         -1   -1    0    0    0  501 -0.00000000000E+00  0.00000000000E+00  0.12960427806E+04  0.12960427806E+04  0.00000000000E+00 0.  1.
          1   -1    0    0  501    0  0.00000000000E+00 -0.00000000000E+00 -0.16342702952E+04  0.16342702952E+04  0.00000000000E+00 0. -1.
         23    2    1    2    0    0 -0.13469944901E+04  0.43911925243E+03 -0.49828448587E+03  0.15045367581E+04  0.90130757099E+02 0.  0.
         13    1    3    3    0    0 -0.79190473933E+03  0.30345475921E+03 -0.30822921256E+03  0.90233206445E+03  0.00000000000E+00 0. -1.
        -13    1    3    3    0    0 -0.55508975076E+03  0.13566449322E+03 -0.19005527331E+03  0.60220469363E+03  0.00000000000E+00 0.  1.
         22    1    1    2    0    0  0.13469944901E+04 -0.43911925243E+03  0.16005697125E+03  0.14257763177E+04  0.00000000000E+00 0.  1.
<mgrwt>
<rscale>  0 0.29107279E+04</rscale>
<asrwt>0</asrwt>
<pdfrwt beam="1">  1        1 0.25142620E+00 0.29107279E+04</pdfrwt>
<pdfrwt beam="2">  1       -1 0.19939120E+00 0.29107279E+04</pdfrwt>
<totfact> 0.68892053E-01</totfact>
</mgrwt>
</event>
<event>
 6    1  0.1568961E-005  0.2285104E+04  0.7818608E-02  0.8483818E-01
         -1   -1    0    0    0  501 -0.00000000000E+00  0.00000000000E+00  0.10726003930E+04  0.10726003930E+04  0.00000000000E+00 0.  1.
          1   -1    0    0  501    0  0.00000000000E+00 -0.00000000000E+00 -0.12170653956E+04  0.12170653956E+04  0.00000000000E+00 0. -1.
         23    2    1    2    0    0 -0.54065817554E+02 -0.63309094739E+03  0.87699077363E+03  0.10867114407E+04  0.90009322135E+02 0.  0.
         11    1    3    3    0    0 -0.64540617393E+02 -0.40079321460E+03  0.50382155867E+03  0.64702152603E+03  0.00000000000E+00 0. -1.
        -11    1    3    3    0    0  0.10474799839E+02 -0.23229773279E+03  0.37316921495E+03  0.43968991469E+03  0.00000000000E+00 0.  1.
         22    1    1    2    0    0  0.54065817554E+02  0.63309094739E+03 -0.10214557762E+04  0.12029543478E+04  0.00000000000E+00 0. -1.
<mgrwt>
<rscale>  0 0.22851038E+04</rscale>
<asrwt>0</asrwt>
<pdfrwt beam="1">  1        1 0.18724083E+00 0.22851038E+04</pdfrwt>
<pdfrwt beam="2">  1       -1 0.16501545E+00 0.22851038E+04</pdfrwt>
<totfact> 0.25178522E+00</totfact>
</mgrwt>
</event>
<event>
 6    1  0.1568961E-005  0.1054715E+04  0.7818608E-02  0.9250489E-01
         -1   -1    0    0    0  501 -0.00000000000E+00  0.00000000000E+00  0.80542924197E+03  0.80542924197E+03  0.00000000000E+00 0.  1.
          1   -1    0    0  501    0  0.00000000000E+00 -0.00000000000E+00 -0.34528929016E+03  0.34528929016E+03  0.00000000000E+00 0. -1.
         23    2    1    2    0    0  0.41855685263E+03  0.24244566377E+03  0.45019600203E+03  0.66691214430E+03  0.90142272007E+02 0.  0.
         13    1    3    3    0    0  0.13146945873E+03  0.65007080267E+02  0.84430855004E+02  0.16922975016E+03  0.00000000000E+00 0.  1.
        -13    1    3    3    0    0  0.28708739390E+03  0.17743858351E+03  0.36576514703E+03  0.49768239414E+03  0.00000000000E+00 0. -1.
         22    1    1    2    0    0 -0.41855685263E+03 -0.24244566377E+03  0.99439497854E+01  0.48380638783E+03  0.00000000000E+00 0. -1.
<mgrwt>
<rscale>  0 0.10547153E+04</rscale>
<asrwt>0</asrwt>
<pdfrwt beam="1">  1        1 0.53121429E-01 0.10547153E+04</pdfrwt>
<pdfrwt beam="2">  1       -1 0.12391219E+00 0.10547153E+04</pdfrwt>
<totfact> 0.41686295E+01</totfact>
</mgrwt>
</event>
<event>
 6    1  0.1568961E-005  0.1303656E+04  0.7818608E-02  0.9026671E-01
         -2   -1    0    0    0  501 -0.00000000000E+00  0.00000000000E+00  0.58112183596E+03  0.58112183596E+03  0.00000000000E+00 0.  1.
          2   -1    0    0  501    0  0.00000000000E+00 -0.00000000000E+00 -0.73113707498E+03  0.73113707498E+03  0.00000000000E+00 0. -1.
         23    2    1    2    0    0 -0.37438335817E+02 -0.53428204777E+03  0.29289272345E+03  0.61725790462E+03  0.91445272237E+02 0.  0.
         13    1    3    3    0    0 -0.50357648085E+02 -0.33246995037E+03  0.14235524902E+03  0.36515363553E+03  0.00000000000E+00 0. -1.
        -13    1    3    3    0    0  0.12919312268E+02 -0.20181209740E+03  0.15053747443E+03  0.25210426909E+03  0.00000000000E+00 0.  1.
         22    1    1    2    0    0  0.37438335817E+02  0.53428204777E+03 -0.44290796247E+03  0.69500100632E+03  0.00000000000E+00 0. -1.
<mgrwt>
<rscale>  0 0.13036560E+04</rscale>
<asrwt>0</asrwt>
<pdfrwt beam="1">  1        2 0.11248263E+00 0.13036560E+04</pdfrwt>
<pdfrwt beam="2">  1       -2 0.89403359E-01 0.13036560E+04</pdfrwt>
<totfact> 0.40772491E+01</totfact>
</mgrwt>
</event>
<event>
 6    1  0.1568961E-005  0.9251930E+03  0.7818608E-02  0.9394626E-01
          1   -1    0    0  501    0  0.00000000000E+00  0.00000000000E+00  0.10361199452E+04  0.10361199452E+04  0.00000000000E+00 0. -1.
         -1   -1    0    0    0  501 -0.00000000000E+00 -0.00000000000E+00 -0.20653549227E+03  0.20653549227E+03  0.00000000000E+00 0.  1.
         23    2    1    2    0    0 -0.40664821647E+03 -0.87352287667E+02  0.67715466906E+03  0.79967910275E+03  0.89190960445E+02 0.  0.
         11    1    3    3    0    0 -0.32513235370E+03 -0.92332517572E+02  0.48767866028E+03  0.59335218624E+03  0.00000000000E+00 0. -1.
        -11    1    3    3    0    0 -0.81515862772E+02  0.49802299050E+01  0.18947600878E+03  0.20632691651E+03  0.00000000000E+00 0.  1.
         22    1    1    2    0    0  0.40664821647E+03  0.87352287667E+02  0.15242978388E+03  0.44297633473E+03  0.00000000000E+00 0. -1.
<mgrwt>
<rscale>  0 0.92519305E+03</rscale>
<asrwt>0</asrwt>
<pdfrwt beam="1">  1        1 0.15940307E+00 0.92519305E+03</pdfrwt>
<pdfrwt beam="2">  1       -1 0.31774692E-01 0.92519305E+03</pdfrwt>
<totfact> 0.13144521E+02</totfact>
</mgrwt>
</event>
<event>
 6    1  0.1568961E-005  0.1329125E+04  0.7818608E-02  0.9006782E-01
          1   -1    0    0  501    0  0.00000000000E+00  0.00000000000E+00  0.88037742158E+03  0.88037742158E+03  0.00000000000E+00 0. -1.
         -1   -1    0    0    0  501 -0.00000000000E+00 -0.00000000000E+00 -0.50165220919E+03  0.50165220919E+03  0.00000000000E+00 0.  1.
         23    2    1    2    0    0 -0.30759204537E+03  0.10845302061E+03  0.78852092819E+03  0.85828594084E+03  0.92274471029E+02 0.  0.
         11    1    3    3    0    0 -0.11787851205E+03  0.48621394446E+02  0.20131392189E+03  0.23829955675E+03  0.00000000000E+00 0.  1.
        -11    1    3    3    0    0 -0.18971353332E+03  0.59831626162E+02  0.58720700630E+03  0.61998638409E+03  0.00000000000E+00 0. -1.
         22    1    1    2    0    0  0.30759204537E+03 -0.10845302061E+03 -0.40979571579E+03  0.52374368992E+03  0.00000000000E+00 0.  1.
<mgrwt>
<rscale>  0 0.13291249E+04</rscale>
<asrwt>0</asrwt>
<pdfrwt beam="1">  1        1 0.13544268E+00 0.13291249E+04</pdfrwt>
<pdfrwt beam="2">  1       -1 0.77177263E-01 0.13291249E+04</pdfrwt>
<totfact> 0.31184008E+01</totfact>
</mgrwt>
</event>
<event>
 6    1  0.1568961E-005  0.3162436E+04  0.7818608E-02  0.8198809E-01
         -2   -1    0    0    0  501 -0.00000000000E+00  0.00000000000E+00  0.68933115240E+03  0.68933115240E+03  0.00000000000E+00 0.  1.
          2   -1    0    0  501    0  0.00000000000E+00 -0.00000000000E+00 -0.36270659978E+04  0.36270659978E+04  0.00000000000E+00 0. -1.
         23    2    1    2    0    0  0.13848897658E+04  0.29485047392E+03 -0.51343859083E+03  0.15088949160E+04  0.91039637053E+02 0.  0.
         13    1    3    3    0    0  0.41175222320E+03  0.13040335711E+03 -0.15363649448E+03  0.45842022347E+03  0.00000000000E+00 0.  1.
        -13    1    3    3    0    0  0.97313754259E+03  0.16444711681E+03 -0.35980209635E+03  0.10504746925E+04  0.00000000000E+00 0. -1.
         22    1    1    2    0    0 -0.13848897658E+04 -0.29485047392E+03 -0.24242962546E+04  0.28075022343E+04  0.00000000000E+00 0. -1.
<mgrwt>
<rscale>  0 0.31624355E+04</rscale>
<asrwt>0</asrwt>
<pdfrwt beam="1">  1        2 0.55801017E+00 0.31624355E+04</pdfrwt>
<pdfrwt beam="2">  1       -2 0.10605094E+00 0.31624355E+04</pdfrwt>
<totfact> 0.39959336E-01</totfact>
</mgrwt>
</event>
<event>
 6    1  0.1568961E-005  0.1156508E+04  0.7818608E-02  0.9151801E-01
         -1   -1    0    0    0  501 -0.00000000000E+00  0.00000000000E+00  0.26231804301E+03  0.26231804301E+03  0.00000000000E+00 0.  1.
          1   -1    0    0  501    0  0.00000000000E+00 -0.00000000000E+00 -0.12747024425E+04  0.12747024425E+04  0.00000000000E+00 0. -1.
         23    2    1    2    0    0  0.48338904415E+03  0.24243804383E+02 -0.92335237831E+03  0.10449031917E+04  0.70642305945E+02 0.  0.
         13    1    3    3    0    0  0.12356046112E+03  0.37015534395E+02 -0.23508674738E+03  0.26814756410E+03  0.00000000000E+00 0.  1.
        -13    1    3    3    0    0  0.35982858303E+03 -0.12771730012E+02 -0.68826563093E+03  0.77675562757E+03  0.00000000000E+00 0. -1.
         22    1    1    2    0    0 -0.48338904415E+03 -0.24243804383E+02 -0.89032021142E+02  0.49211729379E+03  0.00000000000E+00 0.  1.
<mgrwt>
<rscale>  0 0.11565076E+04</rscale>
<asrwt>0</asrwt>
<pdfrwt beam="1">  1        1 0.19610807E+00 0.11565076E+04</pdfrwt>
<pdfrwt beam="2">  1       -1 0.40356622E-01 0.11565076E+04</pdfrwt>
<totfact> 0.56078969E+01</totfact>
</mgrwt>
</event>
<event>
 6    1  0.1568961E-005  0.2871008E+04  0.7818608E-02  0.8281556E-01
          2   -1    0    0  501    0  0.00000000000E+00  0.00000000000E+00  0.13351719292E+04  0.13351719292E+04  0.00000000000E+00 0. -1.
         -2   -1    0    0    0  501 -0.00000000000E+00 -0.00000000000E+00 -0.15433753248E+04  0.15433753248E+04  0.00000000000E+00 0.  1.
         23    2    1    2    0    0 -0.56079527303E+03  0.83340996571E+02  0.12161040876E+04  0.13455472974E+04  0.10075374793E+03 0.  0.
         13    1    3    3    0    0 -0.68541680046E+02  0.41962935083E+02  0.13886907611E+03  0.16044771772E+03  0.00000000000E+00 0.  1.
        -13    1    3    3    0    0 -0.49225359298E+03  0.41378061488E+02  0.10772350115E+04  0.11850995797E+04  0.00000000000E+00 0. -1.
         22    1    1    2    0    0  0.56079527303E+03 -0.83340996571E+02 -0.14243074832E+04  0.15329999565E+04  0.00000000000E+00 0.  1.
<mgrwt>
<rscale>  0 0.28710078E+04</rscale>
<asrwt>0</asrwt>
<pdfrwt beam="1">  1        2 0.20541107E+00 0.28710078E+04</pdfrwt>
<pdfrwt beam="2">  1       -2 0.23744236E+00 0.28710078E+04</pdfrwt>
<totfact> 0.10482646E+00</totfact>
</mgrwt>
</event>
<event>
 6    1  0.1568961E-005  0.1677712E+04  0.7818608E-02  0.8774179E-01
          2   -1    0    0  501    0  0.00000000000E+00  0.00000000000E+00  0.34521294068E+03  0.34521294068E+03  0.00000000000E+00 0. -1.
         -2   -1    0    0    0  501 -0.00000000000E+00 -0.00000000000E+00 -0.20383922016E+04  0.20383922016E+04  0.00000000000E+00 0.  1.
         23    2    1    2    0    0 -0.58655589333E+02 -0.38923707170E+03 -0.18974160220E+04  0.19401430462E+04  0.94981593707E+02 0.  0.
         13    1    3    3    0    0 -0.27339855102E+02 -0.29128843316E+03 -0.15675875427E+04  0.15946558008E+04  0.00000000000E+00 0.  1.
        -13    1    3    3    0    0 -0.31315734231E+02 -0.97948638546E+02 -0.32982847929E+03  0.34548724543E+03  0.00000000000E+00 0. -1.
         22    1    1    2    0    0  0.58655589333E+02  0.38923707170E+03  0.20423676100E+03  0.44346209612E+03  0.00000000000E+00 0. -1.
<mgrwt>
<rscale>  0 0.16777120E+04</rscale>
<asrwt>0</asrwt>
<pdfrwt beam="1">  1        2 0.53109684E-01 0.16777120E+04</pdfrwt>
<pdfrwt beam="2">  1       -2 0.31359879E+00 0.16777120E+04</pdfrwt>
<totfact> 0.23530459E+00</totfact>
</mgrwt>
</event>
<event>
 6    1  0.1568961E-005  0.2830404E+04  0.7818608E-02  0.8293891E-01
         -2   -1    0    0    0  501 -0.00000000000E+00  0.00000000000E+00  0.20697689027E+04  0.20697689027E+04  0.00000000000E+00 0.  1.
          2   -1    0    0  501    0  0.00000000000E+00 -0.00000000000E+00 -0.96764298488E+03  0.96764298488E+03  0.00000000000E+00 0. -1.
         23    2    1    2    0    0 -0.43290368451E+02 -0.20319099698E+03  0.20522191546E+04  0.20648699627E+04  0.94466223388E+02 0.  0.
         11    1    3    3    0    0 -0.47046342085E+02 -0.31967642838E+02  0.53506901116E+03  0.53808376225E+03  0.00000000000E+00 0. -1.
        -11    1    3    3    0    0  0.37559736341E+01 -0.17122335414E+03  0.15171501434E+04  0.15267862005E+04  0.00000000000E+00 0.  1.
         22    1    1    2    0    0  0.43290368451E+02  0.20319099698E+03 -0.95009323670E+03  0.97254192489E+03  0.00000000000E+00 0. -1.
<mgrwt>
<rscale>  0 0.28304045E+04</rscale>
<asrwt>0</asrwt>
<pdfrwt beam="1">  1        2 0.14886815E+00 0.28304045E+04</pdfrwt>
<pdfrwt beam="2">  1       -2 0.31842598E+00 0.28304045E+04</pdfrwt>
<totfact> 0.56184076E-01</totfact>
</mgrwt>
</event>
<event>
 6    1  0.1568961E-005  0.4068676E+04  0.7818608E-02  0.7990834E-01
          2   -1    0    0  501    0  0.00000000000E+00  0.00000000000E+00  0.14241942059E+04  0.14241942059E+04  0.00000000000E+00 0. -1.
         -2   -1    0    0    0  501 -0.00000000000E+00 -0.00000000000E+00 -0.29058758417E+04  0.29058758417E+04  0.00000000000E+00 0.  1.
         23    2    1    2    0    0 -0.17547541806E+04  0.79435962494E+03 -0.14354039669E+04  0.24033341885E+04  0.73900102005E+02 0.  0.
         13    1    3    3    0    0 -0.75198696342E+03  0.37774245198E+03 -0.64379088667E+03  0.10595472896E+04  0.00000000000E+00 0.  1.
        -13    1    3    3    0    0 -0.10027672172E+04  0.41661717296E+03 -0.79161308026E+03  0.13437868988E+04  0.00000000000E+00 0. -1.
         22    1    1    2    0    0  0.17547541806E+04 -0.79435962494E+03 -0.46277668877E+02  0.19267358591E+04  0.00000000000E+00 0. -1.
<mgrwt>
<rscale>  0 0.40686762E+04</rscale>
<asrwt>0</asrwt>
<pdfrwt beam="1">  1        2 0.21910680E+00 0.40686762E+04</pdfrwt>
<pdfrwt beam="2">  1       -2 0.44705782E+00 0.40686762E+04</pdfrwt>
<totfact> 0.39920465E-02</totfact>
</mgrwt>
</event>
<event>
 6    1  0.1568961E-005  0.1654111E+04  0.7818608E-02  0.8787978E-01
         -1   -1    0    0    0  501 -0.00000000000E+00  0.00000000000E+00  0.28200607484E+03  0.28200607484E+03  0.00000000000E+00 0.  1.
          1   -1    0    0  501    0  0.00000000000E+00 -0.00000000000E+00 -0.24255546912E+04  0.24255546912E+04  0.00000000000E+00 0. -1.
         23    2    1    2    0    0  0.53655362217E+03 -0.38836495801E+03 -0.18788159641E+04  0.19942582305E+04  0.91647874873E+02 0.  0.
         13    1    3    3    0    0  0.26754828493E+03 -0.23591551422E+03 -0.10961938603E+04  0.11527702260E+04  0.00000000000E+00 0. -1.
        -13    1    3    3    0    0  0.26900533725E+03 -0.15244944379E+03 -0.78262210378E+03  0.84148800449E+03  0.00000000000E+00 0.  1.
         22    1    1    2    0    0 -0.53655362217E+03  0.38836495801E+03 -0.26473265232E+03  0.71330253559E+03  0.00000000000E+00 0.  1.
<mgrwt>
<rscale>  0 0.16541114E+04</rscale>
<asrwt>0</asrwt>
<pdfrwt beam="1">  1        1 0.37316227E+00 0.16541114E+04</pdfrwt>
<pdfrwt beam="2">  1       -1 0.43385549E-01 0.16541114E+04</pdfrwt>
<totfact> 0.76509564E+00</totfact>
</mgrwt>
</event>
<event>
 6    1  0.1568961E-005  0.3371779E+04  0.7818608E-02  0.8144868E-01
         -1   -1    0    0    0  501 -0.00000000000E+00  0.00000000000E+00  0.10359497112E+04  0.10359497112E+04  0.00000000000E+00 0.  1.
          1   -1    0    0  501    0  0.00000000000E+00 -0.00000000000E+00 -0.27435913865E+04  0.27435913865E+04  0.00000000000E+00 0. -1.
         23    2    1    2    0    0 -0.11041685315E+04 -0.20529679529E+03 -0.22619962783E+04  0.25270859304E+04  0.90560567363E+02 0.  0.
         11    1    3    3    0    0 -0.53536651164E+03 -0.71641208444E+02 -0.11674713425E+04  0.12863666274E+04  0.00000000000E+00 0.  1.
        -11    1    3    3    0    0 -0.56880201986E+03 -0.13365558685E+03 -0.10945249358E+04  0.12407193030E+04  0.00000000000E+00 0. -1.
         22    1    1    2    0    0  0.11041685315E+04  0.20529679529E+03  0.55435460308E+03  0.12524551673E+04  0.00000000000E+00 0.  1.
<mgrwt>
<rscale>  0 0.33717786E+04</rscale>
<asrwt>0</asrwt>
<pdfrwt beam="1">  1        1 0.42209098E+00 0.33717786E+04</pdfrwt>
<pdfrwt beam="2">  1       -1 0.15937688E+00 0.33717786E+04</pdfrwt>
<totfact> 0.22258900E-01</totfact>
</mgrwt>
</event>
<event>
 6    1  0.1568961E-005  0.1283994E+04  0.7818608E-02  0.9042356E-01
         -1   -1    0    0    0  501 -0.00000000000E+00  0.00000000000E+00  0.53041758163E+03  0.53041758163E+03  0.00000000000E+00 0.  1.
          1   -1    0    0  501    0  0.00000000000E+00 -0.00000000000E+00 -0.77704802409E+03  0.77704802409E+03  0.00000000000E+00 0. -1.
         23    2    1    2    0    0 -0.53254068848E+02 -0.63323180886E+03 -0.18708765886E+03  0.66921497886E+03  0.95017768001E+02 0.  0.
         11    1    3    3    0    0 -0.63810666439E+02 -0.24888394365E+03 -0.55780475204E+02  0.26291915102E+03  0.00000000000E+00 0.  1.
        -11    1    3    3    0    0  0.10556597592E+02 -0.38434786521E+03 -0.13130718366E+03  0.40629582785E+03  0.00000000000E+00 0. -1.
         22    1    1    2    0    0  0.53254068848E+02  0.63323180886E+03 -0.59542783600E+02  0.63825062685E+03  0.00000000000E+00 0.  1.
<mgrwt>
<rscale>  0 0.12839937E+04</rscale>
<asrwt>0</asrwt>
<pdfrwt beam="1">  1        1 0.11954585E+00 0.12839937E+04</pdfrwt>
<pdfrwt beam="2">  1       -1 0.81602705E-01 0.12839937E+04</pdfrwt>
<totfact> 0.34080535E+01</totfact>
</mgrwt>
</event>
<event>
 6    1  0.1568961E-005  0.2620026E+04  0.7818608E-02  0.8361430E-01
         -2   -1    0    0    0  501 -0.00000000000E+00  0.00000000000E+00  0.50823217452E+03  0.50823217452E+03  0.00000000000E+00 0.  1.
          2   -1    0    0  501    0  0.00000000000E+00 -0.00000000000E+00 -0.33766734755E+04  0.33766734755E+04  0.00000000000E+00 0. -1.
         23    2    1    2    0    0  0.63627809556E+03 -0.95769021921E+03 -0.23615434101E+04  0.26283365741E+04  0.96153512227E+02 0.  0.
         11    1    3    3    0    0  0.23860476241E+03 -0.28349966344E+03 -0.79606155207E+03  0.87807646962E+03  0.00000000000E+00 0.  1.
        -11    1    3    3    0    0  0.39767333315E+03 -0.67419055577E+03 -0.15654818581E+04  0.17502601045E+04  0.00000000000E+00 0. -1.
         22    1    1    2    0    0 -0.63627809556E+03  0.95769021921E+03 -0.50689789087E+03  0.12565690759E+04  0.00000000000E+00 0.  1.
<mgrwt>
<rscale>  0 0.26200260E+04</rscale>
<asrwt>0</asrwt>
<pdfrwt beam="1">  1        2 0.51948824E+00 0.26200260E+04</pdfrwt>
<pdfrwt beam="2">  1       -2 0.78189563E-01 0.26200260E+04</pdfrwt>
<totfact> 0.12713449E+00</totfact>
</mgrwt>
</event>
<event>
 6    1  0.1568961E-005  0.7038024E+03  0.7818608E-02  0.9710752E-01
         -2   -1    0    0    0  501 -0.00000000000E+00  0.00000000000E+00  0.16428167394E+03  0.16428167394E+03  0.00000000000E+00 0.  1.
          2   -1    0    0  501    0  0.00000000000E+00 -0.00000000000E+00 -0.75379340974E+03  0.75379340974E+03  0.00000000000E+00 0. -1.
         23    2    1    2    0    0 -0.32831008373E+03  0.58174417909E+02 -0.17985544887E+03  0.38987999908E+03  0.92123054742E+02 0.  0.
         13    1    3    3    0    0 -0.15918456304E+03 -0.73889025366E+01 -0.50770520066E+02  0.16724821882E+03  0.00000000000E+00 0.  1.
        -13    1    3    3    0    0 -0.16912552069E+03  0.65563320445E+02 -0.12908492881E+03  0.22263178026E+03  0.00000000000E+00 0. -1.
         22    1    1    2    0    0  0.32831008373E+03 -0.58174417909E+02 -0.40965628692E+03  0.52819508460E+03  0.00000000000E+00 0. -1.
<mgrwt>
<rscale>  0 0.70380237E+03</rscale>
<asrwt>0</asrwt>
<pdfrwt beam="1">  1        2 0.11596822E+00 0.70380237E+03</pdfrwt>
<pdfrwt beam="2">  1       -2 0.25274104E-01 0.70380237E+03</pdfrwt>
<totfact> 0.52660732E+02</totfact>
</mgrwt>
</event>
<event>
 6    1  0.1568961E-005  0.1995637E+04  0.7818608E-02  0.8608663E-01
         -2   -1    0    0    0  501 -0.00000000000E+00  0.00000000000E+00  0.45559953765E+03  0.45559953765E+03  0.00000000000E+00 0.  1.
          2   -1    0    0  501    0  0.00000000000E+00 -0.00000000000E+00 -0.21853431146E+04  0.21853431146E+04  0.00000000000E+00 0. -1.
         23    2    1    2    0    0  0.67685850171E+02  0.27487299129E+03 -0.21301797347E+04  0.21505492876E+04  0.84023809150E+02 0.  0.
         13    1    3    3    0    0  0.30388050215E+02  0.88700869837E+02 -0.10149701883E+04  0.10192917939E+04  0.00000000000E+00 0. -1.
        -13    1    3    3    0    0  0.37297799956E+02  0.18617212145E+03 -0.11152095464E+04  0.11312574937E+04  0.00000000000E+00 0.  1.
         22    1    1    2    0    0 -0.67685850171E+02 -0.27487299129E+03  0.40043615777E+03  0.49039336466E+03  0.00000000000E+00 0.  1.
<mgrwt>
<rscale>  0 0.19956366E+04</rscale>
<asrwt>0</asrwt>
<pdfrwt beam="1">  1        2 0.33620664E+00 0.19956366E+04</pdfrwt>
<pdfrwt beam="2">  1       -2 0.70092236E-01 0.19956366E+04</pdfrwt>
<totfact> 0.90663501E+00</totfact>
</mgrwt>
</event>
<event>
 6    1  0.1568961E-005  0.1485712E+04  0.7818608E-02  0.8894010E-01
          2   -1    0    0  501    0  0.00000000000E+00  0.00000000000E+00  0.19618918424E+04  0.19618918424E+04  0.00000000000E+00 0.  1.
         -2   -1    0    0    0  501 -0.00000000000E+00 -0.00000000000E+00 -0.28127701380E+03  0.28127701380E+03  0.00000000000E+00 0. -1.
         23    2    1    2    0    0  0.68511519553E+02 -0.69069555374E+03  0.12315717978E+04  0.14164924867E+04  0.89037607620E+02 0.  0.
         13    1    3    3    0    0  0.11763649383E+02 -0.44693143480E+03  0.84466466996E+03  0.95569058567E+03  0.00000000000E+00 0.  1.
        -13    1    3    3    0    0  0.56747870170E+02 -0.24376411895E+03  0.38690712786E+03  0.46080190108E+03  0.00000000000E+00 0. -1.
         22    1    1    2    0    0 -0.68511519553E+02  0.69069555374E+03  0.44904303075E+03  0.82667636941E+03  0.00000000000E+00 0.  1.
<mgrwt>
<rscale>  0 0.14857121E+04</rscale>
<asrwt>0</asrwt>
<pdfrwt beam="1">  1        2 0.30182951E+00 0.14857121E+04</pdfrwt>
<pdfrwt beam="2">  1       -2 0.43273388E-01 0.14857121E+04</pdfrwt>
<totfact> 0.34368769E+01</totfact>
</mgrwt>
</event>
<event>
 6    1  0.1568961E-005  0.3125901E+04  0.7818608E-02  0.8208665E-01
         -2   -1    0    0    0  501 -0.00000000000E+00  0.00000000000E+00  0.11876143946E+04  0.11876143946E+04  0.00000000000E+00 0.  1.
          2   -1    0    0  501    0  0.00000000000E+00 -0.00000000000E+00 -0.20569080410E+04  0.20569080410E+04  0.00000000000E+00 0. -1.
         23    2    1    2    0    0 -0.85333663414E+03 -0.11950987823E+04 -0.98633272336E+03  0.17713820294E+04  0.92182115467E+02 0.  0.
         11    1    3    3    0    0 -0.14520310845E+03 -0.22993203301E+03 -0.22250608751E+03  0.35137108800E+03  0.00000000000E+00 0. -1.
        -11    1    3    3    0    0 -0.70813352570E+03 -0.96516674929E+03 -0.76382663585E+03  0.14200109414E+04  0.00000000000E+00 0.  1.
         22    1    1    2    0    0  0.85333663414E+03  0.11950987823E+04  0.11703907693E+03  0.14731404061E+04  0.00000000000E+00 0.  1.
<mgrwt>
<rscale>  0 0.31259006E+04</rscale>
<asrwt>0</asrwt>
<pdfrwt beam="1">  1        2 0.31644739E+00 0.31259006E+04</pdfrwt>
<pdfrwt beam="2">  1       -2 0.18270991E+00 0.31259006E+04</pdfrwt>
<totfact> 0.91403513E-01</totfact>
</mgrwt>
</event>
<event>
 6    1  0.1568961E-005  0.1658818E+04  0.7818608E-02  0.8785207E-01
         -2   -1    0    0    0  501 -0.00000000000E+00  0.00000000000E+00  0.80318895720E+03  0.80318895720E+03  0.00000000000E+00 0.  1.
          2   -1    0    0  501    0  0.00000000000E+00 -0.00000000000E+00 -0.85648485040E+03  0.85648485040E+03  0.00000000000E+00 0. -1.
         23    2    1    2    0    0 -0.12500976773E+03  0.24925084169E+03 -0.80557627583E+03  0.85737760407E+03  0.91595827766E+02 0.  0.
         11    1    3    3    0    0 -0.19422657323E+01  0.72681219529E+02 -0.28356204805E+03  0.29273497769E+03  0.00000000000E+00 0. -1.
        -11    1    3    3    0    0 -0.12306750200E+03  0.17656962216E+03 -0.52201422778E+03  0.56464262638E+03  0.00000000000E+00 0.  1.
         22    1    1    2    0    0  0.12500976773E+03 -0.24925084169E+03  0.75228038263E+03  0.80229620353E+03  0.00000000000E+00 0.  1.
<mgrwt>
<rscale>  0 0.16588179E+04</rscale>
<asrwt>0</asrwt>
<pdfrwt beam="1">  1        2 0.13176690E+00 0.16588179E+04</pdfrwt>
<pdfrwt beam="2">  1       -2 0.12356753E+00 0.16588179E+04</pdfrwt>
<totfact> 0.14797639E+01</totfact>
</mgrwt>
</event>
<event>
 6    1  0.1568961E-005  0.1770304E+04  0.7818608E-02  0.8722253E-01
         -2   -1    0    0    0  501 -0.00000000000E+00  0.00000000000E+00  0.33841310192E+03  0.33841310192E+03  0.00000000000E+00 0.  1.
          2   -1    0    0  501    0  0.00000000000E+00 -0.00000000000E+00 -0.23152012255E+04  0.23152012255E+04  0.00000000000E+00 0. -1.
         23    2    1    2    0    0 -0.56611168381E+03 -0.48690799728E+03 -0.16972368877E+04  0.18562996280E+04  0.87598057319E+02 0.  0.
         13    1    3    3    0    0 -0.91848214748E+02 -0.12494868593E+03 -0.33589319542E+03  0.36996284597E+03  0.00000000000E+00 0. -1.
        -13    1    3    3    0    0 -0.47426346906E+03 -0.36195931135E+03 -0.13613436923E+04  0.14863367821E+04  0.00000000000E+00 0.  1.
         22    1    1    2    0    0  0.56611168381E+03  0.48690799728E+03 -0.27955123585E+03  0.79731469936E+03  0.00000000000E+00 0.  1.
<mgrwt>
<rscale>  0 0.17703044E+04</rscale>
<asrwt>0</asrwt>
<pdfrwt beam="1">  1        2 0.35618480E+00 0.17703044E+04</pdfrwt>
<pdfrwt beam="2">  1       -2 0.52063555E-01 0.17703044E+04</pdfrwt>
<totfact> 0.14657956E+01</totfact>
</mgrwt>
</event>
<event>
 6    1  0.1568961E-005  0.2327065E+04  0.7818608E-02  0.8467325E-01
          2   -1    0    0  501    0  0.00000000000E+00  0.00000000000E+00  0.21477472772E+04  0.21477472772E+04  0.00000000000E+00 0.  1.
         -2   -1    0    0    0  501 -0.00000000000E+00 -0.00000000000E+00 -0.63033878643E+03  0.63033878643E+03  0.00000000000E+00 0. -1.
         23    2    1    2    0    0  0.11164633628E+04  0.29946466036E+03  0.62150680115E+03  0.13156191885E+04  0.91725797247E+02 0.  0.
         11    1    3    3    0    0  0.10201761173E+04  0.25329832691E+03  0.54326549541E+03  0.11832399381E+04  0.00000000000E+00 0. -1.
        -11    1    3    3    0    0  0.96287245558E+02  0.46166333454E+02  0.78241305742E+02  0.13237925036E+03  0.00000000000E+00 0.  1.
         22    1    1    2    0    0 -0.11164633628E+04 -0.29946466036E+03  0.89590168960E+03  0.14624668751E+04  0.00000000000E+00 0.  1.
<mgrwt>
<rscale>  0 0.23270655E+04</rscale>
<asrwt>0</asrwt>
<pdfrwt beam="1">  1        2 0.33042266E+00 0.23270655E+04</pdfrwt>
<pdfrwt beam="2">  1       -2 0.96975199E-01 0.23270655E+04</pdfrwt>
<totfact> 0.44382014E+00</totfact>
</mgrwt>
</event>
<event>
 6    1  0.1568961E-005  0.1633961E+04  0.7818608E-02  0.8799952E-01
          2   -1    0    0  501    0  0.00000000000E+00  0.00000000000E+00  0.47508373571E+03  0.47508373571E+03  0.00000000000E+00 0. -1.
         -2   -1    0    0    0  501 -0.00000000000E+00 -0.00000000000E+00 -0.14049250633E+04  0.14049250633E+04  0.00000000000E+00 0.  1.
         23    2    1    2    0    0 -0.28607410875E+02  0.81340442287E+03 -0.43288960561E+03  0.92638090873E+03  0.91340233807E+02 0.  0.
         13    1    3    3    0    0 -0.17099833545E+02  0.54004898240E+03 -0.23769966896E+03  0.59029352049E+03  0.00000000000E+00 0.  1.
        -13    1    3    3    0    0 -0.11507577330E+02  0.27335544047E+03 -0.19518993664E+03  0.33608738824E+03  0.00000000000E+00 0. -1.
         22    1    1    2    0    0  0.28607410875E+02 -0.81340442287E+03 -0.49695172196E+03  0.95362789025E+03  0.00000000000E+00 0.  1.
<mgrwt>
<rscale>  0 0.16339609E+04</rscale>
<asrwt>0</asrwt>
<pdfrwt beam="1">  1        2 0.73089807E-01 0.16339609E+04</pdfrwt>
<pdfrwt beam="2">  1       -2 0.21614231E+00 0.16339609E+04</pdfrwt>
<totfact> 0.65306592E+00</totfact>
</mgrwt>
</event>
<event>
 6    1  0.1568961E-005  0.1386169E+04  0.7818608E-02  0.8963892E-01
         -1   -1    0    0    0  501 -0.00000000000E+00  0.00000000000E+00  0.81805733731E+03  0.81805733731E+03  0.00000000000E+00 0.  1.
          1   -1    0    0  501    0  0.00000000000E+00 -0.00000000000E+00 -0.58720309350E+03  0.58720309350E+03  0.00000000000E+00 0. -1.
         23    2    1    2    0    0 -0.51067263077E+03 -0.41563303208E+03 -0.93372097322E+02  0.67132577877E+03  0.91774721495E+02 0.  0.
         13    1    3    3    0    0 -0.33077397426E+03 -0.22186738587E+03 -0.29907893686E+02  0.39941337116E+03  0.00000000000E+00 0.  1.
        -13    1    3    3    0    0 -0.17989865652E+03 -0.19376564621E+03 -0.63464203636E+02  0.27191240761E+03  0.00000000000E+00 0. -1.
         22    1    1    2    0    0  0.51067263077E+03  0.41563303208E+03  0.32422634114E+03  0.73393465204E+03  0.00000000000E+00 0.  1.
<mgrwt>
<rscale>  0 0.13861685E+04</rscale>
<asrwt>0</asrwt>
<pdfrwt beam="1">  1        1 0.90338938E-01 0.13861685E+04</pdfrwt>
<pdfrwt beam="2">  1       -1 0.12585497E+00 0.13861685E+04</pdfrwt>
<totfact> 0.18980538E+01</totfact>
</mgrwt>
</event>
<event>
 6    1  0.1568961E-005  0.3048214E+04  0.7818608E-02  0.8230095E-01
          2   -1    0    0  501    0  0.00000000000E+00  0.00000000000E+00  0.19269873133E+04  0.19269873133E+04  0.00000000000E+00 0. -1.
         -2   -1    0    0    0  501 -0.00000000000E+00 -0.00000000000E+00 -0.12054582988E+04  0.12054582988E+04  0.00000000000E+00 0.  1.
         23    2    1    2    0    0 -0.83468608027E+03  0.10812050334E+04  0.10528300025E+04  0.17269330645E+04  0.90230917487E+02 0.  0.
         11    1    3    3    0    0 -0.61197468851E+03  0.79862262719E+03  0.82439874950E+03  0.13007476382E+04  0.00000000000E+00 0. -1.
        -11    1    3    3    0    0 -0.22271139175E+03  0.28258240618E+03  0.22843125297E+03  0.42618542635E+03  0.00000000000E+00 0.  1.
         22    1    1    2    0    0  0.83468608027E+03 -0.10812050334E+04 -0.33130098799E+03  0.14055125476E+04  0.00000000000E+00 0.  1.
<mgrwt>
<rscale>  0 0.30482145E+04</rscale>
<asrwt>0</asrwt>
<pdfrwt beam="1">  1        2 0.29645959E+00 0.30482145E+04</pdfrwt>
<pdfrwt beam="2">  1       -2 0.18545512E+00 0.30482145E+04</pdfrwt>
<totfact> 0.10406642E+00</totfact>
</mgrwt>
</event>
<event>
 6    1  0.1568961E-005  0.1963052E+04  0.7818608E-02  0.8624092E-01
          1   -1    0    0  501    0  0.00000000000E+00  0.00000000000E+00  0.47139476940E+03  0.47139476940E+03  0.00000000000E+00 0. -1.
         -1   -1    0    0    0  501 -0.00000000000E+00 -0.00000000000E+00 -0.20437089166E+04  0.20437089166E+04  0.00000000000E+00 0.  1.
         23    2    1    2    0    0 -0.86233459912E+03 -0.15342892147E+03 -0.22622063721E+03  0.90913695770E+03  0.90514288182E+02 0.  0.
         11    1    3    3    0    0 -0.15415731456E+03 -0.44187611691E+01 -0.13366201098E+02  0.15479876748E+03  0.00000000000E+00 0.  1.
        -11    1    3    3    0    0 -0.70817728456E+03 -0.14901016031E+03 -0.21285443611E+03  0.75433819021E+03  0.00000000000E+00 0. -1.
         22    1    1    2    0    0  0.86233459912E+03  0.15342892147E+03 -0.13460935100E+04  0.16059667283E+04  0.00000000000E+00 0. -1.
<mgrwt>
<rscale>  0 0.19630524E+04</rscale>
<asrwt>0</asrwt>
<pdfrwt beam="1">  1        1 0.72522272E-01 0.19630524E+04</pdfrwt>
<pdfrwt beam="2">  1       -1 0.31441676E+00 0.19630524E+04</pdfrwt>
<totfact> 0.11916786E+00</totfact>
</mgrwt>
</event>
<event>
 6    1  0.1568961E-005  0.1254164E+04  0.7818608E-02  0.9066724E-01
          2   -1    0    0  501    0  0.00000000000E+00  0.00000000000E+00  0.21933731461E+04  0.21933731461E+04  0.00000000000E+00 0. -1.
         -2   -1    0    0    0  501 -0.00000000000E+00 -0.00000000000E+00 -0.17928187653E+03  0.17928187653E+03  0.00000000000E+00 0.  1.
         23    2    1    2    0    0 -0.36110418577E+03 -0.33396952469E+03  0.17380738658E+04  0.18086359772E+04  0.91276824506E+02 0.  0.
         11    1    3    3    0    0 -0.14033581764E+03 -0.18533573048E+03  0.88397340226E+03  0.91403088055E+03  0.00000000000E+00 0.  1.
        -11    1    3    3    0    0 -0.22076836813E+03 -0.14863379421E+03  0.85410046358E+03  0.89460509669E+03  0.00000000000E+00 0. -1.
         22    1    1    2    0    0  0.36110418577E+03  0.33396952469E+03  0.27601740373E+03  0.56401904539E+03  0.00000000000E+00 0.  1.
<mgrwt>
<rscale>  0 0.12541643E+04</rscale>
<asrwt>0</asrwt>
<pdfrwt beam="1">  1        2 0.33744200E+00 0.12541643E+04</pdfrwt>
<pdfrwt beam="2">  1       -2 0.27581829E-01 0.12541643E+04</pdfrwt>
<totfact> 0.61524320E+01</totfact>
</mgrwt>
</event>
<event>
 6    1  0.1568961E-005  0.2389745E+04  0.7818608E-02  0.8443353E-01
         -1   -1    0    0    0  501 -0.00000000000E+00  0.00000000000E+00  0.18392543664E+04  0.18392543664E+04  0.00000000000E+00 0.  1.
          1   -1    0    0  501    0  0.00000000000E+00 -0.00000000000E+00 -0.77624931635E+03  0.77624931635E+03  0.00000000000E+00 0. -1.
         23    2    1    2    0    0  0.10476659428E+04 -0.22163426249E+03  0.11083086519E+04  0.15436930230E+04  0.88962955110E+02 0.  0.
         13    1    3    3    0    0  0.23966108486E+03 -0.26512623771E+02  0.20930486708E+03  0.31929435040E+03  0.00000000000E+00 0. -1.
        -13    1    3    3    0    0  0.80800485796E+03 -0.19512163871E+03  0.89900378479E+03  0.12243986726E+04  0.00000000000E+00 0.  1.
         22    1    1    2    0    0 -0.10476659428E+04  0.22163426249E+03 -0.45303601814E+02  0.10718106598E+04  0.00000000000E+00 0. -1.
<mgrwt>
<rscale>  0 0.23897447E+04</rscale>
<asrwt>0</asrwt>
<pdfrwt beam="1">  1        1 0.11942297E+00 0.23897447E+04</pdfrwt>
<pdfrwt beam="2">  1       -1 0.28296221E+00 0.23897447E+04</pdfrwt>
<totfact> 0.88620822E-01</totfact>
</mgrwt>
</event>
<event>
 6    1  0.1568961E-005  0.2488010E+04  0.7818608E-02  0.8407270E-01
          2   -1    0    0  501    0  0.00000000000E+00  0.00000000000E+00  0.43968659794E+04  0.43968659794E+04  0.00000000000E+00 0. -1.
         -2   -1    0    0    0  501 -0.00000000000E+00 -0.00000000000E+00 -0.35196623702E+03  0.35196623702E+03  0.00000000000E+00 0.  1.
         23    2    1    2    0    0  0.16431946898E+03 -0.53776715367E+03  0.41395931251E+04  0.41786031080E+04  0.91094967622E+02 0.  0.
         11    1    3    3    0    0  0.65444733083E+02 -0.29907991966E+03  0.19631342095E+04  0.19868637940E+04  0.00000000000E+00 0.  1.
        -11    1    3    3    0    0  0.98874735892E+02 -0.23868723400E+03  0.21764589156E+04  0.21917393140E+04  0.00000000000E+00 0. -1.
         22    1    1    2    0    0 -0.16431946898E+03  0.53776715367E+03 -0.94693382677E+02  0.57022910849E+03  0.00000000000E+00 0.  1.
<mgrwt>
<rscale>  0 0.24880099E+04</rscale>
<asrwt>0</asrwt>
<pdfrwt beam="1">  1        2 0.67644088E+00 0.24880099E+04</pdfrwt>
<pdfrwt beam="2">  1       -2 0.54148655E-01 0.24880099E+04</pdfrwt>
<totfact> 0.44548079E-01</totfact>
</mgrwt>
</event>
<event>
 6    1  0.1568961E-005  0.2665537E+04  0.7818608E-02  0.8346275E-01
          2   -1    0    0  501    0  0.00000000000E+00  0.00000000000E+00  0.23418470867E+04  0.23418470867E+04  0.00000000000E+00 0. -1.
         -2   -1    0    0    0  501 -0.00000000000E+00 -0.00000000000E+00 -0.75849159516E+03  0.75849159516E+03  0.00000000000E+00 0.  1.
         23    2    1    2    0    0 -0.65857083464E+03 -0.26554946234E+03 -0.51707370408E+03  0.88312537074E+03  0.91176443223E+02 0.  0.
         13    1    3    3    0    0 -0.53901479756E+03 -0.25037350920E+03 -0.41120013505E+03  0.72270975998E+03  0.00000000000E+00 0. -1.
        -13    1    3    3    0    0 -0.11955603708E+03 -0.15175953132E+02 -0.10587356903E+03  0.16041561076E+03  0.00000000000E+00 0.  1.
         22    1    1    2    0    0  0.65857083464E+03  0.26554946234E+03  0.21004291957E+04  0.22172133112E+04  0.00000000000E+00 0. -1.
<mgrwt>
<rscale>  0 0.26655366E+04</rscale>
<asrwt>0</asrwt>
<pdfrwt beam="1">  1        2 0.36028416E+00 0.26655366E+04</pdfrwt>
<pdfrwt beam="2">  1       -2 0.11669102E+00 0.26655366E+04</pdfrwt>
<totfact> 0.21479400E+00</totfact>
</mgrwt>
</event>
<event>
 6    1  0.1568961E-005  0.2328772E+04  0.7818608E-02  0.8466662E-01
         -1   -1    0    0    0  501 -0.00000000000E+00  0.00000000000E+00  0.46628696986E+03  0.46628696986E+03  0.00000000000E+00 0.  1.
          1   -1    0    0  501    0  0.00000000000E+00 -0.00000000000E+00 -0.29076396449E+04  0.29076396449E+04  0.00000000000E+00 0. -1.
         23    2    1    2    0    0  0.19906540795E+03  0.11451430583E+04 -0.11943332582E+04  0.16692163500E+04  0.94189335272E+02 0.  0.
         13    1    3    3    0    0  0.13249943297E+03  0.59405299572E+03 -0.67778252452E+03  0.91095785413E+03  0.00000000000E+00 0. -1.
        -13    1    3    3    0    0  0.66565974982E+02  0.55109006261E+03 -0.51655073365E+03  0.75825849587E+03  0.00000000000E+00 0.  1.
         22    1    1    2    0    0 -0.19906540795E+03 -0.11451430583E+04 -0.12470194168E+04  0.17047102647E+04  0.00000000000E+00 0. -1.
<mgrwt>
<rscale>  0 0.23287718E+04</rscale>
<asrwt>0</asrwt>
<pdfrwt beam="1">  1        1 0.44732917E+00 0.23287718E+04</pdfrwt>
<pdfrwt beam="2">  1       -1 0.71736458E-01 0.23287718E+04</pdfrwt>
<totfact> 0.12340680E+00</totfact>
</mgrwt>
</event>
<event>
 6    1  0.1568961E-005  0.9656995E+03  0.7818608E-02  0.9346986E-01
          2   -1    0    0  501    0  0.00000000000E+00  0.00000000000E+00  0.27115690132E+04  0.27115690132E+04  0.00000000000E+00 0. -1.
         -2   -1    0    0    0  501 -0.00000000000E+00 -0.00000000000E+00 -0.85981180662E+02  0.85981180662E+02  0.00000000000E+00 0.  1.
         23    2    1    2    0    0 -0.18426244676E+03  0.26150920397E+02  0.26016513823E+04  0.26099083180E+04  0.91624195889E+02 0.  0.
         13    1    3    3    0    0 -0.97129557998E+02 -0.89091129193E+01  0.18239430653E+04  0.18265491586E+04  0.00000000000E+00 0.  1.
        -13    1    3    3    0    0 -0.87132888759E+02  0.35060033316E+02  0.77770831705E+03  0.78335915942E+03  0.00000000000E+00 0. -1.
         22    1    1    2    0    0  0.18426244676E+03 -0.26150920397E+02  0.23936450192E+02  0.18764187584E+03  0.00000000000E+00 0.  1.
<mgrwt>
<rscale>  0 0.96569955E+03</rscale>
<asrwt>0</asrwt>
<pdfrwt beam="1">  1        2 0.41716440E+00 0.96569955E+03</pdfrwt>
<pdfrwt beam="2">  1       -2 0.13227876E-01 0.96569955E+03</pdfrwt>
<totfact> 0.11557831E+02</totfact>
</mgrwt>
</event>
<event>
 6    1  0.1568961E-005  0.2364589E+04  0.7818608E-02  0.8452881E-01
         -2   -1    0    0    0  501 -0.00000000000E+00  0.00000000000E+00  0.11792370571E+04  0.11792370571E+04  0.00000000000E+00 0.  1.
          2   -1    0    0  501    0  0.00000000000E+00 -0.00000000000E+00 -0.11853599448E+04  0.11853599448E+04  0.00000000000E+00 0. -1.
         23    2    1    2    0    0  0.96510131070E+03  0.34689740633E+03  0.58173541977E+03  0.11825074367E+04  0.90273965385E+02 0.  0.
         11    1    3    3    0    0  0.54389017928E+03  0.15519316138E+03  0.34750726387E+03  0.66382433136E+03  0.00000000000E+00 0. -1.
        -11    1    3    3    0    0  0.42121113142E+03  0.19170424495E+03  0.23422815590E+03  0.51868310535E+03  0.00000000000E+00 0.  1.
         22    1    1    2    0    0 -0.96510131070E+03 -0.34689740633E+03 -0.58785830748E+03  0.11820895652E+04  0.00000000000E+00 0. -1.
<mgrwt>
<rscale>  0 0.23645891E+04</rscale>
<asrwt>0</asrwt>
<pdfrwt beam="1">  1        2 0.18236307E+00 0.23645891E+04</pdfrwt>
<pdfrwt beam="2">  1       -2 0.18142109E+00 0.23645891E+04</pdfrwt>
<totfact> 0.30900327E+00</totfact>
</mgrwt>
</event>
<event>
 6    1  0.1568961E-005  0.2276223E+04  0.7818608E-02  0.8487355E-01
         -1   -1    0    0    0  501 -0.00000000000E+00  0.00000000000E+00  0.10607922441E+04  0.10607922441E+04  0.00000000000E+00 0.  1.
          1   -1    0    0  501    0  0.00000000000E+00 -0.00000000000E+00 -0.12210667645E+04  0.12210667645E+04  0.00000000000E+00 0. -1.
         23    2    1    2    0    0 -0.67858872735E+03  0.70770058310E+03  0.49535766358E+03  0.11023776239E+04  0.92382003157E+02 0.  0.
         11    1    3    3    0    0 -0.45728363198E+03  0.42456180528E+03  0.28523503704E+03  0.68609042621E+03  0.00000000000E+00 0.  1.
        -11    1    3    3    0    0 -0.22130509537E+03  0.28313877782E+03  0.21012262654E+03  0.41628719765E+03  0.00000000000E+00 0. -1.
         22    1    1    2    0    0  0.67858872735E+03 -0.70770058310E+03 -0.65563218398E+03  0.11794813847E+04  0.00000000000E+00 0. -1.
<mgrwt>
<rscale>  0 0.22762233E+04</rscale>
<asrwt>0</asrwt>
<pdfrwt beam="1">  1        1 0.18785642E+00 0.22762233E+04</pdfrwt>
<pdfrwt beam="2">  1       -1 0.16319881E+00 0.22762233E+04</pdfrwt>
<totfact> 0.25825607E+00</totfact>
</mgrwt>
</event>
<event>
 6    1  0.1568961E-005  0.2173340E+04  0.7818608E-02  0.8529607E-01
          2   -1    0    0  501    0  0.00000000000E+00  0.00000000000E+00  0.23354391025E+04  0.23354391025E+04  0.00000000000E+00 0. -1.
         -2   -1    0    0    0  501 -0.00000000000E+00 -0.00000000000E+00 -0.50562304481E+03  0.50562304481E+03  0.00000000000E+00 0.  1.
         23    2    1    2    0    0 -0.22037914903E+03 -0.68437621477E+03 -0.14527659918E+03  0.73917519130E+03  0.91306629010E+02 0.  0.
         13    1    3    3    0    0 -0.11210382085E+03 -0.39119131125E+03 -0.37872037447E+02  0.40869573018E+03  0.00000000000E+00 0.  1.
        -13    1    3    3    0    0 -0.10827532819E+03 -0.29318490351E+03 -0.10740456173E+03  0.33047946112E+03  0.00000000000E+00 0. -1.
         22    1    1    2    0    0  0.22037914903E+03  0.68437621477E+03  0.19750926569E+04  0.21018869560E+04  0.00000000000E+00 0. -1.
<mgrwt>
<rscale>  0 0.21733401E+04</rscale>
<asrwt>0</asrwt>
<pdfrwt beam="1">  1        2 0.35929832E+00 0.21733401E+04</pdfrwt>
<pdfrwt beam="2">  1       -2 0.77788162E-01 0.21733401E+04</pdfrwt>
<totfact> 0.58360560E+00</totfact>
</mgrwt>
</event>
<event>
 6    1  0.1568961E-005  0.1225252E+04  0.7818608E-02  0.9091036E-01
          2   -1    0    0  501    0  0.00000000000E+00  0.00000000000E+00  0.16365487576E+04  0.16365487576E+04  0.00000000000E+00 0. -1.
         -2   -1    0    0    0  501 -0.00000000000E+00 -0.00000000000E+00 -0.22933048198E+03  0.22933048198E+03  0.00000000000E+00 0.  1.
         23    2    1    2    0    0  0.55137699492E+03  0.21152025455E+03  0.48260429227E+03  0.76876100218E+03  0.96587612823E+02 0.  0.
         11    1    3    3    0    0  0.50301231129E+03  0.21164442355E+03  0.41479299270E+03  0.68546916351E+03  0.00000000000E+00 0.  1.
        -11    1    3    3    0    0  0.48364683625E+02 -0.12416899600E+00  0.67811299573E+02  0.83291838675E+02  0.00000000000E+00 0. -1.
         22    1    1    2    0    0 -0.55137699492E+03 -0.21152025455E+03  0.92461398334E+03  0.10971182374E+04  0.00000000000E+00 0.  1.
<mgrwt>
<rscale>  0 0.12252518E+04</rscale>
<asrwt>0</asrwt>
<pdfrwt beam="1">  1        2 0.25177672E+00 0.12252518E+04</pdfrwt>
<pdfrwt beam="2">  1       -2 0.35281614E-01 0.12252518E+04</pdfrwt>
<totfact> 0.79042715E+01</totfact>
</mgrwt>
</event>
<event>
 6    1  0.1568961E-005  0.2409168E+04  0.7818608E-02  0.8436079E-01
         -1   -1    0    0    0  501 -0.00000000000E+00  0.00000000000E+00  0.96121801420E+03  0.96121801420E+03  0.00000000000E+00 0.  1.
          1   -1    0    0  501    0  0.00000000000E+00 -0.00000000000E+00 -0.15095660565E+04  0.15095660565E+04  0.00000000000E+00 0. -1.
         23    2    1    2    0    0  0.10205286081E+04  0.32172427983E+03  0.28898737508E+03  0.11120656475E+04  0.90504968039E+02 0.  0.
         13    1    3    3    0    0  0.54940296558E+03  0.14543990369E+03  0.11536275338E+03  0.57991805373E+03  0.00000000000E+00 0. -1.
        -13    1    3    3    0    0  0.47112564255E+03  0.17628437614E+03  0.17362462170E+03  0.53214759381E+03  0.00000000000E+00 0.  1.
         22    1    1    2    0    0 -0.10205286081E+04 -0.32172427983E+03 -0.83733541740E+03  0.13587184232E+04  0.00000000000E+00 0. -1.
<mgrwt>
<rscale>  0 0.24091676E+04</rscale>
<asrwt>0</asrwt>
<pdfrwt beam="1">  1        1 0.23224093E+00 0.24091676E+04</pdfrwt>
<pdfrwt beam="2">  1       -1 0.14787970E+00 0.24091676E+04</pdfrwt>
<totfact> 0.20913766E+00</totfact>
</mgrwt>
</event>
<event>
 6    1  0.1568961E-005  0.1027106E+04  0.7818608E-02  0.9279306E-01
          1   -1    0    0  501    0  0.00000000000E+00  0.00000000000E+00  0.14821459850E+04  0.14821459850E+04  0.00000000000E+00 0. -1.
         -1   -1    0    0    0  501 -0.00000000000E+00 -0.00000000000E+00 -0.17794229112E+03  0.17794229112E+03  0.00000000000E+00 0.  1.
         23    2    1    2    0    0 -0.11776882063E+03  0.48449635839E+03  0.49240954251E+03  0.70739947036E+03  0.96646969482E+02 0.  0.
         13    1    3    3    0    0 -0.36998984513E+02  0.97466171223E+02  0.55307710403E+02  0.11801492371E+03  0.00000000000E+00 0. -1.
        -13    1    3    3    0    0 -0.80769836114E+02  0.38703018717E+03  0.43710183210E+03  0.58938454665E+03  0.00000000000E+00 0.  1.
         22    1    1    2    0    0  0.11776882063E+03 -0.48449635839E+03  0.81179415139E+03  0.95268880577E+03  0.00000000000E+00 0. -1.
<mgrwt>
<rscale>  0 0.10271055E+04</rscale>
<asrwt>0</asrwt>
<pdfrwt beam="1">  1        1 0.22802245E+00 0.10271055E+04</pdfrwt>
<pdfrwt beam="2">  1       -1 0.27375738E-01 0.10271055E+04</pdfrwt>
<totfact> 0.80665877E+01</totfact>
</mgrwt>
</event>
<event>
 6    1  0.1568961E-005  0.1752357E+04  0.7818608E-02  0.8732054E-01
         -2   -1    0    0    0  501 -0.00000000000E+00  0.00000000000E+00  0.22126216995E+03  0.22126216995E+03  0.00000000000E+00 0.  1.
          2   -1    0    0  501    0  0.00000000000E+00 -0.00000000000E+00 -0.34695893575E+04  0.34695893575E+04  0.00000000000E+00 0. -1.
         23    2    1    2    0    0 -0.77982603838E+03 -0.39102836490E+03 -0.17347440938E+04  0.19438639448E+04  0.90764158962E+02 0.  0.
         13    1    3    3    0    0 -0.46624404643E+03 -0.23845743628E+03 -0.94134747839E+03  0.10772096058E+04  0.00000000000E+00 0. -1.
        -13    1    3    3    0    0 -0.31358199196E+03 -0.15257092861E+03 -0.79339661543E+03  0.86665433901E+03  0.00000000000E+00 0.  1.
         22    1    1    2    0    0  0.77982603838E+03  0.39102836490E+03 -0.15135830937E+04  0.17469875826E+04  0.00000000000E+00 0. -1.
<mgrwt>
<rscale>  0 0.17523571E+04</rscale>
<asrwt>0</asrwt>
<pdfrwt beam="1">  1        2 0.53378300E+00 0.17523571E+04</pdfrwt>
<pdfrwt beam="2">  1       -2 0.34040333E-01 0.17523571E+04</pdfrwt>
<totfact> 0.65929045E+00</totfact>
</mgrwt>
</event>
<event>
 6    1  0.1568961E-005  0.2818240E+04  0.7818608E-02  0.8297628E-01
          2   -1    0    0  501    0  0.00000000000E+00  0.00000000000E+00  0.28394389830E+04  0.28394389830E+04  0.00000000000E+00 0. -1.
         -2   -1    0    0    0  501 -0.00000000000E+00 -0.00000000000E+00 -0.69929994490E+03  0.69929994490E+03  0.00000000000E+00 0.  1.
         23    2    1    2    0    0 -0.36429066736E+03  0.59766409258E+03 -0.46237892862E+03  0.84374174330E+03  0.90530645997E+02 0.  0.
         13    1    3    3    0    0 -0.32620507088E+03  0.48165079239E+03 -0.40506621652E+03  0.70885532645E+03  0.00000000000E+00 0. -1.
        -13    1    3    3    0    0 -0.38085596485E+02  0.11601330020E+03 -0.57312712103E+02  0.13488641685E+03  0.00000000000E+00 0.  1.
         22    1    1    2    0    0  0.36429066736E+03 -0.59766409258E+03  0.26025179667E+04  0.26949971846E+04  0.00000000000E+00 0. -1.
<mgrwt>
<rscale>  0 0.28182402E+04</rscale>
<asrwt>0</asrwt>
<pdfrwt beam="1">  1        2 0.43683676E+00 0.28182402E+04</pdfrwt>
<pdfrwt beam="2">  1       -2 0.10758461E+00 0.28182402E+04</pdfrwt>
<totfact> 0.13175871E+00</totfact>
</mgrwt>
</event>
<event>
 6    1  0.1568961E-005  0.1545719E+04  0.7818608E-02  0.8854607E-01
          2   -1    0    0  501    0  0.00000000000E+00  0.00000000000E+00  0.12713026355E+04  0.12713026355E+04  0.00000000000E+00 0.  1.
         -2   -1    0    0    0  501 -0.00000000000E+00 -0.00000000000E+00 -0.46984224557E+03  0.46984224557E+03  0.00000000000E+00 0. -1.
         23    2    1    2    0    0  0.74751975578E+03  0.18547631378E+03  0.37992154563E+03  0.86314588021E+03  0.86563164430E+02 0.  0.
         13    1    3    3    0    0  0.35459359614E+03  0.13023659566E+03  0.20066096225E+03  0.42774175742E+03  0.00000000000E+00 0. -1.
        -13    1    3    3    0    0  0.39292615964E+03  0.55239718128E+02  0.17926058338E+03  0.43540412279E+03  0.00000000000E+00 0.  1.
         22    1    1    2    0    0 -0.74751975578E+03 -0.18547631378E+03  0.42153884429E+03  0.87799900085E+03  0.00000000000E+00 0. -1.
<mgrwt>
<rscale>  0 0.15457188E+04</rscale>
<asrwt>0</asrwt>
<pdfrwt beam="1">  1        2 0.19558502E+00 0.15457188E+04</pdfrwt>
<pdfrwt beam="2">  1       -2 0.72283423E-01 0.15457188E+04</pdfrwt>
<totfact> 0.28667546E+01</totfact>
</mgrwt>
</event>
<event>
 6    1  0.1568961E-005  0.1415321E+04  0.7818608E-02  0.8942803E-01
          1   -1    0    0  501    0  0.00000000000E+00  0.00000000000E+00  0.39408404502E+04  0.39408404502E+04  0.00000000000E+00 0. -1.
         -1   -1    0    0    0  501 -0.00000000000E+00 -0.00000000000E+00 -0.12707518610E+03  0.12707518610E+03  0.00000000000E+00 0.  1.
         23    2    1    2    0    0  0.69732743781E+03  0.19556268254E+02  0.16280929970E+04  0.17736159039E+04  0.91534498140E+02 0.  0.
         13    1    3    3    0    0  0.43022706637E+03  0.19441557864E+02  0.89106928780E+03  0.98968569681E+03  0.00000000000E+00 0.  1.
        -13    1    3    3    0    0  0.26710037144E+03  0.11471039004E+00  0.73702370925E+03  0.78393020708E+03  0.00000000000E+00 0. -1.
         22    1    1    2    0    0 -0.69732743781E+03 -0.19556268254E+02  0.21856722671E+04  0.22942997325E+04  0.00000000000E+00 0. -1.
<mgrwt>
<rscale>  0 0.14153205E+04</rscale>
<asrwt>0</asrwt>
<pdfrwt beam="1">  1        1 0.60628305E+00 0.14153205E+04</pdfrwt>
<pdfrwt beam="2">  1       -1 0.19550032E-01 0.14153205E+04</pdfrwt>
<totfact> 0.22856960E+00</totfact>
</mgrwt>
</event>
<event>
 6    1  0.1568961E-005  0.1620900E+04  0.7818608E-02  0.8807810E-01
         -2   -1    0    0    0  501 -0.00000000000E+00  0.00000000000E+00  0.37440368061E+03  0.37440368061E+03  0.00000000000E+00 0.  1.
          2   -1    0    0  501    0  0.00000000000E+00 -0.00000000000E+00 -0.17543351615E+04  0.17543351615E+04  0.00000000000E+00 0. -1.
         23    2    1    2    0    0 -0.20637329223E+03 -0.65097705772E+03 -0.12509345683E+03  0.70011029275E+03  0.90249563181E+02 0.  0.
         13    1    3    3    0    0 -0.14516819315E+03 -0.38018957116E+03 -0.11241506595E+03  0.42220263070E+03  0.00000000000E+00 0. -1.
        -13    1    3    3    0    0 -0.61205099086E+02 -0.27078748656E+03 -0.12678390881E+02  0.27790766205E+03  0.00000000000E+00 0.  1.
         22    1    1    2    0    0  0.20637329223E+03  0.65097705772E+03 -0.12548380241E+04  0.14286285494E+04  0.00000000000E+00 0. -1.
<mgrwt>
<rscale>  0 0.16209004E+04</rscale>
<asrwt>0</asrwt>
<pdfrwt beam="1">  1        2 0.26989772E+00 0.16209004E+04</pdfrwt>
<pdfrwt beam="2">  1       -2 0.57600566E-01 0.16209004E+04</pdfrwt>
<totfact> 0.24718756E+01</totfact>
</mgrwt>
</event>
<event>
 6    1  0.1568961E-005  0.1697901E+04  0.7818608E-02  0.8762563E-01
          1   -1    0    0  501    0  0.00000000000E+00  0.00000000000E+00  0.90016103306E+03  0.90016103306E+03  0.00000000000E+00 0. -1.
         -1   -1    0    0    0  501 -0.00000000000E+00 -0.00000000000E+00 -0.80065298469E+03  0.80065298469E+03  0.00000000000E+00 0.  1.
         23    2    1    2    0    0 -0.41803043340E+03  0.37543404903E+03 -0.58425379171E+03  0.81581095427E+03  0.92167519016E+02 0.  0.
         11    1    3    3    0    0 -0.28685933112E+03  0.22175895458E+03 -0.32332922045E+03  0.48580561399E+03  0.00000000000E+00 0. -1.
        -11    1    3    3    0    0 -0.13117110228E+03  0.15367509446E+03 -0.26092457125E+03  0.33000534028E+03  0.00000000000E+00 0.  1.
         22    1    1    2    0    0  0.41803043340E+03 -0.37543404903E+03  0.68376184008E+03  0.88500306348E+03  0.00000000000E+00 0. -1.
<mgrwt>
<rscale>  0 0.16979006E+04</rscale>
<asrwt>0</asrwt>
<pdfrwt beam="1">  1        1 0.13848631E+00 0.16979006E+04</pdfrwt>
<pdfrwt beam="2">  1       -1 0.12317738E+00 0.16979006E+04</pdfrwt>
<totfact> 0.10051712E+01</totfact>
</mgrwt>
</event>
<event>
 6    1  0.1568961E-005  0.8241303E+03  0.7818608E-02  0.9525732E-01
          2   -1    0    0  501    0  0.00000000000E+00  0.00000000000E+00  0.19940389526E+04  0.19940389526E+04  0.00000000000E+00 0. -1.
         -2   -1    0    0    0  501 -0.00000000000E+00 -0.00000000000E+00 -0.85152643927E+02  0.85152643927E+02  0.00000000000E+00 0.  1.
         23    2    1    2    0    0  0.33733708641E+03 -0.12589459556E+03  0.49632430418E+03  0.62146145154E+03  0.10114722822E+03 0.  0.
         11    1    3    3    0    0  0.16658769350E+03 -0.53543708021E+02  0.32439327551E+03  0.36857751626E+03  0.00000000000E+00 0.  1.
        -11    1    3    3    0    0  0.17074939291E+03 -0.72350887535E+02  0.17193102867E+03  0.25288393529E+03  0.00000000000E+00 0. -1.
         22    1    1    2    0    0 -0.33733708641E+03  0.12589459556E+03  0.14125620044E+04  0.14577301449E+04  0.00000000000E+00 0. -1.
<mgrwt>
<rscale>  0 0.82413030E+03</rscale>
<asrwt>0</asrwt>
<pdfrwt beam="1">  1        2 0.30677519E+00 0.82413030E+03</pdfrwt>
<pdfrwt beam="2">  1       -2 0.13100408E-01 0.82413030E+03</pdfrwt>
<totfact> 0.30140634E+02</totfact>
</mgrwt>
</event>
<event>
 6    1  0.1568961E-005  0.1808454E+04  0.7818608E-02  0.8701817E-01
          2   -1    0    0  501    0  0.00000000000E+00  0.00000000000E+00  0.41960017162E+03  0.41960017162E+03  0.00000000000E+00 0. -1.
         -2   -1    0    0    0  501 -0.00000000000E+00 -0.00000000000E+00 -0.19485844160E+04  0.19485844160E+04  0.00000000000E+00 0.  1.
         23    2    1    2    0    0 -0.42172786047E+03 -0.65954803715E+03 -0.17934804541E+03  0.80793593078E+03  0.87958770134E+02 0.  0.
         13    1    3    3    0    0 -0.34237969006E+03 -0.47249949203E+03 -0.15150336395E+03  0.60285395530E+03  0.00000000000E+00 0. -1.
        -13    1    3    3    0    0 -0.79348170408E+02 -0.18704854513E+03 -0.27844681458E+02  0.20508197548E+03  0.00000000000E+00 0.  1.
         22    1    1    2    0    0  0.42172786047E+03  0.65954803715E+03 -0.13496361990E+04  0.15602486569E+04  0.00000000000E+00 0.  1.
<mgrwt>
<rscale>  0 0.18084539E+04</rscale>
<asrwt>0</asrwt>
<pdfrwt beam="1">  1        2 0.64553873E-01 0.18084539E+04</pdfrwt>
<pdfrwt beam="2">  1       -2 0.29978222E+00 0.18084539E+04</pdfrwt>
<totfact> 0.22693826E+00</totfact>
</mgrwt>
</event>
<event>
 6    1  0.1568961E-005  0.8343390E+03  0.7818608E-02  0.9511601E-01
         -2   -1    0    0    0  501 -0.00000000000E+00  0.00000000000E+00  0.11972636606E+03  0.11972636606E+03  0.00000000000E+00 0.  1.
          2   -1    0    0  501    0  0.00000000000E+00 -0.00000000000E+00 -0.14535679827E+04  0.14535679827E+04  0.00000000000E+00 0. -1.
         23    2    1    2    0    0  0.10139228379E+03 -0.12827614636E+03 -0.13883194613E+04  0.14009487643E+04  0.92148514029E+02 0.  0.
         13    1    3    3    0    0  0.92158683347E+01 -0.18657516075E+02 -0.40426532162E+02  0.45468006751E+02  0.00000000000E+00 0.  1.
        -13    1    3    3    0    0  0.92176415459E+02 -0.10961863028E+03 -0.13478929291E+04  0.13554807575E+04  0.00000000000E+00 0. -1.
         22    1    1    2    0    0 -0.10139228379E+03  0.12827614636E+03  0.54477844634E+02  0.17234558449E+03  0.00000000000E+00 0.  1.
<mgrwt>
<rscale>  0 0.83433905E+03</rscale>
<asrwt>0</asrwt>
<pdfrwt beam="1">  1        2 0.22362585E+00 0.83433905E+03</pdfrwt>
<pdfrwt beam="2">  1       -2 0.18419441E-01 0.83433905E+03</pdfrwt>
<totfact> 0.33470512E+02</totfact>
</mgrwt>
</event>
<event>
 6    1  0.1568961E-005  0.4753025E+04  0.7818608E-02  0.7867777E-01
         -2   -1    0    0    0  501 -0.00000000000E+00  0.00000000000E+00  0.19844845822E+04  0.19844845822E+04  0.00000000000E+00 0.  1.
          2   -1    0    0  501    0  0.00000000000E+00 -0.00000000000E+00 -0.28459847119E+04  0.28459847119E+04  0.00000000000E+00 0. -1.
         23    2    1    2    0    0  0.15738710515E+04 -0.71132283794E+02 -0.22381525577E+04  0.27382690656E+04  0.81613207712E+02 0.  0.
         13    1    3    3    0    0  0.67753469328E+03 -0.66799181993E+02 -0.93480128925E+03  0.11564466445E+04  0.00000000000E+00 0. -1.
        -13    1    3    3    0    0  0.89633635822E+03 -0.43331018010E+01 -0.13033512685E+04  0.15818224211E+04  0.00000000000E+00 0.  1.
         22    1    1    2    0    0 -0.15738710515E+04  0.71132283794E+02  0.13766524280E+04  0.20922002285E+04  0.00000000000E+00 0.  1.
<mgrwt>
<rscale>  0 0.47530255E+04</rscale>
<asrwt>0</asrwt>
<pdfrwt beam="1">  1        2 0.43784380E+00 0.47530255E+04</pdfrwt>
<pdfrwt beam="2">  1       -2 0.30530532E+00 0.47530255E+04</pdfrwt>
<totfact> 0.47460297E-02</totfact>
</mgrwt>
</event>
<event>
 6    1  0.1568961E-005  0.2017805E+04  0.7818608E-02  0.8598341E-01
         -2   -1    0    0    0  501 -0.00000000000E+00  0.00000000000E+00  0.81076074183E+03  0.81076074183E+03  0.00000000000E+00 0.  1.
          2   -1    0    0  501    0  0.00000000000E+00 -0.00000000000E+00 -0.12554679282E+04  0.12554679282E+04  0.00000000000E+00 0. -1.
         23    2    1    2    0    0 -0.93880885343E+03 -0.36384372220E+03 -0.22754433747E+03  0.10362267184E+04  0.90802362087E+02 0.  0.
         13    1    3    3    0    0 -0.50746393680E+03 -0.23661233947E+03 -0.10003031427E+03  0.56878037071E+03  0.00000000000E+00 0. -1.
        -13    1    3    3    0    0 -0.43134491663E+03 -0.12723138273E+03 -0.12751402320E+03  0.46744634769E+03  0.00000000000E+00 0.  1.
         22    1    1    2    0    0  0.93880885343E+03  0.36384372220E+03 -0.21716284893E+03  0.10300019517E+04  0.00000000000E+00 0.  1.
<mgrwt>
<rscale>  0 0.20178049E+04</rscale>
<asrwt>0</asrwt>
<pdfrwt beam="1">  1        2 0.19314891E+00 0.20178049E+04</pdfrwt>
<pdfrwt beam="2">  1       -2 0.12473242E+00 0.20178049E+04</pdfrwt>
<totfact> 0.78531445E+00</totfact>
</mgrwt>
</event>
<event>
 6    1  0.1568961E-005  0.8925226E+03  0.7818608E-02  0.9434977E-01
         -2   -1    0    0    0  501 -0.00000000000E+00  0.00000000000E+00  0.16181835030E+03  0.16181835030E+03  0.00000000000E+00 0.  1.
          2   -1    0    0  501    0  0.00000000000E+00 -0.00000000000E+00 -0.12306956486E+04  0.12306956486E+04  0.00000000000E+00 0. -1.
         23    2    1    2    0    0 -0.11808466748E+02 -0.25486850237E+03  0.25079283578E+02  0.26919819451E+03  0.82105444851E+02 0.  0.
         11    1    3    3    0    0 -0.28925907430E+02 -0.22323112005E+03 -0.43369699890E+00  0.22509782134E+03  0.00000000000E+00 0. -1.
        -11    1    3    3    0    0  0.17117440682E+02 -0.31637382321E+02  0.25512980577E+02  0.44100373168E+02  0.00000000000E+00 0.  1.
         22    1    1    2    0    0  0.11808466748E+02  0.25486850237E+03 -0.10939565819E+04  0.11233158044E+04  0.00000000000E+00 0. -1.
<mgrwt>
<rscale>  0 0.89252258E+03</rscale>
<asrwt>0</asrwt>
<pdfrwt beam="1">  1        2 0.18933780E+00 0.89252258E+03</pdfrwt>
<pdfrwt beam="2">  1       -2 0.24895130E-01 0.89252258E+03</pdfrwt>
<totfact> 0.26288680E+02</totfact>
</mgrwt>
</event>
<event>
 6    1  0.1568961E-005  0.6114419E+04  0.7818608E-02  0.7676375E-01
          2   -1    0    0  501    0  0.00000000000E+00  0.00000000000E+00  0.44309480151E+04  0.44309480151E+04  0.00000000000E+00 0.  1.
         -2   -1    0    0    0  501 -0.00000000000E+00 -0.00000000000E+00 -0.21093749629E+04  0.21093749629E+04  0.00000000000E+00 0. -1.
         23    2    1    2    0    0  0.20908738267E+03  0.10097694555E+04 -0.19167013750E+04  0.21784057383E+04  0.91408493630E+02 0.  0.
         13    1    3    3    0    0  0.13803948644E+03  0.60144790438E+03 -0.12353783706E+04  0.13809251247E+04  0.00000000000E+00 0. -1.
        -13    1    3    3    0    0  0.71047896232E+02  0.40832155114E+03 -0.68132300438E+03  0.79748061355E+03  0.00000000000E+00 0.  1.
         22    1    1    2    0    0 -0.20908738267E+03 -0.10097694555E+04  0.42382744271E+04  0.43619172398E+04  0.00000000000E+00 0.  1.
<mgrwt>
<rscale>  0 0.61144193E+04</rscale>
<asrwt>0</asrwt>
<pdfrwt beam="1">  1        2 0.68168431E+00 0.61144193E+04</pdfrwt>
<pdfrwt beam="2">  1       -2 0.32451923E+00 0.61144193E+04</pdfrwt>
<totfact> 0.21260414E-03</totfact>
</mgrwt>
</event>
<event>
 6    1  0.1568961E-005  0.4163964E+04  0.7818608E-02  0.7972263E-01
          2   -1    0    0  501    0  0.00000000000E+00  0.00000000000E+00  0.24090010643E+04  0.24090010643E+04  0.00000000000E+00 0. -1.
         -2   -1    0    0    0  501 -0.00000000000E+00 -0.00000000000E+00 -0.17993551936E+04  0.17993551936E+04  0.00000000000E+00 0.  1.
         23    2    1    2    0    0  0.33711624370E+03 -0.18910241264E+04 -0.50402506190E+03  0.19880223744E+04  0.92585579903E+02 0.  0.
         13    1    3    3    0    0  0.26139785062E+03 -0.14641750292E+04 -0.34992203936E+03  0.15279341563E+04  0.00000000000E+00 0. -1.
        -13    1    3    3    0    0  0.75718393086E+02 -0.42684909716E+03 -0.15410302254E+03  0.46008821801E+03  0.00000000000E+00 0.  1.
         22    1    1    2    0    0 -0.33711624370E+03  0.18910241264E+04  0.11136709326E+04  0.22203338835E+04  0.00000000000E+00 0. -1.
<mgrwt>
<rscale>  0 0.41639638E+04</rscale>
<asrwt>0</asrwt>
<pdfrwt beam="1">  1        2 0.37061555E+00 0.41639638E+04</pdfrwt>
<pdfrwt beam="2">  1       -2 0.27682388E+00 0.41639638E+04</pdfrwt>
<totfact> 0.13468033E-01</totfact>
</mgrwt>
</event>
<event>
 6    1  0.1568961E-005  0.6718038E+04  0.7818608E-02  0.7607234E-01
          2   -1    0    0  501    0  0.00000000000E+00  0.00000000000E+00  0.40963247755E+04  0.40963247755E+04  0.00000000000E+00 0. -1.
         -2   -1    0    0    0  501 -0.00000000000E+00 -0.00000000000E+00 -0.27544220203E+04  0.27544220203E+04  0.00000000000E+00 0.  1.
         23    2    1    2    0    0 -0.25289299824E+03 -0.33420249389E+04  0.88943605001E+03  0.34687634014E+04  0.90208022594E+02 0.  0.
         13    1    3    3    0    0 -0.16738810111E+03 -0.16500135348E+04  0.45586426309E+03  0.17199929266E+04  0.00000000000E+00 0.  1.
        -13    1    3    3    0    0 -0.85504897126E+02 -0.16920114041E+04  0.43357178692E+03  0.17487704748E+04  0.00000000000E+00 0. -1.
         22    1    1    2    0    0  0.25289299824E+03  0.33420249389E+04  0.45246670525E+03  0.33819833944E+04  0.00000000000E+00 0.  1.
<mgrwt>
<rscale>  0 0.67180376E+04</rscale>
<asrwt>0</asrwt>
<pdfrwt beam="1">  1        2 0.63020381E+00 0.67180376E+04</pdfrwt>
<pdfrwt beam="2">  1       -2 0.42375724E+00 0.67180376E+04</pdfrwt>
<totfact> 0.93670811E-04</totfact>
</mgrwt>
</event>
<event>
 6    1  0.1568961E-005  0.1368207E+04  0.7818608E-02  0.8977159E-01
          2   -1    0    0  501    0  0.00000000000E+00  0.00000000000E+00  0.51329278773E+03  0.51329278773E+03  0.00000000000E+00 0. -1.
         -2   -1    0    0    0  501 -0.00000000000E+00 -0.00000000000E+00 -0.91175582421E+03  0.91175582421E+03  0.00000000000E+00 0.  1.
         23    2    1    2    0    0 -0.49032168315E+03  0.46102597215E+03 -0.90423061360E+02  0.68488043765E+03  0.89020131931E+02 0.  0.
         13    1    3    3    0    0 -0.22756194970E+03  0.16704370658E+03 -0.10001234427E+02  0.28246781330E+03  0.00000000000E+00 0. -1.
        -13    1    3    3    0    0 -0.26275973345E+03  0.29398226557E+03 -0.80421826933E+02  0.40241262435E+03  0.00000000000E+00 0.  1.
         22    1    1    2    0    0  0.49032168315E+03 -0.46102597215E+03 -0.30803997512E+03  0.74016817429E+03  0.00000000000E+00 0. -1.
<mgrwt>
<rscale>  0 0.13682071E+04</rscale>
<asrwt>0</asrwt>
<pdfrwt beam="1">  1        2 0.78968122E-01 0.13682071E+04</pdfrwt>
<pdfrwt beam="2">  1       -2 0.14027013E+00 0.13682071E+04</pdfrwt>
<totfact> 0.20804810E+01</totfact>
</mgrwt>
</event>
<event>
 6    1  0.1568961E-005  0.3890902E+04  0.7818608E-02  0.8026924E-01
         -1   -1    0    0    0  501 -0.00000000000E+00  0.00000000000E+00  0.12465217241E+04  0.12465217241E+04  0.00000000000E+00 0.  1.
          1   -1    0    0  501    0  0.00000000000E+00 -0.00000000000E+00 -0.30362729619E+04  0.30362729619E+04  0.00000000000E+00 0. -1.
         23    2    1    2    0    0  0.13798136062E+04 -0.93990935845E+02  0.60901651747E+03  0.15138947913E+04  0.90864936629E+02 0.  0.
         11    1    3    3    0    0  0.41519983923E+03 -0.69871048420E+02  0.19029435331E+03  0.46204416543E+03  0.00000000000E+00 0.  1.
        -11    1    3    3    0    0  0.96461376692E+03 -0.24119887425E+02  0.41872216417E+03  0.10518506258E+04  0.00000000000E+00 0. -1.
         22    1    1    2    0    0 -0.13798136062E+04  0.93990935845E+02 -0.23987677553E+04  0.27688998948E+04  0.00000000000E+00 0. -1.
<mgrwt>
<rscale>  0 0.38909023E+04</rscale>
<asrwt>0</asrwt>
<pdfrwt beam="1">  1        1 0.46711892E+00 0.38909023E+04</pdfrwt>
<pdfrwt beam="2">  1       -1 0.19177257E+00 0.38909023E+04</pdfrwt>
<totfact> 0.76196479E-02</totfact>
</mgrwt>
</event>
<event>
 6    1  0.1568961E-005  0.1933861E+04  0.7818608E-02  0.8638183E-01
          2   -1    0    0  501    0  0.00000000000E+00  0.00000000000E+00  0.39012717069E+04  0.39012717069E+04  0.00000000000E+00 0. -1.
         -2   -1    0    0    0  501 -0.00000000000E+00 -0.00000000000E+00 -0.23965392097E+03  0.23965392097E+03  0.00000000000E+00 0.  1.
         23    2    1    2    0    0  0.79734365178E+03 -0.24557283156E+03  0.79738426922E+03  0.11576561877E+04  0.91012424468E+02 0.  0.
         13    1    3    3    0    0  0.74862725226E+03 -0.20608629366E+03  0.74162822086E+03  0.10737442625E+04  0.00000000000E+00 0. -1.
        -13    1    3    3    0    0  0.48716399521E+02 -0.39486537900E+02  0.55756048362E+02  0.83911925175E+02  0.00000000000E+00 0.  1.
         22    1    1    2    0    0 -0.79734365178E+03  0.24557283156E+03  0.28642335167E+04  0.29832694402E+04  0.00000000000E+00 0. -1.
<mgrwt>
<rscale>  0 0.19338615E+04</rscale>
<asrwt>0</asrwt>
<pdfrwt beam="1">  1        2 0.60019560E+00 0.19338615E+04</pdfrwt>
<pdfrwt beam="2">  1       -2 0.36869837E-01 0.19338615E+04</pdfrwt>
<totfact> 0.26832402E+00</totfact>
</mgrwt>
</event>
<event>
 6    1  0.1568961E-005  0.2570080E+04  0.7818608E-02  0.8378436E-01
          2   -1    0    0  501    0  0.00000000000E+00  0.00000000000E+00  0.25507828273E+04  0.25507828273E+04  0.00000000000E+00 0.  1.
         -2   -1    0    0    0  501 -0.00000000000E+00 -0.00000000000E+00 -0.64738103660E+03  0.64738103660E+03  0.00000000000E+00 0. -1.
         23    2    1    2    0    0  0.12721022889E+04 -0.38337405012E+02  0.11586846257E+04  0.17236071014E+04  0.92506152873E+02 0.  0.
         11    1    3    3    0    0  0.74382945725E+03  0.29911493009E+01  0.62514954744E+03  0.97164971317E+03  0.00000000000E+00 0. -1.
        -11    1    3    3    0    0  0.52827283161E+03 -0.41328554312E+02  0.53353507824E+03  0.75195738824E+03  0.00000000000E+00 0.  1.
         22    1    1    2    0    0 -0.12721022889E+04  0.38337405012E+02  0.74471716500E+03  0.14745567625E+04  0.00000000000E+00 0.  1.
<mgrwt>
<rscale>  0 0.25700805E+04</rscale>
<asrwt>0</asrwt>
<pdfrwt beam="1">  1        2 0.39242812E+00 0.25700805E+04</pdfrwt>
<pdfrwt beam="2">  1       -2 0.99597083E-01 0.25700805E+04</pdfrwt>
<totfact> 0.24044422E+00</totfact>
</mgrwt>
</event>
<event>
 6    1  0.1568961E-005  0.2100526E+04  0.7818608E-02  0.8561012E-01
          2   -1    0    0  501    0  0.00000000000E+00  0.00000000000E+00  0.10090894845E+04  0.10090894845E+04  0.00000000000E+00 0.  1.
         -2   -1    0    0    0  501 -0.00000000000E+00 -0.00000000000E+00 -0.10931162884E+04  0.10931162884E+04  0.00000000000E+00 0. -1.
         23    2    1    2    0    0 -0.15554912546E+03 -0.99008926081E+03  0.26527729906E+03  0.10408454990E+04  0.92276934026E+02 0.  0.
         13    1    3    3    0    0 -0.10002331828E+03 -0.56577203131E+03  0.10606993908E+03  0.58425464276E+03  0.00000000000E+00 0. -1.
        -13    1    3    3    0    0 -0.55525807183E+02 -0.42431722950E+03  0.15920735997E+03  0.45659085622E+03  0.00000000000E+00 0.  1.
         22    1    1    2    0    0  0.15554912546E+03  0.99008926081E+03 -0.34930410297E+03  0.10613602740E+04  0.00000000000E+00 0. -1.
<mgrwt>
<rscale>  0 0.21005258E+04</rscale>
<asrwt>0</asrwt>
<pdfrwt beam="1">  1        2 0.15524454E+00 0.21005258E+04</pdfrwt>
<pdfrwt beam="2">  1       -2 0.16817174E+00 0.21005258E+04</pdfrwt>
<totfact> 0.50292540E+00</totfact>
</mgrwt>
</event>
<event>
 6    1  0.1568961E-005  0.4805978E+04  0.7818608E-02  0.7859154E-01
         -2   -1    0    0    0  501 -0.00000000000E+00  0.00000000000E+00  0.22414573563E+04  0.22414573563E+04  0.00000000000E+00 0. -1.
          2   -1    0    0  501    0  0.00000000000E+00 -0.00000000000E+00 -0.25761617666E+04  0.25761617666E+04  0.00000000000E+00 0.  1.
         23    2    1    2    0    0 -0.32945569584E+02 -0.20678557252E+04 -0.13929872925E+04  0.24944584807E+04  0.69258962740E+02 0.  0.
         13    1    3    3    0    0 -0.68483830697E+01 -0.18199852186E+04 -0.12301589797E+04  0.21967440023E+04  0.00000000000E+00 0.  1.
        -13    1    3    3    0    0 -0.26097186514E+02 -0.24787050658E+03 -0.16282831284E+03  0.29771447838E+03  0.00000000000E+00 0. -1.
         22    1    1    2    0    0  0.32945569584E+02  0.20678557252E+04  0.10582828822E+04  0.23231606422E+04  0.00000000000E+00 0. -1.
<mgrwt>
<rscale>  0 0.48059783E+04</rscale>
<asrwt>0</asrwt>
<pdfrwt beam="1">  1        2 0.39633258E+00 0.48059783E+04</pdfrwt>
<pdfrwt beam="2">  1       -2 0.34483959E+00 0.48059783E+04</pdfrwt>
<totfact> 0.38959015E-02</totfact>
</mgrwt>
</event>
<event>
 6    1  0.1568961E-005  0.2496031E+04  0.7818608E-02  0.8404401E-01
         -2   -1    0    0    0  501 -0.00000000000E+00  0.00000000000E+00  0.39984200122E+03  0.39984200122E+03  0.00000000000E+00 0.  1.
          2   -1    0    0  501    0  0.00000000000E+00 -0.00000000000E+00 -0.38953951961E+04  0.38953951961E+04  0.00000000000E+00 0. -1.
         23    2    1    2    0    0 -0.48479964382E+03 -0.55365194235E+03 -0.19158403114E+02  0.74180478398E+03  0.91357130010E+02 0.  0.
         13    1    3    3    0    0 -0.12818215175E+02 -0.38027223906E+02 -0.14785192265E+02  0.42766555959E+02  0.00000000000E+00 0. -1.
        -13    1    3    3    0    0 -0.47198142865E+03 -0.51562471844E+03 -0.43732108493E+01  0.69903822802E+03  0.00000000000E+00 0.  1.
         22    1    1    2    0    0  0.48479964382E+03  0.55365194235E+03 -0.34763947918E+04  0.35534324133E+04  0.00000000000E+00 0. -1.
<mgrwt>
<rscale>  0 0.24960309E+04</rscale>
<asrwt>0</asrwt>
<pdfrwt beam="1">  1        2 0.59929156E+00 0.24960309E+04</pdfrwt>
<pdfrwt beam="2">  1       -2 0.61514155E-01 0.24960309E+04</pdfrwt>
<totfact> 0.91112697E-01</totfact>
</mgrwt>
</event>
<event>
 6    1  0.1568961E-005  0.1538821E+04  0.7818608E-02  0.8859040E-01
          1   -1    0    0  501    0  0.00000000000E+00  0.00000000000E+00  0.14259320992E+04  0.14259320992E+04  0.00000000000E+00 0. -1.
         -1   -1    0    0    0  501 -0.00000000000E+00 -0.00000000000E+00 -0.41516197409E+03  0.41516197409E+03  0.00000000000E+00 0.  1.
         23    2    1    2    0    0  0.67904801505E+03 -0.23127166302E+03  0.83114537602E+03  0.11015957032E+04  0.90098104698E+02 0.  0.
         13    1    3    3    0    0  0.26387680733E+03 -0.70113730105E+02  0.37741096443E+03  0.46581749717E+03  0.00000000000E+00 0. -1.
        -13    1    3    3    0    0  0.41517120773E+03 -0.16115793292E+03  0.45373441159E+03  0.63577820608E+03  0.00000000000E+00 0.  1.
         22    1    1    2    0    0 -0.67904801505E+03  0.23127166302E+03  0.17962474913E+03  0.73949837009E+03  0.00000000000E+00 0.  1.
<mgrwt>
<rscale>  0 0.15388213E+04</rscale>
<asrwt>0</asrwt>
<pdfrwt beam="1">  1        1 0.21937417E+00 0.15388213E+04</pdfrwt>
<pdfrwt beam="2">  1       -1 0.63871074E-01 0.15388213E+04</pdfrwt>
<totfact> 0.17660897E+01</totfact>
</mgrwt>
</event>
<event>
 6    1  0.1568961E-005  0.1009268E+04  0.7818608E-02  0.9298438E-01
         -2   -1    0    0    0  501 -0.00000000000E+00  0.00000000000E+00  0.69177703583E+03  0.69177703583E+03  0.00000000000E+00 0. -1.
          2   -1    0    0  501    0  0.00000000000E+00 -0.00000000000E+00 -0.36811806147E+03  0.36811806147E+03  0.00000000000E+00 0.  1.
         23    2    1    2    0    0 -0.14226023705E+03 -0.36793766015E+03  0.48673275611E+03  0.63303545399E+03  0.90603605500E+02 0.  0.
         13    1    3    3    0    0 -0.90290164088E+02 -0.25734664690E+03  0.26730773131E+03  0.38188091549E+03  0.00000000000E+00 0.  1.
        -13    1    3    3    0    0 -0.51970072962E+02 -0.11059101325E+03  0.21942502481E+03  0.25115453850E+03  0.00000000000E+00 0. -1.
         22    1    1    2    0    0  0.14226023705E+03  0.36793766015E+03 -0.16307378175E+03  0.42685964332E+03  0.00000000000E+00 0.  1.
<mgrwt>
<rscale>  0 0.10092683E+04</rscale>
<asrwt>0</asrwt>
<pdfrwt beam="1">  1        2 0.56633548E-01 0.10092683E+04</pdfrwt>
<pdfrwt beam="2">  1       -2 0.10642724E+00 0.10092683E+04</pdfrwt>
<totfact> 0.62008731E+01</totfact>
</mgrwt>
</event>
<event>
 6    1  0.1568961E-005  0.2584271E+04  0.7818608E-02  0.8373564E-01
          2   -1    0    0  501    0  0.00000000000E+00  0.00000000000E+00  0.85978097251E+03  0.85978097251E+03  0.00000000000E+00 0.  1.
         -2   -1    0    0    0  501 -0.00000000000E+00 -0.00000000000E+00 -0.19419064060E+04  0.19419064060E+04  0.00000000000E+00 0. -1.
         23    2    1    2    0    0 -0.63124237415E+03 -0.48049389470E+03 -0.16452924386E+04  0.18288058885E+04  0.90567386856E+02 0.  0.
         11    1    3    3    0    0 -0.42897092380E+02 -0.37179506017E+02 -0.18029846988E+03  0.18902384623E+03  0.00000000000E+00 0.  1.
        -11    1    3    3    0    0 -0.58834528177E+03 -0.44331438869E+03 -0.14649939687E+04  0.16397820423E+04  0.00000000000E+00 0. -1.
         22    1    1    2    0    0  0.63124237415E+03  0.48049389470E+03  0.56316700517E+03  0.97288148995E+03  0.00000000000E+00 0.  1.
<mgrwt>
<rscale>  0 0.25842710E+04</rscale>
<asrwt>0</asrwt>
<pdfrwt beam="1">  1        2 0.13227400E+00 0.25842710E+04</pdfrwt>
<pdfrwt beam="2">  1       -2 0.29875483E+00 0.25842710E+04</pdfrwt>
<totfact> 0.89523207E-01</totfact>
</mgrwt>
</event>
<event>
 6    1  0.1568961E-005  0.2200621E+04  0.7818608E-02  0.8518170E-01
         -2   -1    0    0    0  501 -0.00000000000E+00  0.00000000000E+00  0.57930771354E+03  0.57930771354E+03  0.00000000000E+00 0.  1.
          2   -1    0    0  501    0  0.00000000000E+00 -0.00000000000E+00 -0.20898786885E+04  0.20898786885E+04  0.00000000000E+00 0. -1.
         23    2    1    2    0    0 -0.89314207935E+02 -0.44051178440E+03 -0.19722461485E+04  0.20248482720E+04  0.90708291690E+02 0.  0.
         13    1    3    3    0    0 -0.88547054299E+02 -0.22039073614E+03 -0.96007556178E+03  0.98901857501E+03  0.00000000000E+00 0.  1.
        -13    1    3    3    0    0 -0.76715363620E+00 -0.22012104826E+03 -0.10121705868E+04  0.10358296970E+04  0.00000000000E+00 0. -1.
         22    1    1    2    0    0  0.89314207935E+02  0.44051178440E+03  0.46167517359E+03  0.64433813005E+03  0.00000000000E+00 0.  1.
<mgrwt>
<rscale>  0 0.22006207E+04</rscale>
<asrwt>0</asrwt>
<pdfrwt beam="1">  1        2 0.32151980E+00 0.22006207E+04</pdfrwt>
<pdfrwt beam="2">  1       -2 0.89124262E-01 0.22006207E+04</pdfrwt>
<totfact> 0.58805547E+00</totfact>
</mgrwt>
</event>
<event>
 6    1  0.1568961E-005  0.1477392E+04  0.7818608E-02  0.8899627E-01
          3   -1    0    0  501    0  0.00000000000E+00  0.00000000000E+00  0.86527971109E+03  0.86527971109E+03  0.00000000000E+00 0. -1.
         -3   -1    0    0    0  501 -0.00000000000E+00 -0.00000000000E+00 -0.63063079132E+03  0.63063079132E+03  0.00000000000E+00 0.  1.
         23    2    1    2    0    0  0.65659335475E+03 -0.29650571012E+03  0.26921127748E+03  0.77464423659E+03  0.92566255854E+02 0.  0.
         13    1    3    3    0    0  0.34990831956E+03 -0.11620811978E+03  0.10898677360E+03  0.38447142419E+03  0.00000000000E+00 0. -1.
        -13    1    3    3    0    0  0.30668503520E+03 -0.18029759034E+03  0.16022450388E+03  0.39017281240E+03  0.00000000000E+00 0.  1.
         22    1    1    2    0    0 -0.65659335475E+03  0.29650571012E+03 -0.34562357710E+02  0.72126626582E+03  0.00000000000E+00 0.  1.
<mgrwt>
<rscale>  0 0.14773923E+04</rscale>
<asrwt>0</asrwt>
<pdfrwt beam="1">  1        3 0.13311996E+00 0.14773923E+04</pdfrwt>
<pdfrwt beam="2">  1       -3 0.97020121E-01 0.14773923E+04</pdfrwt>
<totfact> 0.10423553E+00</totfact>
</mgrwt>
</event>
<event>
 6    1  0.2005443E-005  0.2612690E+04  0.7818608E-02  0.8363903E-01
          1   -1    0    0  501    0  0.00000000000E+00  0.00000000000E+00  0.92895703553E+03  0.92895703553E+03  0.00000000000E+00 0. -1.
         -1   -1    0    0    0  501 -0.00000000000E+00 -0.00000000000E+00 -0.18370463536E+04  0.18370463536E+04  0.00000000000E+00 0.  1.
         23    2    1    2    0    0  0.43788736577E+03  0.66761905976E+03  0.63789334119E+03  0.10260255339E+04  0.91432638446E+02 0.  0.
         13    1    3    3    0    0  0.24941769104E+03  0.45828842193E+03  0.42491169062E+03  0.67289479646E+03  0.00000000000E+00 0.  1.
        -13    1    3    3    0    0  0.18846967473E+03  0.20933063783E+03  0.21298165058E+03  0.35313073742E+03  0.00000000000E+00 0. -1.
         22    1    1    2    0    0 -0.43788736577E+03 -0.66761905976E+03 -0.15459826593E+04  0.17399778553E+04  0.00000000000E+00 0.  1.
<mgrwt>
<rscale>  0 0.26126899E+04</rscale>
<asrwt>0</asrwt>
<pdfrwt beam="1">  1        1 0.14291647E+00 0.26126899E+04</pdfrwt>
<pdfrwt beam="2">  1       -1 0.28262251E+00 0.26126899E+04</pdfrwt>
<totfact> 0.64892740E-01</totfact>
</mgrwt>
</event>
<event>
 6    1  0.1568961E-005  0.3408180E+03  0.7818608E-02  0.1066448E+00
         -1   -1    0    0    0  501 -0.00000000000E+00  0.00000000000E+00  0.17433638499E+02  0.17433638499E+02  0.00000000000E+00 0.  1.
          1   -1    0    0  501    0  0.00000000000E+00 -0.00000000000E+00 -0.16657006916E+04  0.16657006916E+04  0.00000000000E+00 0. -1.
         23    2    1    2    0    0  0.11962898364E+02 -0.12146231512E+03 -0.13796128109E+04  0.13880558544E+04  0.92039894571E+02 0.  0.
         11    1    3    3    0    0  0.37940198819E+01 -0.81638000857E+02 -0.12387768085E+04  0.12414697496E+04  0.00000000000E+00 0. -1.
        -11    1    3    3    0    0  0.81688784822E+01 -0.39824314267E+02 -0.14083600233E+03  0.14658610485E+03  0.00000000000E+00 0.  1.
         22    1    1    2    0    0 -0.11962898364E+02  0.12146231512E+03 -0.26865424229E+03  0.29507847572E+03  0.00000000000E+00 0.  1.
<mgrwt>
<rscale>  0 0.34081798E+03</rscale>
<asrwt>0</asrwt>
<pdfrwt beam="1">  1        1 0.25626155E+00 0.34081798E+03</pdfrwt>
<pdfrwt beam="2">  1       -1 0.26820992E-02 0.34081798E+03</pdfrwt>
<totfact> 0.24762074E+03</totfact>
</mgrwt>
</event>
<event>
 6    1  0.1568961E-005  0.2740401E+04  0.7818608E-02  0.8322014E-01
         -2   -1    0    0    0  501 -0.00000000000E+00  0.00000000000E+00  0.16643321686E+04  0.16643321686E+04  0.00000000000E+00 0.  1.
          2   -1    0    0  501    0  0.00000000000E+00 -0.00000000000E+00 -0.11280499279E+04  0.11280499279E+04  0.00000000000E+00 0. -1.
         23    2    1    2    0    0 -0.56933084749E+03  0.10852200370E+04  0.88952046953E+03  0.15169929837E+04  0.90448351275E+02 0.  0.
         11    1    3    3    0    0 -0.45427819246E+03  0.88439436619E+03  0.76260434847E+03  0.12530313098E+04  0.00000000000E+00 0.  1.
        -11    1    3    3    0    0 -0.11505265503E+03  0.20082567084E+03  0.12691612106E+03  0.26396167389E+03  0.00000000000E+00 0. -1.
         22    1    1    2    0    0  0.56933084749E+03 -0.10852200370E+04 -0.35323822880E+03  0.12753891128E+04  0.00000000000E+00 0.  1.
<mgrwt>
<rscale>  0 0.27404013E+04</rscale>
<asrwt>0</asrwt>
<pdfrwt beam="1">  1        2 0.17354614E+00 0.27404013E+04</pdfrwt>
<pdfrwt beam="2">  1       -2 0.25605110E+00 0.27404013E+04</pdfrwt>
<totfact> 0.10799440E+00</totfact>
</mgrwt>
</event>
<event>
 6    1  0.1568961E-005  0.2060943E+04  0.7818608E-02  0.8578646E-01
          2   -1    0    0  501    0  0.00000000000E+00  0.00000000000E+00  0.69115899673E+03  0.69115899673E+03  0.00000000000E+00 0. -1.
         -2   -1    0    0    0  501 -0.00000000000E+00 -0.00000000000E+00 -0.15363635854E+04  0.15363635854E+04  0.00000000000E+00 0.  1.
         23    2    1    2    0    0  0.39473771332E+03 -0.88456251806E+03 -0.50180243806E+02  0.97439353066E+03  0.93037546416E+02 0.  0.
         13    1    3    3    0    0  0.21486104398E+03 -0.56552179626E+03 -0.60599591960E+02  0.60799052691E+03  0.00000000000E+00 0.  1.
        -13    1    3    3    0    0  0.17987666934E+03 -0.31904072180E+03  0.10419348153E+02  0.36640300375E+03  0.00000000000E+00 0. -1.
         22    1    1    2    0    0 -0.39473771332E+03  0.88456251806E+03 -0.79502434483E+03  0.12531290514E+04  0.00000000000E+00 0.  1.
<mgrwt>
<rscale>  0 0.20609430E+04</rscale>
<asrwt>0</asrwt>
<pdfrwt beam="1">  1        2 0.10633215E+00 0.20609430E+04</pdfrwt>
<pdfrwt beam="2">  1       -2 0.23636363E+00 0.20609430E+04</pdfrwt>
<totfact> 0.30024155E+00</totfact>
</mgrwt>
</event>
<event>
 6    1  0.1568961E-005  0.1654688E+04  0.7818608E-02  0.8787638E-01
          1   -1    0    0  501    0  0.00000000000E+00  0.00000000000E+00  0.17533151704E+04  0.17533151704E+04  0.00000000000E+00 0. -1.
         -1   -1    0    0    0  501 -0.00000000000E+00 -0.00000000000E+00 -0.39040207253E+03  0.39040207253E+03  0.00000000000E+00 0.  1.
         23    2    1    2    0    0 -0.39878603384E+03  0.47221816553E+03  0.13911437497E+04  0.15249949576E+04  0.91150378942E+02 0.  0.
         11    1    3    3    0    0 -0.33747854857E+03  0.42357536326E+03  0.12714266626E+04  0.13819672997E+04  0.00000000000E+00 0. -1.
        -11    1    3    3    0    0 -0.61307485273E+02  0.48642802267E+02  0.11971708711E+03  0.14302765785E+03  0.00000000000E+00 0.  1.
         22    1    1    2    0    0  0.39878603384E+03 -0.47221816553E+03 -0.28230651895E+02  0.61872228532E+03  0.00000000000E+00 0.  1.
<mgrwt>
<rscale>  0 0.16546877E+04</rscale>
<asrwt>0</asrwt>
<pdfrwt beam="1">  1        1 0.26974079E+00 0.16546877E+04</pdfrwt>
<pdfrwt beam="2">  1       -1 0.60061858E-01 0.16546877E+04</pdfrwt>
<totfact> 0.11768924E+01</totfact>
</mgrwt>
</event>
<event>
 6    1  0.1568961E-005  0.6226069E+04  0.7818608E-02  0.7662987E-01
          2   -1    0    0  501    0  0.00000000000E+00  0.00000000000E+00  0.45134924434E+04  0.45134924434E+04  0.00000000000E+00 0. -1.
         -2   -1    0    0    0  501 -0.00000000000E+00 -0.00000000000E+00 -0.21471144441E+04  0.21471144441E+04  0.00000000000E+00 0.  1.
         23    2    1    2    0    0 -0.89922051470E+03  0.29026796029E+04  0.19033170275E+04  0.35867539511E+04  0.89676016789E+02 0.  0.
         13    1    3    3    0    0 -0.31418816455E+03  0.11324580861E+04  0.76678270942E+03  0.14032573688E+04  0.00000000000E+00 0.  1.
        -13    1    3    3    0    0 -0.58503235015E+03  0.17702215167E+04  0.11365343181E+04  0.21834965824E+04  0.00000000000E+00 0. -1.
         22    1    1    2    0    0  0.89922051470E+03 -0.29026796029E+04  0.46306097181E+03  0.30738529364E+04  0.00000000000E+00 0.  1.
<mgrwt>
<rscale>  0 0.62260693E+04</rscale>
<asrwt>0</asrwt>
<pdfrwt beam="1">  1        2 0.69438345E+00 0.62260693E+04</pdfrwt>
<pdfrwt beam="2">  1       -2 0.33032530E+00 0.62260693E+04</pdfrwt>
<totfact> 0.16115975E-03</totfact>
</mgrwt>
</event>
<event>
 6    1  0.1568961E-005  0.1877581E+04  0.7818608E-02  0.8666097E-01
          2   -1    0    0  501    0  0.00000000000E+00  0.00000000000E+00  0.29541056414E+04  0.29541056414E+04  0.00000000000E+00 0.  1.
         -2   -1    0    0    0  501 -0.00000000000E+00 -0.00000000000E+00 -0.29833977873E+03  0.29833977873E+03  0.00000000000E+00 0. -1.
         23    2    1    2    0    0  0.11957595737E+03 -0.44253094065E+03 -0.84056804791E+02  0.47453968160E+03  0.89388589727E+02 0.  0.
         13    1    3    3    0    0  0.37569207764E+02 -0.29621069376E+03 -0.41161016320E+02  0.30140744804E+03  0.00000000000E+00 0. -1.
        -13    1    3    3    0    0  0.82006749605E+02 -0.14632024689E+03 -0.42895788471E+02  0.17313223356E+03  0.00000000000E+00 0.  1.
         22    1    1    2    0    0 -0.11957595737E+03  0.44253094065E+03  0.27398226674E+04  0.27779057385E+04  0.00000000000E+00 0.  1.
<mgrwt>
<rscale>  0 0.18775806E+04</rscale>
<asrwt>0</asrwt>
<pdfrwt beam="1">  1        2 0.45447777E+00 0.18775806E+04</pdfrwt>
<pdfrwt beam="2">  1       -2 0.45898430E-01 0.18775806E+04</pdfrwt>
<totfact> 0.78779586E+00</totfact>
</mgrwt>
</event>
<event>
 6    1  0.1568961E-005  0.6340811E+03  0.7818608E-02  0.9837117E-01
          1   -1    0    0  501    0  0.00000000000E+00  0.00000000000E+00  0.16682696396E+04  0.16682696396E+04  0.00000000000E+00 0. -1.
         -1   -1    0    0    0  501 -0.00000000000E+00 -0.00000000000E+00 -0.60250883098E+02  0.60250883098E+02  0.00000000000E+00 0.  1.
         23    2    1    2    0    0  0.29329010027E+03 -0.10068232218E+03  0.78058409208E+03  0.84488930052E+03  0.91489848690E+02 0.  0.
         11    1    3    3    0    0  0.15373769871E+03 -0.68435491267E+02  0.53215299976E+03  0.55812678813E+03  0.00000000000E+00 0. -1.
        -11    1    3    3    0    0  0.13955240156E+03 -0.32246830911E+02  0.24843109232E+03  0.28676251239E+03  0.00000000000E+00 0.  1.
         22    1    1    2    0    0 -0.29329010027E+03  0.10068232218E+03  0.82743466442E+03  0.88363122218E+03  0.00000000000E+00 0.  1.
<mgrwt>
<rscale>  0 0.63408113E+03</rscale>
<asrwt>0</asrwt>
<pdfrwt beam="1">  1        1 0.25665683E+00 0.63408113E+03</pdfrwt>
<pdfrwt beam="2">  1       -1 0.92693679E-02 0.63408113E+03</pdfrwt>
<totfact> 0.36691557E+02</totfact>
</mgrwt>
</event>
<event>
 6    1  0.1699729E-005  0.2732785E+04  0.7818608E-02  0.8324445E-01
          2   -1    0    0  501    0  0.00000000000E+00  0.00000000000E+00  0.11990539332E+04  0.11990539332E+04  0.00000000000E+00 0. -1.
         -2   -1    0    0    0  501 -0.00000000000E+00 -0.00000000000E+00 -0.15570843781E+04  0.15570843781E+04  0.00000000000E+00 0.  1.
         23    2    1    2    0    0  0.12188784538E+04 -0.51237135444E+03 -0.52066340220E+03  0.14239827015E+04  0.91909008978E+02 0.  0.
         11    1    3    3    0    0  0.89922119517E+03 -0.41182615153E+03 -0.41549201885E+03  0.10727689195E+04  0.00000000000E+00 0.  1.
        -11    1    3    3    0    0  0.31965725860E+03 -0.10054520291E+03 -0.10517138335E+03  0.35121378202E+03  0.00000000000E+00 0. -1.
         22    1    1    2    0    0 -0.12188784538E+04  0.51237135444E+03  0.16263295729E+03  0.13321556098E+04  0.00000000000E+00 0. -1.
<mgrwt>
<rscale>  0 0.27327848E+04</rscale>
<asrwt>0</asrwt>
<pdfrwt beam="1">  1        2 0.18446984E+00 0.27327848E+04</pdfrwt>
<pdfrwt beam="2">  1       -2 0.23955144E+00 0.27327848E+04</pdfrwt>
<totfact> 0.12370669E+00</totfact>
</mgrwt>
</event>
<event>
 6    1  0.1568961E-005  0.1985547E+04  0.7818608E-02  0.8613408E-01
          2   -1    0    0  501    0  0.00000000000E+00  0.00000000000E+00  0.15340225036E+04  0.15340225036E+04  0.00000000000E+00 0. -1.
         -2   -1    0    0    0  501 -0.00000000000E+00 -0.00000000000E+00 -0.64249358291E+03  0.64249358291E+03  0.00000000000E+00 0.  1.
         23    2    1    2    0    0 -0.20253384914E+03 -0.47896490484E+03  0.13708607620E+04  0.14692775453E+04  0.95341157523E+02 0.  0.
         11    1    3    3    0    0 -0.18843130526E+03 -0.46115745204E+03  0.13477494348E+04  0.14368719815E+04  0.00000000000E+00 0. -1.
        -11    1    3    3    0    0 -0.14102543885E+02 -0.17807452805E+02  0.23111327223E+02  0.32405563804E+02  0.00000000000E+00 0.  1.
         22    1    1    2    0    0  0.20253384914E+03  0.47896490484E+03 -0.47933184128E+03  0.70723854121E+03  0.00000000000E+00 0.  1.
<mgrwt>
<rscale>  0 0.19855474E+04</rscale>
<asrwt>0</asrwt>
<pdfrwt beam="1">  1        2 0.23600346E+00 0.19855474E+04</pdfrwt>
<pdfrwt beam="2">  1       -2 0.98845167E-01 0.19855474E+04</pdfrwt>
<totfact> 0.95919558E+00</totfact>
</mgrwt>
</event>
<event>
 6    1  0.1568961E-005  0.4365012E+04  0.7818608E-02  0.7934705E-01
         -2   -1    0    0    0  501 -0.00000000000E+00  0.00000000000E+00  0.18044016891E+04  0.18044016891E+04  0.00000000000E+00 0.  1.
          2   -1    0    0  501    0  0.00000000000E+00 -0.00000000000E+00 -0.26398398544E+04  0.26398398544E+04  0.00000000000E+00 0. -1.
         23    2    1    2    0    0 -0.17067595634E+04  0.13405688554E+04 -0.19419530300E+03  0.21812025531E+04  0.98892359014E+02 0.  0.
         11    1    3    3    0    0 -0.11420680085E+04  0.95498828743E+03 -0.12745055619E+03  0.14941772349E+04  0.00000000000E+00 0. -1.
        -11    1    3    3    0    0 -0.56469155491E+03  0.38558056800E+03 -0.66744746808E+02  0.68702531819E+03  0.00000000000E+00 0.  1.
         22    1    1    2    0    0  0.17067595634E+04 -0.13405688554E+04 -0.64124286231E+03  0.22630389904E+04  0.00000000000E+00 0. -1.
<mgrwt>
<rscale>  0 0.43650116E+04</rscale>
<asrwt>0</asrwt>
<pdfrwt beam="1">  1        2 0.40612920E+00 0.43650116E+04</pdfrwt>
<pdfrwt beam="2">  1       -2 0.27760026E+00 0.43650116E+04</pdfrwt>
<totfact> 0.96185348E-02</totfact>
</mgrwt>
</event>
<event>
 6    1  0.1568961E-005  0.2218809E+04  0.7818608E-02  0.8510640E-01
         -1   -1    0    0    0  501 -0.00000000000E+00  0.00000000000E+00  0.62306286578E+03  0.62306286578E+03  0.00000000000E+00 0.  1.
          1   -1    0    0  501    0  0.00000000000E+00 -0.00000000000E+00 -0.19753675777E+04  0.19753675777E+04  0.00000000000E+00 0. -1.
         23    2    1    2    0    0 -0.53610794537E+03  0.33301962995E+03  0.38833558779E+03  0.74690608339E+03  0.93543389051E+02 0.  0.
         11    1    3    3    0    0 -0.15418146585E+03  0.14679319397E+03  0.13893315811E+03  0.25420973355E+03  0.00000000000E+00 0. -1.
        -11    1    3    3    0    0 -0.38192647952E+03  0.18622643598E+03  0.24940242968E+03  0.49269634984E+03  0.00000000000E+00 0.  1.
         22    1    1    2    0    0  0.53610794537E+03 -0.33301962995E+03 -0.17406402997E+04  0.18515243601E+04  0.00000000000E+00 0. -1.
<mgrwt>
<rscale>  0 0.22188089E+04</rscale>
<asrwt>0</asrwt>
<pdfrwt beam="1">  1        1 0.30390270E+00 0.22188089E+04</pdfrwt>
<pdfrwt beam="2">  1       -1 0.95855826E-01 0.22188089E+04</pdfrwt>
<totfact> 0.29575270E+00</totfact>
</mgrwt>
</event>
<event>
 6    1  0.1568961E-005  0.2440976E+04  0.7818608E-02  0.8424320E-01
          1   -1    0    0  501    0  0.00000000000E+00  0.00000000000E+00  0.24821425893E+04  0.24821425893E+04  0.00000000000E+00 0. -1.
         -1   -1    0    0    0  501 -0.00000000000E+00 -0.00000000000E+00 -0.60012311182E+03  0.60012311182E+03  0.00000000000E+00 0.  1.
         23    2    1    2    0    0  0.22327233835E+03  0.60631740059E+03 -0.36168479074E+03  0.74738236987E+03  0.10145536764E+03 0.  0.
         11    1    3    3    0    0  0.59288580562E+02  0.30766937530E+03 -0.17355269682E+03  0.35818447601E+03  0.00000000000E+00 0.  1.
        -11    1    3    3    0    0  0.16398375779E+03  0.29864802529E+03 -0.18813209392E+03  0.38919789387E+03  0.00000000000E+00 0. -1.
         22    1    1    2    0    0 -0.22327233835E+03 -0.60631740059E+03  0.22437042682E+04  0.23348833313E+04  0.00000000000E+00 0. -1.
<mgrwt>
<rscale>  0 0.24409761E+04</rscale>
<asrwt>0</asrwt>
<pdfrwt beam="1">  1        1 0.38186809E+00 0.24409761E+04</pdfrwt>
<pdfrwt beam="2">  1       -1 0.92326634E-01 0.24409761E+04</pdfrwt>
<totfact> 0.14203792E+00</totfact>
</mgrwt>
</event>
<event>
 6    1  0.1568961E-005  0.3210092E+04  0.7818608E-02  0.8186157E-01
         -1   -1    0    0    0  501 -0.00000000000E+00  0.00000000000E+00  0.10675479462E+04  0.10675479462E+04  0.00000000000E+00 0.  1.
          1   -1    0    0  501    0  0.00000000000E+00 -0.00000000000E+00 -0.24131676608E+04  0.24131676608E+04  0.00000000000E+00 0. -1.
         23    2    1    2    0    0  0.11854630489E+04 -0.67342350170E+03  0.24209577761E+03  0.13879513257E+04  0.94745258273E+02 0.  0.
         11    1    3    3    0    0  0.91634188483E+03 -0.55602552721E+03  0.21400151095E+03  0.10929974764E+04  0.00000000000E+00 0.  1.
        -11    1    3    3    0    0  0.26912116405E+03 -0.11739797449E+03  0.28094266656E+02  0.29495384923E+03  0.00000000000E+00 0. -1.
         22    1    1    2    0    0 -0.11854630489E+04  0.67342350170E+03 -0.15877154922E+04  0.20927642813E+04  0.00000000000E+00 0. -1.
<mgrwt>
<rscale>  0 0.32100917E+04</rscale>
<asrwt>0</asrwt>
<pdfrwt beam="1">  1        1 0.37125657E+00 0.32100917E+04</pdfrwt>
<pdfrwt beam="2">  1       -1 0.16423814E+00 0.32100917E+04</pdfrwt>
<totfact> 0.35304816E-01</totfact>
</mgrwt>
</event>
<event>
 6    1  0.1568961E-005  0.4355007E+04  0.7818608E-02  0.7936524E-01
         -2   -1    0    0    0  501 -0.00000000000E+00  0.00000000000E+00  0.14230952248E+04  0.14230952248E+04  0.00000000000E+00 0. -1.
          2   -1    0    0  501    0  0.00000000000E+00 -0.00000000000E+00 -0.33318370523E+04  0.33318370523E+04  0.00000000000E+00 0.  1.
         23    2    1    2    0    0  0.11348595960E+04  0.12970946687E+04 -0.24061286760E+04  0.29611222093E+04  0.91807684036E+02 0.  0.
         11    1    3    3    0    0  0.30137880196E+03  0.33579915466E+03 -0.56292505922E+03  0.72143944780E+03  0.00000000000E+00 0. -1.
        -11    1    3    3    0    0  0.83348079406E+03  0.96129551407E+03 -0.18432036167E+04  0.22396827615E+04  0.00000000000E+00 0.  1.
         22    1    1    2    0    0 -0.11348595960E+04 -0.12970946687E+04  0.49738684846E+03  0.17938100678E+04  0.00000000000E+00 0. -1.
<mgrwt>
<rscale>  0 0.43550070E+04</rscale>
<asrwt>0</asrwt>
<pdfrwt beam="1">  1        2 0.51259031E+00 0.43550070E+04</pdfrwt>
<pdfrwt beam="2">  1       -2 0.21893773E+00 0.43550070E+04</pdfrwt>
<totfact> 0.81497255E-02</totfact>
</mgrwt>
</event>
<event>
 6    1  0.1568961E-005  0.3819592E+04  0.7818608E-02  0.8041963E-01
         -2   -1    0    0    0  501 -0.00000000000E+00  0.00000000000E+00  0.98718912637E+03  0.98718912637E+03  0.00000000000E+00 0.  1.
          2   -1    0    0  501    0  0.00000000000E+00 -0.00000000000E+00 -0.36946533766E+04  0.36946533766E+04  0.00000000000E+00 0. -1.
         23    2    1    2    0    0  0.31603575625E+03 -0.80911694333E+03 -0.34378211303E+04  0.35469548436E+04  0.87896028236E+02 0.  0.
         11    1    3    3    0    0  0.11293169586E+03 -0.21842731423E+03 -0.85324458965E+03  0.88796981328E+03  0.00000000000E+00 0. -1.
        -11    1    3    3    0    0  0.20310406039E+03 -0.59068962909E+03 -0.25845765406E+04  0.26589850303E+04  0.00000000000E+00 0.  1.
         22    1    1    2    0    0 -0.31603575625E+03  0.80911694333E+03  0.73035688002E+03  0.11348876594E+04  0.00000000000E+00 0.  1.
<mgrwt>
<rscale>  0 0.38195925E+04</rscale>
<asrwt>0</asrwt>
<pdfrwt beam="1">  1        2 0.56840821E+00 0.38195925E+04</pdfrwt>
<pdfrwt beam="2">  1       -2 0.15187525E+00 0.38195925E+04</pdfrwt>
<totfact> 0.13636934E-01</totfact>
</mgrwt>
</event>
<event>
 6    1  0.1568961E-005  0.4263778E+04  0.7818608E-02  0.7953350E-01
         -2   -1    0    0    0  501 -0.00000000000E+00  0.00000000000E+00  0.18593778936E+04  0.18593778936E+04  0.00000000000E+00 0. -1.
          2   -1    0    0  501    0  0.00000000000E+00 -0.00000000000E+00 -0.24443388883E+04  0.24443388883E+04  0.00000000000E+00 0.  1.
         23    2    1    2    0    0 -0.87120634327E+03 -0.11113519656E+03  0.16666671034E+04  0.18868633281E+04  0.10546307902E+03 0.  0.
         13    1    3    3    0    0 -0.27404407577E+03 -0.84674456375E+02  0.54017610779E+03  0.61160456707E+03  0.00000000000E+00 0. -1.
        -13    1    3    3    0    0 -0.59716226751E+03 -0.26460740187E+02  0.11264909956E+04  0.12752587611E+04  0.00000000000E+00 0.  1.
         22    1    1    2    0    0  0.87120634327E+03  0.11113519656E+03 -0.22516280981E+04  0.24168534537E+04  0.00000000000E+00 0.  1.
<mgrwt>
<rscale>  0 0.42637775E+04</rscale>
<asrwt>0</asrwt>
<pdfrwt beam="1">  1        2 0.37605214E+00 0.42637775E+04</pdfrwt>
<pdfrwt beam="2">  1       -2 0.28605814E+00 0.42637775E+04</pdfrwt>
<totfact> 0.11197751E-01</totfact>
</mgrwt>
</event>
<event>
 6    1  0.1568961E-005  0.1373776E+04  0.7818608E-02  0.8973022E-01
         -1   -1    0    0    0  501 -0.00000000000E+00  0.00000000000E+00  0.36957646538E+03  0.36957646538E+03  0.00000000000E+00 0.  1.
          1   -1    0    0  501    0  0.00000000000E+00 -0.00000000000E+00 -0.12766381078E+04  0.12766381078E+04  0.00000000000E+00 0. -1.
         23    2    1    2    0    0 -0.46124041269E+03  0.62008881831E+02 -0.10560216113E+04  0.11575665484E+04  0.90503318807E+02 0.  0.
         11    1    3    3    0    0 -0.24082911155E+03  0.40897718490E+02 -0.66142790993E+03  0.70509443650E+03  0.00000000000E+00 0. -1.
        -11    1    3    3    0    0 -0.22041130113E+03  0.21111163341E+02 -0.39459370140E+03  0.45247211192E+03  0.00000000000E+00 0.  1.
         22    1    1    2    0    0  0.46124041269E+03 -0.62008881831E+02  0.14895996894E+03  0.48864802473E+03  0.00000000000E+00 0.  1.
<mgrwt>
<rscale>  0 0.13737764E+04</rscale>
<asrwt>0</asrwt>
<pdfrwt beam="1">  1        1 0.19640586E+00 0.13737764E+04</pdfrwt>
<pdfrwt beam="2">  1       -1 0.56857919E-01 0.13737764E+04</pdfrwt>
<totfact> 0.28762087E+01</totfact>
</mgrwt>
</event>
<event>
 6    1  0.1568961E-005  0.2762475E+04  0.7818608E-02  0.8315014E-01
         -1   -1    0    0    0  501 -0.00000000000E+00  0.00000000000E+00  0.10863599474E+04  0.10863599474E+04  0.00000000000E+00 0.  1.
          1   -1    0    0  501    0  0.00000000000E+00 -0.00000000000E+00 -0.17561549389E+04  0.17561549389E+04  0.00000000000E+00 0. -1.
         23    2    1    2    0    0 -0.13639135449E+04  0.91394419249E+02 -0.52837492160E+03  0.14682468142E+04  0.89193899992E+02 0.  0.
         13    1    3    3    0    0 -0.95188930922E+03  0.71040913629E+02 -0.41170866517E+03  0.10395403279E+04  0.00000000000E+00 0. -1.
        -13    1    3    3    0    0 -0.41202423569E+03  0.20353505620E+02 -0.11666625643E+03  0.42870648628E+03  0.00000000000E+00 0.  1.
         22    1    1    2    0    0  0.13639135449E+04 -0.91394419249E+02 -0.14142006990E+03  0.13742680721E+04  0.00000000000E+00 0.  1.
<mgrwt>
<rscale>  0 0.27624745E+04</rscale>
<asrwt>0</asrwt>
<pdfrwt beam="1">  1        1 0.27017768E+00 0.27624745E+04</pdfrwt>
<pdfrwt beam="2">  1       -1 0.16713230E+00 0.27624745E+04</pdfrwt>
<totfact> 0.97921791E-01</totfact>
</mgrwt>
</event>
<event>
 6    1  0.1568961E-005  0.5172483E+04  0.7818608E-02  0.7802437E-01
          2   -1    0    0  501    0  0.00000000000E+00  0.00000000000E+00  0.35386435393E+04  0.35386435393E+04  0.00000000000E+00 0. -1.
         -2   -1    0    0    0  501 -0.00000000000E+00 -0.00000000000E+00 -0.18901723688E+04  0.18901723688E+04  0.00000000000E+00 0.  1.
         23    2    1    2    0    0  0.17470851136E+04 -0.19058678348E+04  0.80207493101E+03  0.27083333789E+04  0.84302422897E+02 0.  0.
         11    1    3    3    0    0  0.26416948646E+03 -0.24557702745E+03  0.11687983875E+03  0.37914969431E+03  0.00000000000E+00 0. -1.
        -11    1    3    3    0    0  0.14829156272E+04 -0.16602908073E+04  0.68519509225E+03  0.23291836846E+04  0.00000000000E+00 0.  1.
         22    1    1    2    0    0 -0.17470851136E+04  0.19058678348E+04  0.84639623947E+03  0.27204825293E+04  0.00000000000E+00 0. -1.
<mgrwt>
<rscale>  0 0.51724834E+04</rscale>
<asrwt>0</asrwt>
<pdfrwt beam="1">  1        2 0.54440670E+00 0.51724834E+04</pdfrwt>
<pdfrwt beam="2">  1       -2 0.29079575E+00 0.51724834E+04</pdfrwt>
<totfact> 0.19798487E-02</totfact>
</mgrwt>
</event>
<event>
 6    1  0.1568961E-005  0.2438416E+04  0.7818608E-02  0.8425260E-01
         -2   -1    0    0    0  501 -0.00000000000E+00  0.00000000000E+00  0.40423763414E+03  0.40423763414E+03  0.00000000000E+00 0.  1.
          2   -1    0    0  501    0  0.00000000000E+00 -0.00000000000E+00 -0.36772130219E+04  0.36772130219E+04  0.00000000000E+00 0. -1.
         23    2    1    2    0    0 -0.72597242332E+03 -0.96934611658E+03 -0.18500918612E+04  0.22129578454E+04  0.87605237358E+02 0.  0.
         13    1    3    3    0    0 -0.47818128361E+03 -0.60422880152E+03 -0.11083099945E+04  0.13498521506E+04  0.00000000000E+00 0. -1.
        -13    1    3    3    0    0 -0.24779113971E+03 -0.36511731506E+03 -0.74178186668E+03  0.86310569481E+03  0.00000000000E+00 0.  1.
         22    1    1    2    0    0  0.72597242332E+03  0.96934611658E+03 -0.14228835265E+04  0.18684928106E+04  0.00000000000E+00 0. -1.
<mgrwt>
<rscale>  0 0.24384158E+04</rscale>
<asrwt>0</asrwt>
<pdfrwt beam="1">  1        2 0.56572508E+00 0.24384158E+04</pdfrwt>
<pdfrwt beam="2">  1       -2 0.62190405E-01 0.24384158E+04</pdfrwt>
<totfact> 0.13084094E+00</totfact>
</mgrwt>
</event>
<event>
 6    1  0.1568961E-005  0.3406368E+04  0.7818608E-02  0.8136345E-01
          1   -1    0    0  501    0  0.00000000000E+00  0.00000000000E+00  0.11773415179E+04  0.11773415179E+04  0.00000000000E+00 0. -1.
         -1   -1    0    0    0  501 -0.00000000000E+00 -0.00000000000E+00 -0.24638860626E+04  0.24638860626E+04  0.00000000000E+00 0.  1.
         23    2    1    2    0    0  0.25018216916E+03 -0.12579622518E+04 -0.18396595790E+04  0.22444468583E+04  0.90189736524E+02 0.  0.
         11    1    3    3    0    0  0.11987217778E+03 -0.75812804497E+03 -0.11553808513E+04  0.13870949438E+04  0.00000000000E+00 0.  1.
        -11    1    3    3    0    0  0.13030999138E+03 -0.49983420686E+03 -0.68427872770E+03  0.85735191455E+03  0.00000000000E+00 0. -1.
         22    1    1    2    0    0 -0.25018216916E+03  0.12579622518E+04  0.55311503431E+03  0.13967807222E+04  0.00000000000E+00 0. -1.
<mgrwt>
<rscale>  0 0.34063678E+04</rscale>
<asrwt>0</asrwt>
<pdfrwt beam="1">  1        1 0.18112947E+00 0.34063678E+04</pdfrwt>
<pdfrwt beam="2">  1       -1 0.37905939E+00 0.34063678E+04</pdfrwt>
<totfact> 0.90579153E-02</totfact>
</mgrwt>
</event>
<event>
 6    1  0.1568961E-005  0.1689824E+04  0.7818608E-02  0.8767190E-01
         -1   -1    0    0    0  501 -0.00000000000E+00  0.00000000000E+00  0.15036633273E+03  0.15036633273E+03  0.00000000000E+00 0.  1.
          1   -1    0    0  501    0  0.00000000000E+00 -0.00000000000E+00 -0.47475795261E+04  0.47475795261E+04  0.00000000000E+00 0. -1.
         23    2    1    2    0    0 -0.73472843138E+03 -0.12730639265E+03 -0.11703117090E+04  0.13908549605E+04  0.93889506506E+02 0.  0.
         11    1    3    3    0    0 -0.37326852631E+03 -0.11195479070E+03 -0.61712360386E+03  0.72986629621E+03  0.00000000000E+00 0. -1.
        -11    1    3    3    0    0 -0.36145990507E+03 -0.15351601949E+02 -0.55318810510E+03  0.66098866426E+03  0.00000000000E+00 0.  1.
         22    1    1    2    0    0  0.73472843138E+03  0.12730639265E+03 -0.34269014844E+04  0.35070908983E+04  0.00000000000E+00 0. -1.
<mgrwt>
<rscale>  0 0.16898238E+04</rscale>
<asrwt>0</asrwt>
<pdfrwt beam="1">  1        1 0.73039676E+00 0.16898238E+04</pdfrwt>
<pdfrwt beam="2">  1       -1 0.23133285E-01 0.16898238E+04</pdfrwt>
<totfact> 0.27267650E-01</totfact>
</mgrwt>
</event>
<event>
 6    1  0.1568961E-005  0.1445647E+04  0.7818608E-02  0.8921424E-01
          2   -1    0    0  501    0  0.00000000000E+00  0.00000000000E+00  0.14008485090E+04  0.14008485090E+04  0.00000000000E+00 0. -1.
         -2   -1    0    0    0  501 -0.00000000000E+00 -0.00000000000E+00 -0.37296937954E+03  0.37296937954E+03  0.00000000000E+00 0.  1.
         23    2    1    2    0    0  0.43182707769E+03  0.24529615574E+02 -0.19042419142E+03  0.48101499996E+03  0.89653390592E+02 0.  0.
         13    1    3    3    0    0  0.76008150183E+02 -0.23709227912E+02 -0.13634176439E+02  0.80779063808E+02  0.00000000000E+00 0.  1.
        -13    1    3    3    0    0  0.35581892751E+03  0.48238843486E+02 -0.17679001498E+03  0.40023593615E+03  0.00000000000E+00 0. -1.
         22    1    1    2    0    0 -0.43182707769E+03 -0.24529615574E+02  0.12183033209E+04  0.12928028886E+04  0.00000000000E+00 0. -1.
<mgrwt>
<rscale>  0 0.14456467E+04</rscale>
<asrwt>0</asrwt>
<pdfrwt beam="1">  1        2 0.21551515E+00 0.14456467E+04</pdfrwt>
<pdfrwt beam="2">  1       -2 0.57379905E-01 0.14456467E+04</pdfrwt>
<totfact> 0.39894600E+01</totfact>
</mgrwt>
</event>
<event>
 6    1  0.1568961E-005  0.3998994E+04  0.7818608E-02  0.8004750E-01
         -1   -1    0    0    0  501 -0.00000000000E+00  0.00000000000E+00  0.21291088564E+04  0.21291088564E+04  0.00000000000E+00 0.  1.
          1   -1    0    0  501    0  0.00000000000E+00 -0.00000000000E+00 -0.18777751226E+04  0.18777751226E+04  0.00000000000E+00 0. -1.
         23    2    1    2    0    0 -0.74732106993E+03  0.15319469367E+04 -0.91944731955E+03  0.19390158804E+04  0.95126299702E+02 0.  0.
         13    1    3    3    0    0 -0.31699968615E+02  0.65151635330E+02 -0.62360088726E+02  0.95595001241E+02  0.00000000000E+00 0.  1.
        -13    1    3    3    0    0 -0.71562110132E+03  0.14667953013E+04 -0.85708723083E+03  0.18434208792E+04  0.00000000000E+00 0. -1.
         22    1    1    2    0    0  0.74732106993E+03 -0.15319469367E+04  0.11707810533E+04  0.20678680986E+04  0.00000000000E+00 0.  1.
<mgrwt>
<rscale>  0 0.39989937E+04</rscale>
<asrwt>0</asrwt>
<pdfrwt beam="1">  1        1 0.28888848E+00 0.39989937E+04</pdfrwt>
<pdfrwt beam="2">  1       -1 0.32755521E+00 0.39989937E+04</pdfrwt>
<totfact> 0.61660641E-02</totfact>
</mgrwt>
</event>
<event>
 6    1  0.1568961E-005  0.2498156E+04  0.7818608E-02  0.8403643E-01
         -1   -1    0    0    0  501 -0.00000000000E+00  0.00000000000E+00  0.48668733875E+03  0.48668733875E+03  0.00000000000E+00 0.  1.
          1   -1    0    0  501    0  0.00000000000E+00 -0.00000000000E+00 -0.32057448738E+04  0.32057448738E+04  0.00000000000E+00 0. -1.
         23    2    1    2    0    0  0.58502905679E+03 -0.60533891627E+03 -0.63958420609E+00  0.84664754812E+03  0.90096952362E+02 0.  0.
         11    1    3    3    0    0  0.36464277205E+03 -0.43718598523E+03  0.68675683770E+01  0.56933566583E+03  0.00000000000E+00 0. -1.
        -11    1    3    3    0    0  0.22038628474E+03 -0.16815293104E+03 -0.75071525831E+01  0.27731188229E+03  0.00000000000E+00 0.  1.
         22    1    1    2    0    0 -0.58502905679E+03  0.60533891627E+03 -0.27184179509E+04  0.28457846645E+04  0.00000000000E+00 0. -1.
<mgrwt>
<rscale>  0 0.24981557E+04</rscale>
<asrwt>0</asrwt>
<pdfrwt beam="1">  1        1 0.49319150E+00 0.24981557E+04</pdfrwt>
<pdfrwt beam="2">  1       -1 0.74874978E-01 0.24981557E+04</pdfrwt>
<totfact> 0.67114981E-01</totfact>
</mgrwt>
</event>
<event>
 6    1  0.1568961E-005  0.3730214E+04  0.7818608E-02  0.8061299E-01
          2   -1    0    0  501    0  0.00000000000E+00  0.00000000000E+00  0.40010990738E+04  0.40010990738E+04  0.00000000000E+00 0. -1.
         -2   -1    0    0    0  501 -0.00000000000E+00 -0.00000000000E+00 -0.86941722101E+03  0.86941722101E+03  0.00000000000E+00 0.  1.
         23    2    1    2    0    0 -0.16763336213E+04  0.46822051947E+03  0.24374217908E+04  0.29966641399E+04  0.98214643170E+02 0.  0.
         11    1    3    3    0    0 -0.58892484987E+03  0.15176681128E+03  0.93037770438E+03  0.11115162242E+04  0.00000000000E+00 0.  1.
        -11    1    3    3    0    0 -0.10874087714E+04  0.31645370819E+03  0.15070440864E+04  0.18851479157E+04  0.00000000000E+00 0. -1.
         22    1    1    2    0    0  0.16763336213E+04 -0.46822051947E+03  0.69426006198E+03  0.18738521549E+04  0.00000000000E+00 0.  1.
<mgrwt>
<rscale>  0 0.37302142E+04</rscale>
<asrwt>0</asrwt>
<pdfrwt beam="1">  1        2 0.61555369E+00 0.37302142E+04</pdfrwt>
<pdfrwt beam="2">  1       -2 0.13375650E+00 0.37302142E+04</pdfrwt>
<totfact> 0.11085911E-01</totfact>
</mgrwt>
</event>
<event>
 6    1  0.1568961E-005  0.2108406E+04  0.7818608E-02  0.8557550E-01
          1   -1    0    0  501    0  0.00000000000E+00  0.00000000000E+00  0.97801856076E+03  0.97801856076E+03  0.00000000000E+00 0. -1.
         -1   -1    0    0    0  501 -0.00000000000E+00 -0.00000000000E+00 -0.11363217202E+04  0.11363217202E+04  0.00000000000E+00 0.  1.
         23    2    1    2    0    0  0.24883363698E+03 -0.85705047662E+03 -0.63813399230E+03  0.11010825021E+04  0.93348732947E+02 0.  0.
         13    1    3    3    0    0  0.11339946905E+03 -0.51760766852E+03 -0.34161999585E+03  0.63046122772E+03  0.00000000000E+00 0. -1.
        -13    1    3    3    0    0  0.13543416793E+03 -0.33944280810E+03 -0.29651399645E+03  0.47062127438E+03  0.00000000000E+00 0.  1.
         22    1    1    2    0    0 -0.24883363698E+03  0.85705047662E+03  0.47983083282E+03  0.10132577789E+04  0.00000000000E+00 0. -1.
<mgrwt>
<rscale>  0 0.21084058E+04</rscale>
<asrwt>0</asrwt>
<pdfrwt beam="1">  1        1 0.15046439E+00 0.21084058E+04</pdfrwt>
<pdfrwt beam="2">  1       -1 0.17481873E+00 0.21084058E+04</pdfrwt>
<totfact> 0.32830219E+00</totfact>
</mgrwt>
</event>
<event>
 6    1  0.1568961E-005  0.8877859E+03  0.7818608E-02  0.9440980E-01
         -2   -1    0    0    0  501 -0.00000000000E+00  0.00000000000E+00  0.23188995074E+03  0.23188995074E+03  0.00000000000E+00 0.  1.
          2   -1    0    0  501    0  0.00000000000E+00 -0.00000000000E+00 -0.84971743322E+03  0.84971743322E+03  0.00000000000E+00 0. -1.
         23    2    1    2    0    0  0.43271715594E+03  0.67942651101E+02 -0.27338150908E+03  0.52437909190E+03  0.91518531626E+02 0.  0.
         11    1    3    3    0    0  0.29584001431E+03  0.27152497985E+01 -0.18110244688E+03  0.34688151135E+03  0.00000000000E+00 0. -1.
        -11    1    3    3    0    0  0.13687714163E+03  0.65227401302E+02 -0.92279062203E+02  0.17749758055E+03  0.00000000000E+00 0.  1.
         22    1    1    2    0    0 -0.43271715594E+03 -0.67942651101E+02 -0.34444597340E+03  0.55722829206E+03  0.00000000000E+00 0. -1.
<mgrwt>
<rscale>  0 0.88778586E+03</rscale>
<asrwt>0</asrwt>
<pdfrwt beam="1">  1        2 0.13072576E+00 0.88778586E+03</pdfrwt>
<pdfrwt beam="2">  1       -2 0.35675377E-01 0.88778586E+03</pdfrwt>
<totfact> 0.23501464E+02</totfact>
</mgrwt>
</event>
<event>
 6    1  0.1568961E-005  0.3969894E+04  0.7818608E-02  0.8010648E-01
          2   -1    0    0  501    0  0.00000000000E+00  0.00000000000E+00  0.27585548534E+04  0.27585548534E+04  0.00000000000E+00 0. -1.
         -2   -1    0    0    0  501 -0.00000000000E+00 -0.00000000000E+00 -0.14282894041E+04  0.14282894041E+04  0.00000000000E+00 0.  1.
         23    2    1    2    0    0  0.11255457818E+04  0.13538341236E+04  0.16297966974E+04  0.24009441736E+04  0.92604042222E+02 0.  0.
         13    1    3    3    0    0  0.56947536828E+03  0.63390484047E+03  0.83298116098E+03  0.11916354964E+04  0.00000000000E+00 0.  1.
        -13    1    3    3    0    0  0.55607041352E+03  0.71992928314E+03  0.79681553639E+03  0.12093086771E+04  0.00000000000E+00 0. -1.
         22    1    1    2    0    0 -0.11255457818E+04 -0.13538341236E+04 -0.29953124802E+03  0.17859000839E+04  0.00000000000E+00 0.  1.
<mgrwt>
<rscale>  0 0.39698940E+04</rscale>
<asrwt>0</asrwt>
<pdfrwt beam="1">  1        2 0.42439305E+00 0.39698940E+04</pdfrwt>
<pdfrwt beam="2">  1       -2 0.21973683E+00 0.39698940E+04</pdfrwt>
<totfact> 0.19214359E-01</totfact>
</mgrwt>
</event>
<event>
 6    1  0.1568961E-005  0.2202853E+04  0.7818608E-02  0.8517242E-01
         -2   -1    0    0    0  501 -0.00000000000E+00  0.00000000000E+00  0.61433642314E+03  0.61433642314E+03  0.00000000000E+00 0. -1.
          2   -1    0    0  501    0  0.00000000000E+00 -0.00000000000E+00 -0.19747157163E+04  0.19747157163E+04  0.00000000000E+00 0.  1.
         23    2    1    2    0    0  0.28884869785E+03  0.64231319207E+03 -0.16737881863E+04  0.18181922681E+04  0.90864866983E+02 0.  0.
         11    1    3    3    0    0  0.16864141630E+03  0.40952928192E+03 -0.11550074829E+04  0.12370110935E+04  0.00000000000E+00 0.  1.
        -11    1    3    3    0    0  0.12020728156E+03  0.23278391015E+03 -0.51878070344E+03  0.58118117453E+03  0.00000000000E+00 0. -1.
         22    1    1    2    0    0 -0.28884869785E+03 -0.64231319207E+03  0.31340889316E+03  0.77085987136E+03  0.00000000000E+00 0. -1.
<mgrwt>
<rscale>  0 0.22028525E+04</rscale>
<asrwt>0</asrwt>
<pdfrwt beam="1">  1        2 0.30380242E+00 0.22028525E+04</pdfrwt>
<pdfrwt beam="2">  1       -2 0.94513296E-01 0.22028525E+04</pdfrwt>
<totfact> 0.59482452E+00</totfact>
</mgrwt>
</event>
<event>
 6    1  0.1568961E-005  0.3516745E+04  0.7818608E-02  0.8109833E-01
         -2   -1    0    0    0  501 -0.00000000000E+00  0.00000000000E+00  0.87327928230E+03  0.87327928230E+03  0.00000000000E+00 0.  1.
          2   -1    0    0  501    0  0.00000000000E+00 -0.00000000000E+00 -0.35405332748E+04  0.35405332748E+04  0.00000000000E+00 0. -1.
         23    2    1    2    0    0 -0.13325781502E+04  0.11407501494E+04 -0.14633788215E+04  0.22862809223E+04  0.92344196637E+02 0.  0.
         13    1    3    3    0    0 -0.77303499106E+03  0.71285956103E+03 -0.84595804179E+03  0.13495913676E+04  0.00000000000E+00 0.  1.
        -13    1    3    3    0    0 -0.55954315915E+03  0.42789058837E+03 -0.61742077971E+03  0.93668955464E+03  0.00000000000E+00 0. -1.
         22    1    1    2    0    0  0.13325781502E+04 -0.11407501494E+04 -0.12038751710E+04  0.21275316348E+04  0.00000000000E+00 0. -1.
<mgrwt>
<rscale>  0 0.35167453E+04</rscale>
<asrwt>0</asrwt>
<pdfrwt beam="1">  1        2 0.54469742E+00 0.35167453E+04</pdfrwt>
<pdfrwt beam="2">  1       -2 0.13435066E+00 0.35167453E+04</pdfrwt>
<totfact> 0.24907671E-01</totfact>
</mgrwt>
</event>
<event>
 6    1  0.1568961E-005  0.1429385E+04  0.7818608E-02  0.8932819E-01
         -2   -1    0    0    0  501 -0.00000000000E+00  0.00000000000E+00  0.38782511224E+03  0.38782511224E+03  0.00000000000E+00 0. -1.
          2   -1    0    0  501    0  0.00000000000E+00 -0.00000000000E+00 -0.13170506931E+04  0.13170506931E+04  0.00000000000E+00 0.  1.
         23    2    1    2    0    0  0.21489960505E+03 -0.67705465229E+03 -0.41315288060E+03  0.82685765381E+03  0.91724775685E+02 0.  0.
         11    1    3    3    0    0  0.86158866795E+01 -0.14090882941E+03 -0.68173629542E+02  0.15677109259E+03  0.00000000000E+00 0.  1.
        -11    1    3    3    0    0  0.20628371837E+03 -0.53614582288E+03 -0.34497925106E+03  0.67008656121E+03  0.00000000000E+00 0. -1.
         22    1    1    2    0    0 -0.21489960505E+03  0.67705465229E+03 -0.51607270023E+03  0.87801815149E+03  0.00000000000E+00 0.  1.
<mgrwt>
<rscale>  0 0.14293849E+04</rscale>
<asrwt>0</asrwt>
<pdfrwt beam="1">  1        2 0.20262319E+00 0.14293849E+04</pdfrwt>
<pdfrwt beam="2">  1       -2 0.59665401E-01 0.14293849E+04</pdfrwt>
<totfact> 0.41123867E+01</totfact>
</mgrwt>
</event>
<event>
 6    1  0.1568961E-005  0.1475715E+04  0.7818608E-02  0.8900765E-01
          1   -1    0    0  501    0  0.00000000000E+00  0.00000000000E+00  0.36900653536E+03  0.36900653536E+03  0.00000000000E+00 0. -1.
         -1   -1    0    0    0  501 -0.00000000000E+00 -0.00000000000E+00 -0.14754037929E+04  0.14754037929E+04  0.00000000000E+00 0.  1.
         23    2    1    2    0    0  0.26155850236E+03  0.52862009128E+03 -0.11035594030E+04  0.12546136645E+04  0.91433256074E+02 0.  0.
         13    1    3    3    0    0  0.10922980278E+03  0.19422134191E+03 -0.32964425608E+03  0.39789246667E+03  0.00000000000E+00 0.  1.
        -13    1    3    3    0    0  0.15232869958E+03  0.33439874937E+03 -0.77391514690E+03  0.85672119788E+03  0.00000000000E+00 0. -1.
         22    1    1    2    0    0 -0.26155850236E+03 -0.52862009128E+03 -0.28378545313E+01  0.58979666367E+03  0.00000000000E+00 0. -1.
<mgrwt>
<rscale>  0 0.14757149E+04</rscale>
<asrwt>0</asrwt>
<pdfrwt beam="1">  1        1 0.56770236E-01 0.14757149E+04</pdfrwt>
<pdfrwt beam="2">  1       -1 0.22698520E+00 0.14757149E+04</pdfrwt>
<totfact> 0.63995188E+00</totfact>
</mgrwt>
</event>
<event>
 6    1  0.1568961E-005  0.3867360E+04  0.7818608E-02  0.8031852E-01
          2   -1    0    0  501    0  0.00000000000E+00  0.00000000000E+00  0.36869236732E+04  0.36869236732E+04  0.00000000000E+00 0.  1.
         -2   -1    0    0    0  501 -0.00000000000E+00 -0.00000000000E+00 -0.10141564672E+04  0.10141564672E+04  0.00000000000E+00 0. -1.
         23    2    1    2    0    0 -0.95624433903E+02  0.14025317833E+04 -0.27491713000E+03  0.14353363690E+04  0.91496603690E+02 0.  0.
         13    1    3    3    0    0 -0.78773856541E+02  0.98781120772E+03 -0.23446154108E+03  0.10183066909E+04  0.00000000000E+00 0.  1.
        -13    1    3    3    0    0 -0.16850577362E+02  0.41472057553E+03 -0.40455588918E+02  0.41702967808E+03  0.00000000000E+00 0. -1.
         22    1    1    2    0    0  0.95624433903E+02 -0.14025317833E+04  0.29476843360E+04  0.32657437713E+04  0.00000000000E+00 0.  1.
<mgrwt>
<rscale>  0 0.38673596E+04</rscale>
<asrwt>0</asrwt>
<pdfrwt beam="1">  1        2 0.56721902E+00 0.38673596E+04</pdfrwt>
<pdfrwt beam="2">  1       -2 0.15602407E+00 0.38673596E+04</pdfrwt>
<totfact> 0.12804406E-01</totfact>
</mgrwt>
</event>
<event>
 6    1  0.1568961E-005  0.2504871E+04  0.7818608E-02  0.8401252E-01
         -2   -1    0    0    0  501 -0.00000000000E+00  0.00000000000E+00  0.48425073461E+03  0.48425073461E+03  0.00000000000E+00 0.  1.
          2   -1    0    0  501    0  0.00000000000E+00 -0.00000000000E+00 -0.32392210429E+04  0.32392210429E+04  0.00000000000E+00 0. -1.
         23    2    1    2    0    0 -0.81642848783E+03  0.73145529373E+03 -0.48301927073E+03  0.12009048627E+04  0.85337863535E+02 0.  0.
         11    1    3    3    0    0 -0.51892505311E+03  0.45036819487E+03 -0.34587379092E+03  0.76924859502E+03  0.00000000000E+00 0. -1.
        -11    1    3    3    0    0 -0.29750343472E+03  0.28108709886E+03 -0.13714547981E+03  0.43165626771E+03  0.00000000000E+00 0.  1.
         22    1    1    2    0    0  0.81642848783E+03 -0.73145529373E+03 -0.22719510376E+04  0.25225669148E+04  0.00000000000E+00 0. -1.
<mgrwt>
<rscale>  0 0.25048714E+04</rscale>
<asrwt>0</asrwt>
<pdfrwt beam="1">  1        2 0.49834170E+00 0.25048714E+04</pdfrwt>
<pdfrwt beam="2">  1       -2 0.74500114E-01 0.25048714E+04</pdfrwt>
<totfact> 0.17669018E+00</totfact>
</mgrwt>
</event>
<event>
 6    1  0.1568961E-005  0.3926599E+04  0.7818608E-02  0.8019520E-01
          2   -1    0    0  501    0  0.00000000000E+00  0.00000000000E+00  0.18428822956E+04  0.18428822956E+04  0.00000000000E+00 0. -1.
         -2   -1    0    0    0  501 -0.00000000000E+00 -0.00000000000E+00 -0.20915849781E+04  0.20915849781E+04  0.00000000000E+00 0.  1.
         23    2    1    2    0    0  0.13923573853E+04  0.84645535803E+02 -0.15071709168E+04  0.20557532850E+04  0.93452883492E+02 0.  0.
         13    1    3    3    0    0  0.96106785438E+02  0.21786972403E+02 -0.81655696346E+02  0.12797983872E+03  0.00000000000E+00 0. -1.
        -13    1    3    3    0    0  0.12962505998E+04  0.62858563400E+02 -0.14255152204E+04  0.19277734463E+04  0.00000000000E+00 0.  1.
         22    1    1    2    0    0 -0.13923573853E+04 -0.84645535803E+02  0.12584682343E+04  0.18787139888E+04  0.00000000000E+00 0. -1.
<mgrwt>
<rscale>  0 0.39265990E+04</rscale>
<asrwt>0</asrwt>
<pdfrwt beam="1">  1        2 0.28352035E+00 0.39265990E+04</pdfrwt>
<pdfrwt beam="2">  1       -2 0.32178230E+00 0.39265990E+04</pdfrwt>
<totfact> 0.15130814E-01</totfact>
</mgrwt>
</event>
<event>
 6    1  0.1568961E-005  0.3499504E+04  0.7818608E-02  0.8113907E-01
          1   -1    0    0  501    0  0.00000000000E+00  0.00000000000E+00  0.10741375004E+04  0.10741375004E+04  0.00000000000E+00 0. -1.
         -1   -1    0    0    0  501 -0.00000000000E+00 -0.00000000000E+00 -0.28503167129E+04  0.28503167129E+04  0.00000000000E+00 0.  1.
         23    2    1    2    0    0 -0.12087157176E+04 -0.72540470493E+03  0.27144035817E+03  0.14385033734E+04  0.91686505650E+02 0.  0.
         11    1    3    3    0    0 -0.79736143877E+03 -0.47840326920E+03  0.13461819147E+03  0.93956213711E+03  0.00000000000E+00 0. -1.
        -11    1    3    3    0    0 -0.41135427885E+03 -0.24700143573E+03  0.13682216670E+03  0.49894123630E+03  0.00000000000E+00 0.  1.
         22    1    1    2    0    0  0.12087157176E+04  0.72540470493E+03 -0.20476195707E+04  0.24859508398E+04  0.00000000000E+00 0.  1.
<mgrwt>
<rscale>  0 0.34995040E+04</rscale>
<asrwt>0</asrwt>
<pdfrwt beam="1">  1        1 0.16525192E+00 0.34995040E+04</pdfrwt>
<pdfrwt beam="2">  1       -1 0.43851027E+00 0.34995040E+04</pdfrwt>
<totfact> 0.41996505E-02</totfact>
</mgrwt>
</event>
<event>
 6    1  0.1568961E-005  0.4738504E+04  0.7818608E-02  0.7870162E-01
          2   -1    0    0  501    0  0.00000000000E+00  0.00000000000E+00  0.20227758325E+04  0.20227758325E+04  0.00000000000E+00 0. -1.
         -2   -1    0    0    0  501 -0.00000000000E+00 -0.00000000000E+00 -0.27750746318E+04  0.27750746318E+04  0.00000000000E+00 0.  1.
         23    2    1    2    0    0 -0.20779443267E+04 -0.19055143543E+03  0.75811592848E+03  0.22219011006E+04  0.89119388860E+02 0.  0.
         11    1    3    3    0    0 -0.53330050647E+03 -0.53212046686E+02  0.23622810589E+03  0.58570015377E+03  0.00000000000E+00 0.  1.
        -11    1    3    3    0    0 -0.15446438202E+04 -0.13733938874E+03  0.52188782259E+03  0.16362009468E+04  0.00000000000E+00 0. -1.
         22    1    1    2    0    0  0.20779443267E+04  0.19055143543E+03 -0.15104147278E+04  0.25759493637E+04  0.00000000000E+00 0.  1.
<mgrwt>
<rscale>  0 0.47385035E+04</rscale>
<asrwt>0</asrwt>
<pdfrwt beam="1">  1        2 0.31119628E+00 0.47385035E+04</pdfrwt>
<pdfrwt beam="2">  1       -2 0.42693456E+00 0.47385035E+04</pdfrwt>
<totfact> 0.23820942E-02</totfact>
</mgrwt>
</event>
<event>
 6    1  0.1568961E-005  0.3643258E+04  0.7818608E-02  0.8080654E-01
          2   -1    0    0  501    0  0.00000000000E+00  0.00000000000E+00  0.28255164462E+04  0.28255164462E+04  0.00000000000E+00 0. -1.
         -2   -1    0    0    0  501 -0.00000000000E+00 -0.00000000000E+00 -0.11744163422E+04  0.11744163422E+04  0.00000000000E+00 0.  1.
         23    2    1    2    0    0 -0.94002220219E+03 -0.10692807814E+04 -0.41955923301E+03  0.14870393923E+04  0.90846432876E+02 0.  0.
         11    1    3    3    0    0 -0.65011344764E+03 -0.80055768006E+03 -0.30869356746E+03  0.10764905074E+04  0.00000000000E+00 0.  1.
        -11    1    3    3    0    0 -0.28990875454E+03 -0.26872310131E+03 -0.11086566554E+03  0.41054888495E+03  0.00000000000E+00 0. -1.
         22    1    1    2    0    0  0.94002220219E+03  0.10692807814E+04  0.20706593370E+04  0.25128933960E+04  0.00000000000E+00 0. -1.
<mgrwt>
<rscale>  0 0.36432583E+04</rscale>
<asrwt>0</asrwt>
<pdfrwt beam="1">  1        2 0.43469484E+00 0.36432583E+04</pdfrwt>
<pdfrwt beam="2">  1       -2 0.18067944E+00 0.36432583E+04</pdfrwt>
<totfact> 0.32494474E-01</totfact>
</mgrwt>
</event>
<event>
 6    1  0.1568961E-005  0.3292352E+04  0.7818608E-02  0.8164844E-01
         -1   -1    0    0    0  501 -0.00000000000E+00  0.00000000000E+00  0.76782926198E+03  0.76782926198E+03  0.00000000000E+00 0.  1.
          1   -1    0    0  501    0  0.00000000000E+00 -0.00000000000E+00 -0.35292953364E+04  0.35292953364E+04  0.00000000000E+00 0. -1.
         23    2    1    2    0    0  0.93773949084E+03  0.49968081748E+03 -0.30206245458E+04  0.32034155944E+04  0.93072828097E+02 0.  0.
         11    1    3    3    0    0  0.90379412663E+03  0.49853384542E+03 -0.29059375299E+04  0.30838049138E+04  0.00000000000E+00 0. -1.
        -11    1    3    3    0    0  0.33945364207E+02  0.11469720658E+01 -0.11468701591E+03  0.11961068061E+03  0.00000000000E+00 0.  1.
         22    1    1    2    0    0 -0.93773949084E+03 -0.49968081748E+03  0.25915847146E+03  0.10937090040E+04  0.00000000000E+00 0.  1.
<mgrwt>
<rscale>  0 0.32923525E+04</rscale>
<asrwt>0</asrwt>
<pdfrwt beam="1">  1        1 0.54296852E+00 0.32923525E+04</pdfrwt>
<pdfrwt beam="2">  1       -1 0.11812758E+00 0.32923525E+04</pdfrwt>
<totfact> 0.12634945E-01</totfact>
</mgrwt>
</event>
<event>
 6    1  0.1568961E-005  0.1657213E+04  0.7818608E-02  0.8786151E-01
          1   -1    0    0  501    0  0.00000000000E+00  0.00000000000E+00  0.13089754324E+04  0.13089754324E+04  0.00000000000E+00 0. -1.
         -1   -1    0    0    0  501 -0.00000000000E+00 -0.00000000000E+00 -0.52452347703E+03  0.52452347703E+03  0.00000000000E+00 0.  1.
         23    2    1    2    0    0  0.39778783886E+02  0.80913908183E+03  0.21477866213E+03  0.84313732576E+03  0.91990602798E+02 0.  0.
         13    1    3    3    0    0  0.25321495783E+02  0.18002808857E+03  0.12842535000E+02  0.18225317975E+03  0.00000000000E+00 0. -1.
        -13    1    3    3    0    0  0.14457288103E+02  0.62911099326E+03  0.20193612713E+03  0.66088414602E+03  0.00000000000E+00 0.  1.
         22    1    1    2    0    0 -0.39778783886E+02 -0.80913908183E+03  0.56967329328E+03  0.99036158370E+03  0.00000000000E+00 0. -1.
<mgrwt>
<rscale>  0 0.16572125E+04</rscale>
<asrwt>0</asrwt>
<pdfrwt beam="1">  1        1 0.20138084E+00 0.16572125E+04</pdfrwt>
<pdfrwt beam="2">  1       -1 0.80695920E-01 0.16572125E+04</pdfrwt>
<totfact> 0.13034902E+01</totfact>
</mgrwt>
</event>
<event>
 6    1  0.1568961E-005  0.1112719E+04  0.7818608E-02  0.9192883E-01
          1   -1    0    0  501    0  0.00000000000E+00  0.00000000000E+00  0.87812690999E+03  0.87812690999E+03  0.00000000000E+00 0. -1.
         -1   -1    0    0    0  501 -0.00000000000E+00 -0.00000000000E+00 -0.35249591920E+03  0.35249591920E+03  0.00000000000E+00 0.  1.
         23    2    1    2    0    0  0.44393395116E+03 -0.31780031611E+03  0.17041592379E+03  0.57927642540E+03  0.91897747678E+02 0.  0.
         13    1    3    3    0    0  0.20324579791E+03 -0.11286847560E+03  0.33886650525E+02  0.23493925223E+03  0.00000000000E+00 0. -1.
        -13    1    3    3    0    0  0.24068815324E+03 -0.20493184051E+03  0.13652927326E+03  0.34433717317E+03  0.00000000000E+00 0.  1.
         22    1    1    2    0    0 -0.44393395116E+03  0.31780031611E+03  0.35521506701E+03  0.65134640380E+03  0.00000000000E+00 0. -1.
<mgrwt>
<rscale>  0 0.11127195E+04</rscale>
<asrwt>0</asrwt>
<pdfrwt beam="1">  1        1 0.13509645E+00 0.11127195E+04</pdfrwt>
<pdfrwt beam="2">  1       -1 0.54230142E-01 0.11127195E+04</pdfrwt>
<totfact> 0.64844315E+01</totfact>
</mgrwt>
</event>
<event>
 6    1  0.1972852E-005  0.3944019E+04  0.7818608E-02  0.8015936E-01
          2   -1    0    0  501    0  0.00000000000E+00  0.00000000000E+00  0.15635475505E+04  0.15635475505E+04  0.00000000000E+00 0. -1.
         -2   -1    0    0    0  501 -0.00000000000E+00 -0.00000000000E+00 -0.24871777507E+04  0.24871777507E+04  0.00000000000E+00 0.  1.
         23    2    1    2    0    0  0.10648068560E+04 -0.15096713242E+04  0.24326702795E+03  0.18656462892E+04  0.92390917962E+02 0.  0.
         13    1    3    3    0    0  0.52913754268E+03 -0.70408165221E+03  0.77896459929E+02  0.88418627592E+03  0.00000000000E+00 0.  1.
        -13    1    3    3    0    0  0.53566931329E+03 -0.80558967199E+03  0.16537056802E+03  0.98146001324E+03  0.00000000000E+00 0. -1.
         22    1    1    2    0    0 -0.10648068560E+04  0.15096713242E+04 -0.11668972282E+04  0.21850790120E+04  0.00000000000E+00 0.  1.
<mgrwt>
<rscale>  0 0.39440186E+04</rscale>
<asrwt>0</asrwt>
<pdfrwt beam="1">  1        2 0.24054578E+00 0.39440186E+04</pdfrwt>
<pdfrwt beam="2">  1       -2 0.38264273E+00 0.39440186E+04</pdfrwt>
<totfact> 0.89126770E-02</totfact>
</mgrwt>
</event>
<event>
 6    1  0.1568961E-005  0.1652042E+04  0.7818608E-02  0.8789200E-01
         -1   -1    0    0    0  501 -0.00000000000E+00  0.00000000000E+00  0.35270253297E+03  0.35270253297E+03  0.00000000000E+00 0.  1.
          1   -1    0    0  501    0  0.00000000000E+00 -0.00000000000E+00 -0.19345211261E+04  0.19345211261E+04  0.00000000000E+00 0. -1.
         23    2    1    2    0    0 -0.50807834846E+02  0.32234995294E+03 -0.18400914561E+04  0.18710556642E+04  0.91770384810E+02 0.  0.
         13    1    3    3    0    0 -0.36650710778E+02  0.23654081461E+03 -0.10920146206E+04  0.11179404113E+04  0.00000000000E+00 0.  1.
        -13    1    3    3    0    0 -0.14157124068E+02  0.85809138331E+02 -0.74807683549E+03  0.75311525292E+03  0.00000000000E+00 0. -1.
         22    1    1    2    0    0  0.50807834846E+02 -0.32234995294E+03  0.25827286293E+03  0.41616799489E+03  0.00000000000E+00 0.  1.
<mgrwt>
<rscale>  0 0.16520418E+04</rscale>
<asrwt>0</asrwt>
<pdfrwt beam="1">  1        1 0.29761863E+00 0.16520418E+04</pdfrwt>
<pdfrwt beam="2">  1       -1 0.54261929E-01 0.16520418E+04</pdfrwt>
<totfact> 0.10820150E+01</totfact>
</mgrwt>
</event>
<event>
 6    1  0.1568961E-005  0.2051775E+04  0.7818608E-02  0.8582790E-01
         -2   -1    0    0    0  501 -0.00000000000E+00  0.00000000000E+00  0.25796996770E+04  0.25796996770E+04  0.00000000000E+00 0.  1.
          2   -1    0    0  501    0  0.00000000000E+00 -0.00000000000E+00 -0.40797182381E+03  0.40797182381E+03  0.00000000000E+00 0. -1.
         23    2    1    2    0    0 -0.72470379576E+03  0.26339043296E+03  0.20683054299E+04  0.22096828702E+04  0.10119744885E+03 0.  0.
         11    1    3    3    0    0 -0.42248610304E+03  0.15761775227E+03  0.13478372574E+04  0.14212681434E+04  0.00000000000E+00 0. -1.
        -11    1    3    3    0    0 -0.30221769272E+03  0.10577268069E+03  0.72046817251E+03  0.78841472676E+03  0.00000000000E+00 0.  1.
         22    1    1    2    0    0  0.72470379576E+03 -0.26339043296E+03  0.10342242331E+03  0.77798863064E+03  0.00000000000E+00 0. -1.
<mgrwt>
<rscale>  0 0.20517746E+04</rscale>
<asrwt>0</asrwt>
<pdfrwt beam="1">  1        2 0.62764897E-01 0.20517746E+04</pdfrwt>
<pdfrwt beam="2">  1       -2 0.39687686E+00 0.20517746E+04</pdfrwt>
<totfact> 0.56113971E-01</totfact>
</mgrwt>
</event>
<event>
 6    1  0.1568961E-005  0.2772579E+04  0.7818608E-02  0.8311832E-01
         -1   -1    0    0    0  501 -0.00000000000E+00  0.00000000000E+00  0.14347504512E+04  0.14347504512E+04  0.00000000000E+00 0.  1.
          1   -1    0    0  501    0  0.00000000000E+00 -0.00000000000E+00 -0.13394652299E+04  0.13394652299E+04  0.00000000000E+00 0. -1.
         23    2    1    2    0    0  0.42588159420E+03 -0.83352701134E+02  0.13635294154E+04  0.14337806245E+04  0.90507498648E+02 0.  0.
         11    1    3    3    0    0  0.36960135026E+03 -0.90351950867E+02  0.10918891016E+04  0.11562830291E+04  0.00000000000E+00 0. -1.
        -11    1    3    3    0    0  0.56280243945E+02  0.69992497335E+01  0.27164031378E+03  0.27749759536E+03  0.00000000000E+00 0.  1.
         22    1    1    2    0    0 -0.42588159420E+03  0.83352701134E+02 -0.12682441942E+04  0.13404350566E+04  0.00000000000E+00 0. -1.
<mgrwt>
<rscale>  0 0.27725788E+04</rscale>
<asrwt>0</asrwt>
<pdfrwt beam="1">  1        1 0.20607157E+00 0.27725788E+04</pdfrwt>
<pdfrwt beam="2">  1       -1 0.22073084E+00 0.27725788E+04</pdfrwt>
<totfact> 0.80057245E-01</totfact>
</mgrwt>
</event>
<event>
 6    1  0.1568961E-005  0.8200190E+03  0.7818608E-02  0.9531484E-01
         -2   -1    0    0    0  501 -0.00000000000E+00  0.00000000000E+00  0.15447278465E+04  0.15447278465E+04  0.00000000000E+00 0. -1.
          2   -1    0    0  501    0  0.00000000000E+00 -0.00000000000E+00 -0.10882680491E+03  0.10882680491E+03  0.00000000000E+00 0.  1.
         23    2    1    2    0    0 -0.25756215357E+03  0.12416669862E+03  0.14756704963E+03  0.33387283110E+03  0.89103317657E+02 0.  0.
         11    1    3    3    0    0 -0.11655845954E+03  0.17844671506E+02  0.29844430276E+02  0.12163468589E+03  0.00000000000E+00 0. -1.
        -11    1    3    3    0    0 -0.14100369402E+03  0.10632202711E+03  0.11772261935E+03  0.21223814522E+03  0.00000000000E+00 0.  1.
         22    1    1    2    0    0  0.25756215357E+03 -0.12416669862E+03  0.12883339920E+04  0.13196818203E+04  0.00000000000E+00 0. -1.
<mgrwt>
<rscale>  0 0.82001901E+03</rscale>
<asrwt>0</asrwt>
<pdfrwt beam="1">  1        2 0.16742586E-01 0.82001901E+03</pdfrwt>
<pdfrwt beam="2">  1       -2 0.23765042E+00 0.82001901E+03</pdfrwt>
<totfact> 0.27410313E+01</totfact>
</mgrwt>
</event>
<event>
 6    1  0.1568961E-005  0.2012142E+04  0.7818608E-02  0.8600965E-01
         -2   -1    0    0    0  501 -0.00000000000E+00  0.00000000000E+00  0.69527622431E+03  0.69527622431E+03  0.00000000000E+00 0.  1.
          2   -1    0    0  501    0  0.00000000000E+00 -0.00000000000E+00 -0.14557945196E+04  0.14557945196E+04  0.00000000000E+00 0. -1.
         23    2    1    2    0    0 -0.39221424790E+03  0.91967995079E+03 -0.48132589110E+03  0.11129996352E+04  0.86315389149E+02 0.  0.
         13    1    3    3    0    0 -0.22914887959E+03  0.57014946696E+03 -0.33970371037E+03  0.70212408770E+03  0.00000000000E+00 0. -1.
        -13    1    3    3    0    0 -0.16306536832E+03  0.34953048384E+03 -0.14162218073E+03  0.41087554752E+03  0.00000000000E+00 0.  1.
         22    1    1    2    0    0  0.39221424790E+03 -0.91967995079E+03 -0.27919240421E+03  0.10380711087E+04  0.00000000000E+00 0.  1.
<mgrwt>
<rscale>  0 0.20121425E+04</rscale>
<asrwt>0</asrwt>
<pdfrwt beam="1">  1        2 0.22396838E+00 0.20121425E+04</pdfrwt>
<pdfrwt beam="2">  1       -2 0.10696557E+00 0.20121425E+04</pdfrwt>
<totfact> 0.87756080E+00</totfact>
</mgrwt>
</event>
<event>
 6    1  0.1568961E-005  0.1566436E+04  0.7818608E-02  0.8841437E-01
          2   -1    0    0  501    0  0.00000000000E+00  0.00000000000E+00  0.61171492292E+03  0.61171492292E+03  0.00000000000E+00 0. -1.
         -2   -1    0    0    0  501 -0.00000000000E+00 -0.00000000000E+00 -0.10028045918E+04  0.10028045918E+04  0.00000000000E+00 0.  1.
         23    2    1    2    0    0 -0.26915001718E+02 -0.39970433356E+03 -0.88657328441E+03  0.97734451135E+03  0.93285227352E+02 0.  0.
         11    1    3    3    0    0 -0.33633775669E+02 -0.11008230181E+03 -0.33658772817E+03  0.35572551608E+03  0.00000000000E+00 0. -1.
        -11    1    3    3    0    0  0.67187739512E+01 -0.28962203175E+03 -0.54998555624E+03  0.62161899527E+03  0.00000000000E+00 0.  1.
         22    1    1    2    0    0  0.26915001718E+02  0.39970433356E+03  0.49548361556E+03  0.63717500334E+03  0.00000000000E+00 0. -1.
<mgrwt>
<rscale>  0 0.15664361E+04</rscale>
<asrwt>0</asrwt>
<pdfrwt beam="1">  1        2 0.94109989E-01 0.15664361E+04</pdfrwt>
<pdfrwt beam="2">  1       -2 0.15427763E+00 0.15664361E+04</pdfrwt>
<totfact> 0.12936816E+01</totfact>
</mgrwt>
</event>
<event>
 6    1  0.1568961E-005  0.3626662E+04  0.7818608E-02  0.8084412E-01
         -1   -1    0    0    0  501 -0.00000000000E+00  0.00000000000E+00  0.14998035085E+04  0.14998035085E+04  0.00000000000E+00 0.  1.
          1   -1    0    0  501    0  0.00000000000E+00 -0.00000000000E+00 -0.21923996469E+04  0.21923996469E+04  0.00000000000E+00 0. -1.
         23    2    1    2    0    0 -0.47078535043E+03 -0.51686814316E+03  0.13558596202E+04  0.15277257315E+04  0.82456518235E+02 0.  0.
         11    1    3    3    0    0 -0.17548587927E+03 -0.22676485956E+03  0.48346871806E+03  0.56210283463E+03  0.00000000000E+00 0. -1.
        -11    1    3    3    0    0 -0.29529947116E+03 -0.29010328359E+03  0.87239090211E+03  0.96562289684E+03  0.00000000000E+00 0.  1.
         22    1    1    2    0    0  0.47078535043E+03  0.51686814316E+03 -0.20484557586E+04  0.21644774239E+04  0.00000000000E+00 0. -1.
<mgrwt>
<rscale>  0 0.36266617E+04</rscale>
<asrwt>0</asrwt>
<pdfrwt beam="1">  1        1 0.33729225E+00 0.36266617E+04</pdfrwt>
<pdfrwt beam="2">  1       -1 0.23073900E+00 0.36266617E+04</pdfrwt>
<totfact> 0.16612028E-01</totfact>
</mgrwt>
</event>
<event>
 6    1  0.1851301E-005  0.3099372E+04  0.7818608E-02  0.8215910E-01
          2   -1    0    0  501    0  0.00000000000E+00  0.00000000000E+00  0.18001113183E+04  0.18001113183E+04  0.00000000000E+00 0. -1.
         -2   -1    0    0    0  501 -0.00000000000E+00 -0.00000000000E+00 -0.13340989625E+04  0.13340989625E+04  0.00000000000E+00 0.  1.
         23    2    1    2    0    0 -0.81404103063E+03 -0.10279971453E+04 -0.59942253213E+03  0.14446563661E+04  0.91014909317E+02 0.  0.
         13    1    3    3    0    0 -0.43956186286E+03 -0.60805242308E+03 -0.37628142400E+03  0.83936290753E+03  0.00000000000E+00 0.  1.
        -13    1    3    3    0    0 -0.37447916777E+03 -0.41994472222E+03 -0.22314110812E+03  0.60529345854E+03  0.00000000000E+00 0. -1.
         22    1    1    2    0    0  0.81404103063E+03  0.10279971453E+04  0.10654348879E+04  0.16895539147E+04  0.00000000000E+00 0. -1.
<mgrwt>
<rscale>  0 0.30993720E+04</rscale>
<asrwt>0</asrwt>
<pdfrwt beam="1">  1        2 0.27694020E+00 0.30993720E+04</pdfrwt>
<pdfrwt beam="2">  1       -2 0.20524599E+00 0.30993720E+04</pdfrwt>
<totfact> 0.90042421E-01</totfact>
</mgrwt>
</event>
<event>
 6    1  0.1568961E-005  0.1802439E+04  0.7818608E-02  0.8705004E-01
         -2   -1    0    0    0  501 -0.00000000000E+00  0.00000000000E+00  0.39793830572E+03  0.39793830572E+03  0.00000000000E+00 0.  1.
          2   -1    0    0  501    0  0.00000000000E+00 -0.00000000000E+00 -0.20410113771E+04  0.20410113771E+04  0.00000000000E+00 0. -1.
         23    2    1    2    0    0  0.67175182181E+03  0.23137066565E+03 -0.15682123752E+04  0.17245359240E+04  0.99755722985E+02 0.  0.
         11    1    3    3    0    0  0.45424467159E+03  0.13008867080E+03 -0.94025898872E+03  0.10523061578E+04  0.00000000000E+00 0. -1.
        -11    1    3    3    0    0  0.21750715022E+03  0.10128199485E+03 -0.62795338651E+03  0.67222976615E+03  0.00000000000E+00 0.  1.
         22    1    1    2    0    0 -0.67175182181E+03 -0.23137066565E+03 -0.74860696193E+02  0.71441375887E+03  0.00000000000E+00 0.  1.
<mgrwt>
<rscale>  0 0.18024390E+04</rscale>
<asrwt>0</asrwt>
<pdfrwt beam="1">  1        2 0.31400174E+00 0.18024390E+04</pdfrwt>
<pdfrwt beam="2">  1       -2 0.61221279E-01 0.18024390E+04</pdfrwt>
<totfact> 0.14848043E+01</totfact>
</mgrwt>
</event>
<event>
 6    1  0.1568961E-005  0.3129534E+04  0.7818608E-02  0.8207679E-01
          1   -1    0    0  501    0  0.00000000000E+00  0.00000000000E+00  0.19041022968E+04  0.19041022968E+04  0.00000000000E+00 0. -1.
         -1   -1    0    0    0  501 -0.00000000000E+00 -0.00000000000E+00 -0.12859055007E+04  0.12859055007E+04  0.00000000000E+00 0.  1.
         23    2    1    2    0    0 -0.97683019834E+03  0.88846441483E+03 -0.54378422177E+03  0.14310972999E+04  0.93658684944E+02 0.  0.
         11    1    3    3    0    0 -0.71272286513E+03  0.64429279142E+03 -0.35004948593E+03  0.10225564660E+04  0.00000000000E+00 0. -1.
        -11    1    3    3    0    0 -0.26410733321E+03  0.24417162341E+03 -0.19373473584E+03  0.40854083395E+03  0.00000000000E+00 0.  1.
         22    1    1    2    0    0  0.97683019834E+03 -0.88846441483E+03  0.11619810179E+04  0.17589104976E+04  0.00000000000E+00 0.  1.
<mgrwt>
<rscale>  0 0.31295339E+04</rscale>
<asrwt>0</asrwt>
<pdfrwt beam="1">  1        1 0.29293881E+00 0.31295339E+04</pdfrwt>
<pdfrwt beam="2">  1       -1 0.19783162E+00 0.31295339E+04</pdfrwt>
<totfact> 0.45397817E-01</totfact>
</mgrwt>
</event>
<event>
 6    1  0.1568961E-005  0.2327850E+04  0.7818608E-02  0.8467021E-01
         -2   -1    0    0    0  501 -0.00000000000E+00  0.00000000000E+00  0.78635927924E+03  0.78635927924E+03  0.00000000000E+00 0. -1.
          2   -1    0    0  501    0  0.00000000000E+00 -0.00000000000E+00 -0.17227767178E+04  0.17227767178E+04  0.00000000000E+00 0.  1.
         23    2    1    2    0    0 -0.12475649172E+03  0.59658872258E+03  0.59754507500E+03  0.85852299602E+03  0.92300227042E+02 0.  0.
         13    1    3    3    0    0 -0.11990748511E+03  0.48553578818E+03  0.44271078213E+03  0.66791888969E+03  0.00000000000E+00 0.  1.
        -13    1    3    3    0    0 -0.48490066069E+01  0.11105293440E+03  0.15483429286E+03  0.19060410633E+03  0.00000000000E+00 0. -1.
         22    1    1    2    0    0  0.12475649172E+03 -0.59658872258E+03 -0.15339625135E+04  0.16506130010E+04  0.00000000000E+00 0.  1.
<mgrwt>
<rscale>  0 0.23278500E+04</rscale>
<asrwt>0</asrwt>
<pdfrwt beam="1">  1        2 0.26504257E+00 0.23278500E+04</pdfrwt>
<pdfrwt beam="2">  1       -2 0.12097835E+00 0.23278500E+04</pdfrwt>
<totfact> 0.44838775E+00</totfact>
</mgrwt>
</event>
<event>
 6    1  0.1568961E-005  0.1804177E+04  0.7818608E-02  0.8704082E-01
          1   -1    0    0  501    0  0.00000000000E+00  0.00000000000E+00  0.11571584528E+04  0.11571584528E+04  0.00000000000E+00 0. -1.
         -1   -1    0    0    0  501 -0.00000000000E+00 -0.00000000000E+00 -0.70324268424E+03  0.70324268424E+03  0.00000000000E+00 0.  1.
         23    2    1    2    0    0 -0.42306838379E+03 -0.72498897904E+03  0.56209184169E+03  0.10140572708E+04  0.88142118033E+02 0.  0.
         13    1    3    3    0    0 -0.15803962497E+03 -0.26887258093E+03  0.15845279461E+03  0.34982320671E+03  0.00000000000E+00 0.  1.
        -13    1    3    3    0    0 -0.26502875882E+03 -0.45611639811E+03  0.40363904708E+03  0.66423406413E+03  0.00000000000E+00 0. -1.
         22    1    1    2    0    0  0.42306838379E+03  0.72498897904E+03 -0.10817607310E+03  0.84634386622E+03  0.00000000000E+00 0. -1.
<mgrwt>
<rscale>  0 0.18041765E+04</rscale>
<asrwt>0</asrwt>
<pdfrwt beam="1">  1        1 0.17802438E+00 0.18041765E+04</pdfrwt>
<pdfrwt beam="2">  1       -1 0.10819118E+00 0.18041765E+04</pdfrwt>
<totfact> 0.86036618E+00</totfact>
</mgrwt>
</event>
<event>
 6    1  0.1568961E-005  0.1534561E+04  0.7818608E-02  0.8861790E-01
         -2   -1    0    0    0  501 -0.00000000000E+00  0.00000000000E+00  0.12132335799E+04  0.12132335799E+04  0.00000000000E+00 0.  1.
          2   -1    0    0  501    0  0.00000000000E+00 -0.00000000000E+00 -0.48524811009E+03  0.48524811009E+03  0.00000000000E+00 0. -1.
         23    2    1    2    0    0  0.33151158424E+03  0.17559145750E+03 -0.37204797122E+03  0.53623995016E+03  0.91658610196E+02 0.  0.
         11    1    3    3    0    0  0.67802509223E+02  0.26190012063E+02 -0.12763528843E+03  0.14688044064E+03  0.00000000000E+00 0. -1.
        -11    1    3    3    0    0  0.26370907502E+03  0.14940144544E+03 -0.24441268279E+03  0.38935950952E+03  0.00000000000E+00 0.  1.
         22    1    1    2    0    0 -0.33151158424E+03 -0.17559145750E+03  0.11000334410E+04  0.11622417398E+04  0.00000000000E+00 0.  1.
<mgrwt>
<rscale>  0 0.15345609E+04</rscale>
<asrwt>0</asrwt>
<pdfrwt beam="1">  1        2 0.74653556E-01 0.15345609E+04</pdfrwt>
<pdfrwt beam="2">  1       -2 0.18665132E+00 0.15345609E+04</pdfrwt>
<totfact> 0.10021773E+01</totfact>
</mgrwt>
</event>
<event>
 6    1  0.1568961E-005  0.5099255E+04  0.7818608E-02  0.7813376E-01
          1   -1    0    0  501    0  0.00000000000E+00  0.00000000000E+00  0.25471000354E+04  0.25471000354E+04  0.00000000000E+00 0.  1.
         -1   -1    0    0    0  501 -0.00000000000E+00 -0.00000000000E+00 -0.25521572034E+04  0.25521572034E+04  0.00000000000E+00 0. -1.
         23    2    1    2    0    0  0.16991488020E+04 -0.50845516339E+03 -0.18330804128E+04  0.25522389255E+04  0.90035706918E+02 0.  0.
         13    1    3    3    0    0  0.44396141356E+03 -0.15449109873E+03 -0.53520122858E+03  0.71232688520E+03  0.00000000000E+00 0. -1.
        -13    1    3    3    0    0  0.12551873885E+04 -0.35396406465E+03 -0.12978791842E+04  0.18399120403E+04  0.00000000000E+00 0.  1.
         22    1    1    2    0    0 -0.16991488020E+04  0.50845516339E+03  0.18280232449E+04  0.25470183133E+04  0.00000000000E+00 0.  1.
<mgrwt>
<rscale>  0 0.50992547E+04</rscale>
<asrwt>0</asrwt>
<pdfrwt beam="1">  1        1 0.39186154E+00 0.50992547E+04</pdfrwt>
<pdfrwt beam="2">  1       -1 0.39263957E+00 0.50992547E+04</pdfrwt>
<totfact> 0.72304336E-03</totfact>
</mgrwt>
</event>
<event>
 6    1  0.1568961E-005  0.3019151E+04  0.7818608E-02  0.8238283E-01
         -2   -1    0    0    0  501 -0.00000000000E+00  0.00000000000E+00  0.12393082028E+04  0.12393082028E+04  0.00000000000E+00 0.  1.
          2   -1    0    0  501    0  0.00000000000E+00 -0.00000000000E+00 -0.18387824905E+04  0.18387824905E+04  0.00000000000E+00 0. -1.
         23    2    1    2    0    0 -0.53326795088E+02 -0.15016845087E+04 -0.17521776529E+03  0.15167151115E+04  0.10873524511E+03 0.  0.
         13    1    3    3    0    0  0.29623595287E+02 -0.50649443028E+03 -0.39522423565E+02  0.50889703012E+03  0.00000000000E+00 0.  1.
        -13    1    3    3    0    0 -0.82950390375E+02 -0.99519007841E+03 -0.13569534173E+03  0.10078180814E+04  0.00000000000E+00 0. -1.
         22    1    1    2    0    0  0.53326795088E+02  0.15016845087E+04 -0.42425652235E+03  0.15613755818E+04  0.00000000000E+00 0.  1.
<mgrwt>
<rscale>  0 0.30191510E+04</rscale>
<asrwt>0</asrwt>
<pdfrwt beam="1">  1        2 0.28288961E+00 0.30191510E+04</pdfrwt>
<pdfrwt beam="2">  1       -2 0.19066280E+00 0.30191510E+04</pdfrwt>
<totfact> 0.10768545E+00</totfact>
</mgrwt>
</event>
<event>
 6    1  0.1568961E-005  0.3445732E+04  0.7818608E-02  0.8126773E-01
          2   -1    0    0  501    0  0.00000000000E+00  0.00000000000E+00  0.23035277748E+04  0.23035277748E+04  0.00000000000E+00 0. -1.
         -2   -1    0    0    0  501 -0.00000000000E+00 -0.00000000000E+00 -0.12885743418E+04  0.12885743418E+04  0.00000000000E+00 0.  1.
         23    2    1    2    0    0 -0.46636585848E+03 -0.94027372551E+03  0.19305357428E+04  0.21992981968E+04  0.91282590908E+02 0.  0.
         13    1    3    3    0    0 -0.44306258090E+03 -0.92071017260E+03  0.18535993158E+04  0.21165637473E+04  0.00000000000E+00 0. -1.
        -13    1    3    3    0    0 -0.23303277576E+02 -0.19563552906E+02  0.76936426967E+02  0.82734449551E+02  0.00000000000E+00 0.  1.
         22    1    1    2    0    0  0.46636585848E+03  0.94027372551E+03 -0.91558230978E+03  0.13928039197E+04  0.00000000000E+00 0.  1.
<mgrwt>
<rscale>  0 0.34457317E+04</rscale>
<asrwt>0</asrwt>
<pdfrwt beam="1">  1        2 0.35438889E+00 0.34457317E+04</pdfrwt>
<pdfrwt beam="2">  1       -2 0.19824221E+00 0.34457317E+04</pdfrwt>
<totfact> 0.50874873E-01</totfact>
</mgrwt>
</event>
<event>
 6    1  0.1568961E-005  0.2785855E+04  0.7818608E-02  0.8307673E-01
          1   -1    0    0  501    0  0.00000000000E+00  0.00000000000E+00  0.19577532584E+04  0.19577532584E+04  0.00000000000E+00 0. -1.
         -1   -1    0    0    0  501 -0.00000000000E+00 -0.00000000000E+00 -0.99105817236E+03  0.99105817236E+03  0.00000000000E+00 0.  1.
         23    2    1    2    0    0  0.94032026957E+03 -0.23077506125E+03 -0.57422916248E+03  0.11289469089E+04  0.85572506379E+02 0.  0.
         13    1    3    3    0    0  0.81178792040E+03 -0.21412205393E+03 -0.52566130619E+03  0.99053909086E+03  0.00000000000E+00 0. -1.
        -13    1    3    3    0    0  0.12853234916E+03 -0.16653007320E+02 -0.48567856293E+02  0.13840781806E+03  0.00000000000E+00 0.  1.
         22    1    1    2    0    0 -0.94032026957E+03  0.23077506125E+03  0.15409242486E+04  0.18198645219E+04  0.00000000000E+00 0. -1.
<mgrwt>
<rscale>  0 0.27858552E+04</rscale>
<asrwt>0</asrwt>
<pdfrwt beam="1">  1        1 0.30119281E+00 0.27858552E+04</pdfrwt>
<pdfrwt beam="2">  1       -1 0.15247049E+00 0.27858552E+04</pdfrwt>
<totfact> 0.92095903E-01</totfact>
</mgrwt>
</event>
<event>
 6    1  0.1568961E-005  0.1870148E+04  0.7818608E-02  0.8669860E-01
         -1   -1    0    0    0  501 -0.00000000000E+00  0.00000000000E+00  0.35440890220E+03  0.35440890220E+03  0.00000000000E+00 0. -1.
          1   -1    0    0  501    0  0.00000000000E+00 -0.00000000000E+00 -0.24671040308E+04  0.24671040308E+04  0.00000000000E+00 0.  1.
         23    2    1    2    0    0 -0.10311059957E+03  0.53098013876E+03  0.87701210308E+02  0.55561007723E+03  0.91865946493E+02 0.  0.
         13    1    3    3    0    0 -0.65748987695E+02  0.24410025799E+03  0.83646331491E+02  0.26627912819E+03  0.00000000000E+00 0. -1.
        -13    1    3    3    0    0 -0.37361611872E+02  0.28687988077E+03  0.40548788163E+01  0.28933094904E+03  0.00000000000E+00 0.  1.
         22    1    1    2    0    0  0.10311059957E+03 -0.53098013876E+03 -0.22003963389E+04  0.22659028558E+04  0.00000000000E+00 0.  1.
<mgrwt>
<rscale>  0 0.18701483E+04</rscale>
<asrwt>0</asrwt>
<pdfrwt beam="1">  1        1 0.37955447E+00 0.18701483E+04</pdfrwt>
<pdfrwt beam="2">  1       -1 0.54524446E-01 0.18701483E+04</pdfrwt>
<totfact> 0.45541729E+00</totfact>
</mgrwt>
</event>
<event>
 6    1  0.1568961E-005  0.4585445E+04  0.7818608E-02  0.7895846E-01
          2   -1    0    0  501    0  0.00000000000E+00  0.00000000000E+00  0.26117875938E+04  0.26117875938E+04  0.00000000000E+00 0. -1.
         -2   -1    0    0    0  501 -0.00000000000E+00 -0.00000000000E+00 -0.20126351202E+04  0.20126351202E+04  0.00000000000E+00 0.  1.
         23    2    1    2    0    0 -0.10322977565E+04  0.29900611791E+03 -0.17416322007E+04  0.20487060743E+04  0.94183542048E+02 0.  0.
         13    1    3    3    0    0 -0.13932149423E+03  0.15748438336E+02 -0.18884432700E+03  0.23520346916E+03  0.00000000000E+00 0.  1.
        -13    1    3    3    0    0 -0.89297626227E+03  0.28325767958E+03 -0.15527878737E+04  0.18135026051E+04  0.00000000000E+00 0. -1.
         22    1    1    2    0    0  0.10322977565E+04 -0.29900611791E+03  0.23407846743E+04  0.25757166397E+04  0.00000000000E+00 0. -1.
<mgrwt>
<rscale>  0 0.45854446E+04</rscale>
<asrwt>0</asrwt>
<pdfrwt beam="1">  1        2 0.40181348E+00 0.45854446E+04</pdfrwt>
<pdfrwt beam="2">  1       -2 0.30963617E+00 0.45854446E+04</pdfrwt>
<totfact> 0.62511662E-02</totfact>
</mgrwt>
</event>
<event>
 6    1  0.1568961E-005  0.1748526E+04  0.7818608E-02  0.8734162E-01
          2   -1    0    0  501    0  0.00000000000E+00  0.00000000000E+00  0.16244245658E+04  0.16244245658E+04  0.00000000000E+00 0. -1.
         -2   -1    0    0    0  501 -0.00000000000E+00 -0.00000000000E+00 -0.47052684578E+03  0.47052684578E+03  0.00000000000E+00 0.  1.
         23    2    1    2    0    0 -0.83388695162E+03  0.36833303903E+02  0.28200472571E+03  0.88792136475E+03  0.11024311451E+03 0.  0.
         13    1    3    3    0    0 -0.17091937660E+03  0.37241223327E+02  0.24215623523E+02  0.17659767392E+03  0.00000000000E+00 0. -1.
        -13    1    3    3    0    0 -0.66296757503E+03 -0.40791942340E+00  0.25778910219E+03  0.71132369083E+03  0.00000000000E+00 0.  1.
         22    1    1    2    0    0  0.83388695162E+03 -0.36833303903E+02  0.87189299428E+03  0.12070300468E+04  0.00000000000E+00 0. -1.
<mgrwt>
<rscale>  0 0.17485255E+04</rscale>
<asrwt>0</asrwt>
<pdfrwt beam="1">  1        2 0.24991147E+00 0.17485255E+04</pdfrwt>
<pdfrwt beam="2">  1       -2 0.72388746E-01 0.17485255E+04</pdfrwt>
<totfact> 0.17689014E+01</totfact>
</mgrwt>
</event>
<event>
 6    1  0.1568961E-005  0.2134579E+04  0.7818608E-02  0.8546162E-01
         -1   -1    0    0    0  501 -0.00000000000E+00  0.00000000000E+00  0.11374212763E+04  0.11374212763E+04  0.00000000000E+00 0. -1.
          1   -1    0    0  501    0  0.00000000000E+00 -0.00000000000E+00 -0.10014817454E+04  0.10014817454E+04  0.00000000000E+00 0.  1.
         23    2    1    2    0    0 -0.10452435633E+04 -0.19257815578E+03  0.14111592759E+03  0.10760543741E+04  0.91426792895E+02 0.  0.
         11    1    3    3    0    0 -0.80695063636E+02 -0.33797145695E+02  0.28737851069E+02  0.92085853617E+02  0.00000000000E+00 0. -1.
        -11    1    3    3    0    0 -0.96454849964E+03 -0.15878101008E+03  0.11237807652E+03  0.98396852053E+03  0.00000000000E+00 0.  1.
         22    1    1    2    0    0  0.10452435633E+04  0.19257815578E+03 -0.51763966999E+01  0.10628486476E+04  0.00000000000E+00 0.  1.
<mgrwt>
<rscale>  0 0.21345788E+04</rscale>
<asrwt>0</asrwt>
<pdfrwt beam="1">  1        1 0.15407411E+00 0.21345788E+04</pdfrwt>
<pdfrwt beam="2">  1       -1 0.17498789E+00 0.21345788E+04</pdfrwt>
<totfact> 0.31304644E+00</totfact>
</mgrwt>
</event>
<event>
 6    1  0.1568961E-005  0.2114764E+04  0.7818608E-02  0.8554767E-01
         -2   -1    0    0    0  501 -0.00000000000E+00  0.00000000000E+00  0.54876247018E+03  0.54876247018E+03  0.00000000000E+00 0.  1.
          2   -1    0    0  501    0  0.00000000000E+00 -0.00000000000E+00 -0.20374145492E+04  0.20374145492E+04  0.00000000000E+00 0. -1.
         23    2    1    2    0    0 -0.60313221648E+03 -0.58221198095E+02  0.31112391889E+03  0.68713730913E+03  0.90561637706E+02 0.  0.
         13    1    3    3    0    0 -0.52448400211E+03 -0.20115420697E+02  0.27529171096E+03  0.59268341022E+03  0.00000000000E+00 0. -1.
        -13    1    3    3    0    0 -0.78648214370E+02 -0.38105777398E+02  0.35832207933E+02  0.94453898914E+02  0.00000000000E+00 0.  1.
         22    1    1    2    0    0  0.60313221648E+03  0.58221198095E+02 -0.17997759979E+04  0.18990397102E+04  0.00000000000E+00 0. -1.
<mgrwt>
<rscale>  0 0.21147639E+04</rscale>
<asrwt>0</asrwt>
<pdfrwt beam="1">  1        2 0.31344839E+00 0.21147639E+04</pdfrwt>
<pdfrwt beam="2">  1       -2 0.84424997E-01 0.21147639E+04</pdfrwt>
<totfact> 0.71719538E+00</totfact>
</mgrwt>
</event>
<event>
 6    1  0.1568961E-005  0.4453034E+04  0.7818608E-02  0.7918911E-01
          1   -1    0    0  501    0  0.00000000000E+00  0.00000000000E+00  0.17593482632E+04  0.17593482632E+04  0.00000000000E+00 0. -1.
         -1   -1    0    0    0  501 -0.00000000000E+00 -0.00000000000E+00 -0.28177355760E+04  0.28177355760E+04  0.00000000000E+00 0.  1.
         23    2    1    2    0    0  0.14483042157E+04 -0.15572352124E+04 -0.12040035108E+04  0.24454716124E+04  0.90223861335E+02 0.  0.
         13    1    3    3    0    0  0.38706193597E+03 -0.47070654778E+03 -0.32548793433E+03  0.69088638125E+03  0.00000000000E+00 0.  1.
        -13    1    3    3    0    0  0.10612422797E+04 -0.10865286646E+04 -0.87851557643E+03  0.17545852312E+04  0.00000000000E+00 0. -1.
         22    1    1    2    0    0 -0.14483042157E+04  0.15572352124E+04  0.14561619797E+03  0.21316122267E+04  0.00000000000E+00 0. -1.
<mgrwt>
<rscale>  0 0.44530341E+04</rscale>
<asrwt>0</asrwt>
<pdfrwt beam="1">  1        1 0.27066896E+00 0.44530341E+04</pdfrwt>
<pdfrwt beam="2">  1       -1 0.43349778E+00 0.44530341E+04</pdfrwt>
<totfact> 0.13782685E-02</totfact>
</mgrwt>
</event>
<event>
 6    1  0.1568961E-005  0.2159916E+04  0.7818608E-02  0.8535300E-01
         -2   -1    0    0    0  501 -0.00000000000E+00  0.00000000000E+00  0.64339246512E+03  0.64339246512E+03  0.00000000000E+00 0.  1.
          2   -1    0    0  501    0  0.00000000000E+00 -0.00000000000E+00 -0.18127496191E+04  0.18127496191E+04  0.00000000000E+00 0. -1.
         23    2    1    2    0    0  0.81128411326E+03  0.53526594888E+03 -0.55209494897E+02  0.97762371954E+03  0.89490224195E+02 0.  0.
         13    1    3    3    0    0  0.31320019760E+03  0.22289024206E+03  0.19801885487E+02  0.38492406842E+03  0.00000000000E+00 0.  1.
        -13    1    3    3    0    0  0.49808391566E+03  0.31237570683E+03 -0.75011380384E+02  0.59269965112E+03  0.00000000000E+00 0. -1.
         22    1    1    2    0    0 -0.81128411326E+03 -0.53526594888E+03 -0.11141476591E+04  0.14785183647E+04  0.00000000000E+00 0. -1.
<mgrwt>
<rscale>  0 0.21599162E+04</rscale>
<asrwt>0</asrwt>
<pdfrwt beam="1">  1        2 0.27888455E+00 0.21599162E+04</pdfrwt>
<pdfrwt beam="2">  1       -2 0.98983457E-01 0.21599162E+04</pdfrwt>
<totfact> 0.65879348E+00</totfact>
</mgrwt>
</event>
<event>
 6    1  0.1568961E-005  0.3906175E+04  0.7818608E-02  0.8023746E-01
         -2   -1    0    0    0  501 -0.00000000000E+00  0.00000000000E+00  0.13173590315E+04  0.13173590315E+04  0.00000000000E+00 0.  1.
          2   -1    0    0  501    0  0.00000000000E+00 -0.00000000000E+00 -0.28956041542E+04  0.28956041542E+04  0.00000000000E+00 0. -1.
         23    2    1    2    0    0  0.41265235945E+03 -0.46679104841E+03 -0.27847617690E+04  0.28550757565E+04  0.91562068305E+02 0.  0.
         13    1    3    3    0    0  0.13798104077E+03 -0.19044451232E+03 -0.12262535502E+04  0.12486014774E+04  0.00000000000E+00 0. -1.
        -13    1    3    3    0    0  0.27467131868E+03 -0.27634653609E+03 -0.15585082188E+04  0.16064742791E+04  0.00000000000E+00 0.  1.
         22    1    1    2    0    0 -0.41265235945E+03  0.46679104841E+03  0.12065166463E+04  0.13578874292E+04  0.00000000000E+00 0.  1.
<mgrwt>
<rscale>  0 0.39061747E+04</rscale>
<asrwt>0</asrwt>
<pdfrwt beam="1">  1        2 0.44547756E+00 0.39061747E+04</pdfrwt>
<pdfrwt beam="2">  1       -2 0.20267062E+00 0.39061747E+04</pdfrwt>
<totfact> 0.20519072E-01</totfact>
</mgrwt>
</event>
<event>
 6    1  0.1568961E-005  0.2143275E+04  0.7818608E-02  0.8542416E-01
         -2   -1    0    0    0  501 -0.00000000000E+00  0.00000000000E+00  0.96159314235E+03  0.96159314235E+03  0.00000000000E+00 0. -1.
          2   -1    0    0  501    0  0.00000000000E+00 -0.00000000000E+00 -0.11942757546E+04  0.11942757546E+04  0.00000000000E+00 0.  1.
         23    2    1    2    0    0  0.94031666695E+03  0.49763938230E+03 -0.22527260599E+03  0.10919632164E+04  0.98972369636E+02 0.  0.
         13    1    3    3    0    0  0.80019853497E+03  0.39440983789E+03 -0.21477473320E+03  0.91760830512E+03  0.00000000000E+00 0.  1.
        -13    1    3    3    0    0  0.14011813198E+03  0.10322954441E+03 -0.10497872795E+02  0.17435491127E+03  0.00000000000E+00 0. -1.
         22    1    1    2    0    0 -0.94031666695E+03 -0.49763938230E+03 -0.74100062578E+01  0.10639056806E+04  0.00000000000E+00 0.  1.
<mgrwt>
<rscale>  0 0.21432754E+04</rscale>
<asrwt>0</asrwt>
<pdfrwt beam="1">  1        2 0.18373473E+00 0.21432754E+04</pdfrwt>
<pdfrwt beam="2">  1       -2 0.14793741E+00 0.21432754E+04</pdfrwt>
<totfact> 0.54493212E+00</totfact>
</mgrwt>
</event>
<event>
 6    1  0.1568961E-005  0.2254630E+04  0.7818608E-02  0.8496028E-01
          1   -1    0    0  501    0  0.00000000000E+00  0.00000000000E+00  0.11133785435E+04  0.11133785435E+04  0.00000000000E+00 0. -1.
         -1   -1    0    0    0  501 -0.00000000000E+00 -0.00000000000E+00 -0.11414263011E+04  0.11414263011E+04  0.00000000000E+00 0.  1.
         23    2    1    2    0    0  0.90085061254E+03 -0.66403483043E+03  0.10611368447E+03  0.11276520712E+04  0.88684821227E+02 0.  0.
         11    1    3    3    0    0  0.51478541554E+03 -0.42750925447E+03  0.43268131419E+02  0.67055224845E+03  0.00000000000E+00 0. -1.
        -11    1    3    3    0    0  0.38606519700E+03 -0.23652557596E+03  0.62845553052E+02  0.45709982275E+03  0.00000000000E+00 0.  1.
         22    1    1    2    0    0 -0.90085061254E+03  0.66403483043E+03 -0.13416144203E+03  0.11271527734E+04  0.00000000000E+00 0. -1.
<mgrwt>
<rscale>  0 0.22546304E+04</rscale>
<asrwt>0</asrwt>
<pdfrwt beam="1">  1        1 0.17128901E+00 0.22546304E+04</pdfrwt>
<pdfrwt beam="2">  1       -1 0.17560405E+00 0.22546304E+04</pdfrwt>
<totfact> 0.25171799E+00</totfact>
</mgrwt>
</event>
<event>
 6    1  0.1568961E-005  0.1619811E+04  0.7818608E-02  0.8808469E-01
          2   -1    0    0  501    0  0.00000000000E+00  0.00000000000E+00  0.87288058235E+03  0.87288058235E+03  0.00000000000E+00 0. -1.
         -2   -1    0    0    0  501 -0.00000000000E+00 -0.00000000000E+00 -0.75147421132E+03  0.75147421132E+03  0.00000000000E+00 0.  1.
         23    2    1    2    0    0  0.49767419575E+03 -0.19817108968E+03  0.66658335506E+03  0.86004508562E+03  0.91612194286E+02 0.  0.
         11    1    3    3    0    0  0.16779868273E+03 -0.99032010149E+02  0.19117656638E+03  0.27296925924E+03  0.00000000000E+00 0. -1.
        -11    1    3    3    0    0  0.32987551302E+03 -0.99139079529E+02  0.47540678869E+03  0.58707582637E+03  0.00000000000E+00 0.  1.
         22    1    1    2    0    0 -0.49767419575E+03  0.19817108968E+03 -0.54517698404E+03  0.76430970805E+03  0.00000000000E+00 0.  1.
<mgrwt>
<rscale>  0 0.16198114E+04</rscale>
<asrwt>0</asrwt>
<pdfrwt beam="1">  1        2 0.13428932E+00 0.16198114E+04</pdfrwt>
<pdfrwt beam="2">  1       -2 0.11561142E+00 0.16198114E+04</pdfrwt>
<totfact> 0.17053876E+01</totfact>
</mgrwt>
</event>
<event>
 6    1  0.1568961E-005  0.1753753E+04  0.7818608E-02  0.8731287E-01
         -1   -1    0    0    0  501 -0.00000000000E+00  0.00000000000E+00  0.33156133279E+03  0.33156133279E+03  0.00000000000E+00 0.  1.
          1   -1    0    0  501    0  0.00000000000E+00 -0.00000000000E+00 -0.23190658380E+04  0.23190658380E+04  0.00000000000E+00 0. -1.
         23    2    1    2    0    0 -0.22307828953E+03  0.70485020167E+03 -0.29063768041E+03  0.79969909246E+03  0.92036118740E+02 0.  0.
         11    1    3    3    0    0 -0.13899786070E+03  0.53609361215E+03 -0.18693084815E+03  0.58451681606E+03  0.00000000000E+00 0.  1.
        -11    1    3    3    0    0 -0.84080428828E+02  0.16875658952E+03 -0.10370683226E+03  0.21518227640E+03  0.00000000000E+00 0. -1.
         22    1    1    2    0    0  0.22307828953E+03 -0.70485020167E+03 -0.16968668248E+04  0.18509280783E+04  0.00000000000E+00 0. -1.
<mgrwt>
<rscale>  0 0.17537532E+04</rscale>
<asrwt>0</asrwt>
<pdfrwt beam="1">  1        1 0.35677935E+00 0.17537532E+04</pdfrwt>
<pdfrwt beam="2">  1       -1 0.51009437E-01 0.17537532E+04</pdfrwt>
<totfact> 0.66148463E+00</totfact>
</mgrwt>
</event>
<event>
 6    1  0.1568961E-005  0.2530995E+04  0.7818608E-02  0.8392026E-01
         -2   -1    0    0    0  501 -0.00000000000E+00  0.00000000000E+00  0.56060143066E+03  0.56060143066E+03  0.00000000000E+00 0. -1.
          2   -1    0    0  501    0  0.00000000000E+00 -0.00000000000E+00 -0.28567252912E+04  0.28567252912E+04  0.00000000000E+00 0.  1.
         23    2    1    2    0    0 -0.79536690213E+02  0.10571859349E+04 -0.20784504841E+04  0.23350375346E+04  0.92063496127E+02 0.  0.
         11    1    3    3    0    0  0.84458037192E+01  0.40398091174E+03 -0.74150388768E+03  0.84445244040E+03  0.00000000000E+00 0. -1.
        -11    1    3    3    0    0 -0.87982493933E+02  0.65320502316E+03 -0.13369465964E+04  0.14905850942E+04  0.00000000000E+00 0.  1.
         22    1    1    2    0    0  0.79536690213E+02 -0.10571859349E+04 -0.21767337651E+03  0.10822891873E+04  0.00000000000E+00 0. -1.
<mgrwt>
<rscale>  0 0.25309953E+04</rscale>
<asrwt>0</asrwt>
<pdfrwt beam="1">  1        2 0.43949620E+00 0.25309953E+04</pdfrwt>
<pdfrwt beam="2">  1       -2 0.86246373E-01 0.25309953E+04</pdfrwt>
<totfact> 0.22143311E+00</totfact>
</mgrwt>
</event>
<event>
 6    1  0.1568961E-005  0.1451118E+04  0.7818608E-02  0.8917626E-01
         -1   -1    0    0    0  501 -0.00000000000E+00  0.00000000000E+00  0.56062638010E+03  0.56062638010E+03  0.00000000000E+00 0.  1.
          1   -1    0    0  501    0  0.00000000000E+00 -0.00000000000E+00 -0.93901326052E+03  0.93901326052E+03  0.00000000000E+00 0. -1.
         23    2    1    2    0    0  0.57217750973E+03 -0.44141728331E+03 -0.18601605846E+03  0.75181422397E+03  0.91576922413E+02 0.  0.
         13    1    3    3    0    0  0.35609288319E+03 -0.22302530075E+03 -0.87539803010E+02  0.42919184911E+03  0.00000000000E+00 0.  1.
        -13    1    3    3    0    0  0.21608462653E+03 -0.21839198256E+03 -0.98476255447E+02  0.32262237486E+03  0.00000000000E+00 0. -1.
         22    1    1    2    0    0 -0.57217750973E+03  0.44141728331E+03 -0.19237082197E+03  0.74782541665E+03  0.00000000000E+00 0.  1.
<mgrwt>
<rscale>  0 0.14511176E+04</rscale>
<asrwt>0</asrwt>
<pdfrwt beam="1">  1        1 0.14446358E+00 0.14511176E+04</pdfrwt>
<pdfrwt beam="2">  1       -1 0.86250212E-01 0.14511176E+04</pdfrwt>
<totfact> 0.21792734E+01</totfact>
</mgrwt>
</event>
<event>
 6    1  0.1568961E-005  0.4002639E+04  0.7818608E-02  0.8004014E-01
         -2   -1    0    0    0  501 -0.00000000000E+00  0.00000000000E+00  0.13953243110E+04  0.13953243110E+04  0.00000000000E+00 0.  1.
          2   -1    0    0  501    0  0.00000000000E+00 -0.00000000000E+00 -0.28705004414E+04  0.28705004414E+04  0.00000000000E+00 0. -1.
         23    2    1    2    0    0  0.63434043206E+03 -0.14462986285E+04  0.57035175752E+03  0.16815740203E+04  0.90678287680E+02 0.  0.
         11    1    3    3    0    0  0.16947835022E+03 -0.33047169735E+03  0.16755589598E+03  0.40744255083E+03  0.00000000000E+00 0.  1.
        -11    1    3    3    0    0  0.46486208183E+03 -0.11158269311E+04  0.40279586154E+03  0.12741314695E+04  0.00000000000E+00 0. -1.
         22    1    1    2    0    0 -0.63434043206E+03  0.14462986285E+04 -0.20455278879E+04  0.25842507322E+04  0.00000000000E+00 0. -1.
<mgrwt>
<rscale>  0 0.40026387E+04</rscale>
<asrwt>0</asrwt>
<pdfrwt beam="1">  1        2 0.44161545E+00 0.40026387E+04</pdfrwt>
<pdfrwt beam="2">  1       -2 0.21466528E+00 0.40026387E+04</pdfrwt>
<totfact> 0.17650362E-01</totfact>
</mgrwt>
</event>
<event>
 6    1  0.1568961E-005  0.1603841E+04  0.7818608E-02  0.8818192E-01
          1   -1    0    0  501    0  0.00000000000E+00  0.00000000000E+00  0.59599115679E+03  0.59599115679E+03  0.00000000000E+00 0. -1.
         -1   -1    0    0    0  501 -0.00000000000E+00 -0.00000000000E+00 -0.10790030297E+04  0.10790030297E+04  0.00000000000E+00 0.  1.
         23    2    1    2    0    0  0.10702576900E+03  0.75530760589E+03  0.72177783701E+01  0.76820357907E+03  0.90224984490E+02 0.  0.
         11    1    3    3    0    0  0.66176124473E+02  0.59683744627E+03  0.37947957498E+02  0.60169283210E+03  0.00000000000E+00 0.  1.
        -11    1    3    3    0    0  0.40849644522E+02  0.15847015962E+03 -0.30730179128E+02  0.16651074697E+03  0.00000000000E+00 0. -1.
         22    1    1    2    0    0 -0.10702576900E+03 -0.75530760589E+03 -0.49022965131E+03  0.90679060745E+03  0.00000000000E+00 0. -1.
<mgrwt>
<rscale>  0 0.16038407E+04</rscale>
<asrwt>0</asrwt>
<pdfrwt beam="1">  1        1 0.91690948E-01 0.16038407E+04</pdfrwt>
<pdfrwt beam="2">  1       -1 0.16600046E+00 0.16038407E+04</pdfrwt>
<totfact> 0.87378755E+00</totfact>
</mgrwt>
</event>
<event>
 6    1  0.1568961E-005  0.1270784E+04  0.7818608E-02  0.9053060E-01
          2   -1    0    0  501    0  0.00000000000E+00  0.00000000000E+00  0.25996140103E+04  0.25996140103E+04  0.00000000000E+00 0. -1.
         -2   -1    0    0    0  501 -0.00000000000E+00 -0.00000000000E+00 -0.15530120609E+03  0.15530120609E+03  0.00000000000E+00 0.  1.
         23    2    1    2    0    0 -0.31273337543E+03  0.54787843488E+03  0.11562631861E+04  0.13206750823E+04  0.96255773755E+02 0.  0.
         13    1    3    3    0    0 -0.30336642446E+02  0.12105657628E+03  0.26516919235E+03  0.29306945782E+03  0.00000000000E+00 0.  1.
        -13    1    3    3    0    0 -0.28239673299E+03  0.42682185860E+03  0.89109399375E+03  0.10276056245E+04  0.00000000000E+00 0. -1.
         22    1    1    2    0    0  0.31273337543E+03 -0.54787843488E+03  0.12880496181E+04  0.14342401341E+04  0.00000000000E+00 0. -1.
<mgrwt>
<rscale>  0 0.12707843E+04</rscale>
<asrwt>0</asrwt>
<pdfrwt beam="1">  1        2 0.39994059E+00 0.12707843E+04</pdfrwt>
<pdfrwt beam="2">  1       -2 0.23892495E-01 0.12707843E+04</pdfrwt>
<totfact> 0.46863274E+01</totfact>
</mgrwt>
</event>
<event>
 6    1  0.1568961E-005  0.4024158E+04  0.7818608E-02  0.7999691E-01
         -2   -1    0    0    0  501 -0.00000000000E+00  0.00000000000E+00  0.16038093747E+04  0.16038093747E+04  0.00000000000E+00 0. -1.
          2   -1    0    0  501    0  0.00000000000E+00 -0.00000000000E+00 -0.25242792397E+04  0.25242792397E+04  0.00000000000E+00 0.  1.
         23    2    1    2    0    0  0.52739777709E+03 -0.13539628903E+04  0.96574355895E+03  0.17470877736E+04  0.91055716738E+02 0.  0.
         13    1    3    3    0    0  0.36109598412E+03 -0.88803039160E+03  0.58754782039E+03  0.11243668118E+04  0.00000000000E+00 0. -1.
        -13    1    3    3    0    0  0.16630179297E+03 -0.46593249867E+03  0.37819573856E+03  0.62272096185E+03  0.00000000000E+00 0.  1.
         22    1    1    2    0    0 -0.52739777709E+03  0.13539628903E+04 -0.18862134239E+04  0.23810008408E+04  0.00000000000E+00 0.  1.
<mgrwt>
<rscale>  0 0.40241584E+04</rscale>
<asrwt>0</asrwt>
<pdfrwt beam="1">  1        2 0.38835065E+00 0.40241584E+04</pdfrwt>
<pdfrwt beam="2">  1       -2 0.24673990E+00 0.40241584E+04</pdfrwt>
<totfact> 0.17857297E-01</totfact>
</mgrwt>
</event>
<event>
 6    1  0.1568961E-005  0.4089213E+04  0.7818608E-02  0.7986787E-01
         -2   -1    0    0    0  501 -0.00000000000E+00  0.00000000000E+00  0.20199361698E+04  0.20199361698E+04  0.00000000000E+00 0.  1.
          2   -1    0    0  501    0  0.00000000000E+00 -0.00000000000E+00 -0.20695784702E+04  0.20695784702E+04  0.00000000000E+00 0. -1.
         23    2    1    2    0    0  0.19948595154E+04  0.93841697689E+02 -0.45835013780E+03  0.20510561914E+04  0.92064656539E+02 0.  0.
         13    1    3    3    0    0  0.13611901091E+04  0.23460320951E+02 -0.32658397613E+03  0.14000164260E+04  0.00000000000E+00 0. -1.
        -13    1    3    3    0    0  0.63366940631E+03  0.70381376739E+02 -0.13176616167E+03  0.65103976534E+03  0.00000000000E+00 0.  1.
         22    1    1    2    0    0 -0.19948595154E+04 -0.93841697689E+02  0.40870783745E+03  0.20384584486E+04  0.00000000000E+00 0.  1.
<mgrwt>
<rscale>  0 0.40892133E+04</rscale>
<asrwt>0</asrwt>
<pdfrwt beam="1">  1        2 0.31839669E+00 0.40892133E+04</pdfrwt>
<pdfrwt beam="2">  1       -2 0.31075941E+00 0.40892133E+04</pdfrwt>
<totfact> 0.13065357E-01</totfact>
</mgrwt>
</event>
<event>
 6    1  0.1568961E-005  0.2003733E+04  0.7818608E-02  0.8604877E-01
         -2   -1    0    0    0  501 -0.00000000000E+00  0.00000000000E+00  0.34505100962E+03  0.34505100962E+03  0.00000000000E+00 0.  1.
          2   -1    0    0  501    0  0.00000000000E+00 -0.00000000000E+00 -0.29089521637E+04  0.29089521637E+04  0.00000000000E+00 0. -1.
         23    2    1    2    0    0  0.55567334615E+03 -0.77230390032E+03 -0.17843602721E+04  0.20239990397E+04  0.86048533083E+02 0.  0.
         13    1    3    3    0    0  0.48671591666E+03 -0.69147387822E+03 -0.15255337402E+04  0.17442137772E+04  0.00000000000E+00 0. -1.
        -13    1    3    3    0    0  0.68957429492E+02 -0.80830022100E+02 -0.25882653182E+03  0.27978526253E+03  0.00000000000E+00 0.  1.
         22    1    1    2    0    0 -0.55567334615E+03  0.77230390032E+03 -0.77954088205E+03  0.12300041337E+04  0.00000000000E+00 0.  1.
<mgrwt>
<rscale>  0 0.20037334E+04</rscale>
<asrwt>0</asrwt>
<pdfrwt beam="1">  1        2 0.44753111E+00 0.20037334E+04</pdfrwt>
<pdfrwt beam="2">  1       -2 0.53084770E-01 0.20037334E+04</pdfrwt>
<totfact> 0.61770291E+00</totfact>
</mgrwt>
</event>
<event>
 6    1  0.1568961E-005  0.2899748E+04  0.7818608E-02  0.8272953E-01
          2   -1    0    0  501    0  0.00000000000E+00  0.00000000000E+00  0.22231958835E+04  0.22231958835E+04  0.00000000000E+00 0. -1.
         -2   -1    0    0    0  501 -0.00000000000E+00 -0.00000000000E+00 -0.94554612533E+03  0.94554612533E+03  0.00000000000E+00 0.  1.
         23    2    1    2    0    0 -0.94522519995E+03 -0.27187772755E+03  0.18014095171E+04  0.20544294574E+04  0.90752243402E+02 0.  0.
         13    1    3    3    0    0 -0.69132798541E+03 -0.17411438155E+03  0.12331603126E+04  0.14244067389E+04  0.00000000000E+00 0. -1.
        -13    1    3    3    0    0 -0.25389721453E+03 -0.97763345999E+02  0.56824920450E+03  0.63002271847E+03  0.00000000000E+00 0.  1.
         22    1    1    2    0    0  0.94522519995E+03  0.27187772755E+03 -0.52375975890E+03  0.11143125515E+04  0.00000000000E+00 0.  1.
<mgrwt>
<rscale>  0 0.28997478E+04</rscale>
<asrwt>0</asrwt>
<pdfrwt beam="1">  1        2 0.34203013E+00 0.28997478E+04</pdfrwt>
<pdfrwt beam="2">  1       -2 0.14546864E+00 0.28997478E+04</pdfrwt>
<totfact> 0.14050584E+00</totfact>
</mgrwt>
</event>
<event>
 6    1  0.1568961E-005  0.2674170E+04  0.7818608E-02  0.8343435E-01
         -2   -1    0    0    0  501 -0.00000000000E+00  0.00000000000E+00  0.25958478176E+04  0.25958478176E+04  0.00000000000E+00 0.  1.
          2   -1    0    0  501    0  0.00000000000E+00 -0.00000000000E+00 -0.68871393282E+03  0.68871393282E+03  0.00000000000E+00 0. -1.
         23    2    1    2    0    0 -0.28778197497E+03 -0.12363155905E+04  0.44330242552E+03  0.13470124619E+04  0.81429893141E+02 0.  0.
         13    1    3    3    0    0 -0.65172202605E+02 -0.25049945050E+03  0.12495240615E+03  0.28742041420E+03  0.00000000000E+00 0.  1.
        -13    1    3    3    0    0 -0.22260977236E+03 -0.98581614002E+03  0.31835001937E+03  0.10595920477E+04  0.00000000000E+00 0. -1.
         22    1    1    2    0    0  0.28778197497E+03  0.12363155905E+04  0.14638314593E+04  0.19375492886E+04  0.00000000000E+00 0.  1.
<mgrwt>
<rscale>  0 0.26741702E+04</rscale>
<asrwt>0</asrwt>
<pdfrwt beam="1">  1        2 0.10595599E+00 0.26741702E+04</pdfrwt>
<pdfrwt beam="2">  1       -2 0.39936120E+00 0.26741702E+04</pdfrwt>
<totfact> 0.27550876E-01</totfact>
</mgrwt>
</event>
<event>
 6    1  0.1568961E-005  0.4896587E+04  0.7818608E-02  0.7844661E-01
          2   -1    0    0  501    0  0.00000000000E+00  0.00000000000E+00  0.23369130203E+04  0.23369130203E+04  0.00000000000E+00 0. -1.
         -2   -1    0    0    0  501 -0.00000000000E+00 -0.00000000000E+00 -0.25649823909E+04  0.25649823909E+04  0.00000000000E+00 0.  1.
         23    2    1    2    0    0  0.17732501537E+04 -0.15898854607E+04  0.45079947071E+03  0.24254029745E+04  0.84897231584E+02 0.  0.
         13    1    3    3    0    0  0.24773986577E+03 -0.18390784344E+03  0.59624784106E+02  0.31424870859E+03  0.00000000000E+00 0. -1.
        -13    1    3    3    0    0  0.15255102879E+04 -0.14059776173E+04  0.39117468660E+03  0.21111542659E+04  0.00000000000E+00 0.  1.
         22    1    1    2    0    0 -0.17732501537E+04  0.15898854607E+04 -0.67886884132E+03  0.24764924368E+04  0.00000000000E+00 0.  1.
<mgrwt>
<rscale>  0 0.48965869E+04</rscale>
<asrwt>0</asrwt>
<pdfrwt beam="1">  1        2 0.35952508E+00 0.48965869E+04</pdfrwt>
<pdfrwt beam="2">  1       -2 0.39461268E+00 0.48965869E+04</pdfrwt>
<totfact> 0.25533652E-02</totfact>
</mgrwt>
</event>
<event>
 6    1  0.1568961E-005  0.1267561E+04  0.7818608E-02  0.9055692E-01
         -1   -1    0    0    0  501 -0.00000000000E+00  0.00000000000E+00  0.34694716462E+03  0.34694716462E+03  0.00000000000E+00 0.  1.
          1   -1    0    0  501    0  0.00000000000E+00 -0.00000000000E+00 -0.11577498488E+04  0.11577498488E+04  0.00000000000E+00 0. -1.
         23    2    1    2    0    0 -0.75891654403E+02  0.26625437802E+03  0.26496837991E+03  0.39387105074E+03  0.90968264984E+02 0.  0.
         11    1    3    3    0    0 -0.19006200961E+02  0.10558507423E+03  0.16336710141E+03  0.19544373461E+03  0.00000000000E+00 0. -1.
        -11    1    3    3    0    0 -0.56885453441E+02  0.16066930379E+03  0.10160127850E+03  0.19842731613E+03  0.00000000000E+00 0.  1.
         22    1    1    2    0    0  0.75891654403E+02 -0.26625437802E+03 -0.10757710641E+04  0.11108259627E+04  0.00000000000E+00 0. -1.
<mgrwt>
<rscale>  0 0.12675615E+04</rscale>
<asrwt>0</asrwt>
<pdfrwt beam="1">  1        1 0.17811536E+00 0.12675615E+04</pdfrwt>
<pdfrwt beam="2">  1       -1 0.53376487E-01 0.12675615E+04</pdfrwt>
<totfact> 0.40024655E+01</totfact>
</mgrwt>
</event>
<event>
 6    1  0.1568961E-005  0.2488078E+04  0.7818608E-02  0.8407245E-01
         -2   -1    0    0    0  501 -0.00000000000E+00  0.00000000000E+00  0.68564367336E+03  0.68564367336E+03  0.00000000000E+00 0.  1.
          2   -1    0    0  501    0  0.00000000000E+00 -0.00000000000E+00 -0.22571967888E+04  0.22571967888E+04  0.00000000000E+00 0. -1.
         23    2    1    2    0    0  0.12321738847E+04 -0.13820930208E+03 -0.87863780919E+03  0.15224581492E+04  0.92304513203E+02 0.  0.
         13    1    3    3    0    0  0.52788725363E+03 -0.16556594631E+02 -0.35274944528E+03  0.63511514273E+03  0.00000000000E+00 0.  1.
        -13    1    3    3    0    0  0.70428663106E+03 -0.12165270745E+03 -0.52588836391E+03  0.88734300652E+03  0.00000000000E+00 0. -1.
         22    1    1    2    0    0 -0.12321738847E+04  0.13820930208E+03 -0.69291530628E+03  0.14203823130E+04  0.00000000000E+00 0.  1.
<mgrwt>
<rscale>  0 0.24880777E+04</rscale>
<asrwt>0</asrwt>
<pdfrwt beam="1">  1        2 0.34726104E+00 0.24880777E+04</pdfrwt>
<pdfrwt beam="2">  1       -2 0.10548364E+00 0.24880777E+04</pdfrwt>
<totfact> 0.31110484E+00</totfact>
</mgrwt>
</event>
<event>
 6    1  0.1568961E-005  0.2814291E+04  0.7818608E-02  0.8298845E-01
          2   -1    0    0  501    0  0.00000000000E+00  0.00000000000E+00  0.12490645349E+04  0.12490645349E+04  0.00000000000E+00 0. -1.
         -2   -1    0    0    0  501 -0.00000000000E+00 -0.00000000000E+00 -0.15852326501E+04  0.15852326501E+04  0.00000000000E+00 0.  1.
         23    2    1    2    0    0 -0.40498242243E+03 -0.13267345723E+04 -0.39775162501E+03  0.14457627357E+04  0.88250467033E+02 0.  0.
         11    1    3    3    0    0 -0.17066368610E+03 -0.62747306422E+03 -0.14558823073E+03  0.66636662056E+03  0.00000000000E+00 0.  1.
        -11    1    3    3    0    0 -0.23431873633E+03 -0.69926150813E+03 -0.25216339429E+03  0.77939611518E+03  0.00000000000E+00 0. -1.
         22    1    1    2    0    0  0.40498242243E+03  0.13267345723E+04  0.61583509780E+02  0.13885344492E+04  0.00000000000E+00 0.  1.
<mgrwt>
<rscale>  0 0.28142906E+04</rscale>
<asrwt>0</asrwt>
<pdfrwt beam="1">  1        2 0.19216378E+00 0.28142906E+04</pdfrwt>
<pdfrwt beam="2">  1       -2 0.24388195E+00 0.28142906E+04</pdfrwt>
<totfact> 0.10788888E+00</totfact>
</mgrwt>
</event>
<event>
 6    1  0.1568961E-005  0.2593203E+04  0.7818608E-02  0.8370514E-01
         -2   -1    0    0    0  501 -0.00000000000E+00  0.00000000000E+00  0.82561515832E+03  0.82561515832E+03  0.00000000000E+00 0.  1.
          2   -1    0    0  501    0  0.00000000000E+00 -0.00000000000E+00 -0.20362698536E+04  0.20362698536E+04  0.00000000000E+00 0. -1.
         23    2    1    2    0    0 -0.95785835203E+03 -0.86900037729E+03 -0.67887714326E+03  0.14635139442E+04  0.91348842016E+02 0.  0.
         13    1    3    3    0    0 -0.71270069346E+03 -0.64004904447E+03 -0.54690086508E+03  0.11030437951E+04  0.00000000000E+00 0.  1.
        -13    1    3    3    0    0 -0.24515765856E+03 -0.22895133282E+03 -0.13197627818E+03  0.36047014905E+03  0.00000000000E+00 0. -1.
         22    1    1    2    0    0  0.95785835203E+03  0.86900037729E+03 -0.53177755207E+03  0.13983710678E+04  0.00000000000E+00 0. -1.
<mgrwt>
<rscale>  0 0.25932029E+04</rscale>
<asrwt>0</asrwt>
<pdfrwt beam="1">  1        2 0.31327228E+00 0.25932029E+04</pdfrwt>
<pdfrwt beam="2">  1       -2 0.12701772E+00 0.25932029E+04</pdfrwt>
<totfact> 0.25995382E+00</totfact>
</mgrwt>
</event>
<event>
 6    1  0.1568961E-005  0.4523702E+04  0.7818608E-02  0.7906500E-01
          1   -1    0    0  501    0  0.00000000000E+00  0.00000000000E+00  0.21697838862E+04  0.21697838862E+04  0.00000000000E+00 0. -1.
         -1   -1    0    0    0  501 -0.00000000000E+00 -0.00000000000E+00 -0.23578243246E+04  0.23578243246E+04  0.00000000000E+00 0.  1.
         23    2    1    2    0    0 -0.70161017463E+03  0.20702413346E+04 -0.67214073900E+03  0.22887448559E+04  0.91781378941E+02 0.  0.
         13    1    3    3    0    0 -0.31783542122E+03  0.10466825229E+04 -0.36731176418E+03  0.11538984317E+04  0.00000000000E+00 0.  1.
        -13    1    3    3    0    0 -0.38377475342E+03  0.10235588118E+04 -0.30482897482E+03  0.11348464242E+04  0.00000000000E+00 0. -1.
         22    1    1    2    0    0  0.70161017463E+03 -0.20702413346E+04  0.48410030054E+03  0.22388633549E+04  0.00000000000E+00 0.  1.
<mgrwt>
<rscale>  0 0.45237017E+04</rscale>
<asrwt>0</asrwt>
<pdfrwt beam="1">  1        1 0.33381290E+00 0.45237017E+04</pdfrwt>
<pdfrwt beam="2">  1       -1 0.36274221E+00 0.45237017E+04</pdfrwt>
<totfact> 0.21893410E-02</totfact>
</mgrwt>
</event>
<event>
 6    1  0.1568961E-005  0.2671290E+04  0.7818608E-02  0.8344381E-01
          1   -1    0    0  501    0  0.00000000000E+00  0.00000000000E+00  0.94430911285E+03  0.94430911285E+03  0.00000000000E+00 0. -1.
         -1   -1    0    0    0  501 -0.00000000000E+00 -0.00000000000E+00 -0.18891568126E+04  0.18891568126E+04  0.00000000000E+00 0.  1.
         23    2    1    2    0    0  0.54844338823E+03  0.68579605112E+03 -0.15382429149E+04  0.17736431784E+04  0.92263131833E+02 0.  0.
         11    1    3    3    0    0  0.47982676204E+03  0.64220803284E+03 -0.13947402891E+04  0.16087154357E+04  0.00000000000E+00 0. -1.
        -11    1    3    3    0    0  0.68616626184E+02  0.43588018281E+02 -0.14350262573E+03  0.16492774272E+03  0.00000000000E+00 0.  1.
         22    1    1    2    0    0 -0.54844338823E+03 -0.68579605112E+03  0.59339521509E+03  0.10598227470E+04  0.00000000000E+00 0. -1.
<mgrwt>
<rscale>  0 0.26712903E+04</rscale>
<asrwt>0</asrwt>
<pdfrwt beam="1">  1        1 0.14527833E+00 0.26712903E+04</pdfrwt>
<pdfrwt beam="2">  1       -1 0.29063951E+00 0.26712903E+04</pdfrwt>
<totfact> 0.55676565E-01</totfact>
</mgrwt>
</event>
<event>
 6    1  0.1568961E-005  0.4407674E+04  0.7818608E-02  0.7927003E-01
         -1   -1    0    0    0  501 -0.00000000000E+00  0.00000000000E+00  0.17207092191E+04  0.17207092191E+04  0.00000000000E+00 0.  1.
          1   -1    0    0  501    0  0.00000000000E+00 -0.00000000000E+00 -0.28226137031E+04  0.28226137031E+04  0.00000000000E+00 0. -1.
         23    2    1    2    0    0  0.43353152622E+02  0.21853779939E+04 -0.83310189135E+03  0.23410488007E+04  0.93242983958E+02 0.  0.
         13    1    3    3    0    0 -0.17635465520E+02  0.12986712774E+04 -0.51027410868E+03  0.13954346141E+04  0.00000000000E+00 0. -1.
        -13    1    3    3    0    0  0.60988618142E+02  0.88670671650E+03 -0.32282778267E+03  0.94561418659E+03  0.00000000000E+00 0.  1.
         22    1    1    2    0    0 -0.43353152622E+02 -0.21853779939E+04 -0.26880259266E+03  0.22022741214E+04  0.00000000000E+00 0.  1.
<mgrwt>
<rscale>  0 0.44076740E+04</rscale>
<asrwt>0</asrwt>
<pdfrwt beam="1">  1        1 0.43424825E+00 0.44076740E+04</pdfrwt>
<pdfrwt beam="2">  1       -1 0.26472450E+00 0.44076740E+04</pdfrwt>
<totfact> 0.33984034E-02</totfact>
</mgrwt>
</event>
<event>
 6    1  0.1568961E-005  0.1998029E+04  0.7818608E-02  0.8607543E-01
          1   -1    0    0  501    0  0.00000000000E+00  0.00000000000E+00  0.13258936230E+04  0.13258936230E+04  0.00000000000E+00 0. -1.
         -1   -1    0    0    0  501 -0.00000000000E+00 -0.00000000000E+00 -0.75272228797E+03  0.75272228797E+03  0.00000000000E+00 0.  1.
         23    2    1    2    0    0  0.31935809497E+02 -0.48872017609E+03 -0.61601349769E+03  0.79252576141E+03  0.93579627769E+02 0.  0.
         11    1    3    3    0    0 -0.14658520480E+02 -0.31147664317E+03 -0.34134191941E+03  0.46232767320E+03  0.00000000000E+00 0. -1.
        -11    1    3    3    0    0  0.46594329977E+02 -0.17724353292E+03 -0.27467157827E+03  0.33019808821E+03  0.00000000000E+00 0.  1.
         22    1    1    2    0    0 -0.31935809497E+02  0.48872017609E+03  0.11891848328E+04  0.12860901496E+04  0.00000000000E+00 0. -1.
<mgrwt>
<rscale>  0 0.19980287E+04</rscale>
<asrwt>0</asrwt>
<pdfrwt beam="1">  1        1 0.20398363E+00 0.19980287E+04</pdfrwt>
<pdfrwt beam="2">  1       -1 0.11580343E+00 0.19980287E+04</pdfrwt>
<totfact> 0.54292271E+00</totfact>
</mgrwt>
</event>
<event>
 6    1  0.1568961E-005  0.7444116E+03  0.7818608E-02  0.9644159E-01
         -1   -1    0    0    0  501 -0.00000000000E+00  0.00000000000E+00  0.13106901181E+03  0.13106901181E+03  0.00000000000E+00 0.  1.
          1   -1    0    0  501    0  0.00000000000E+00 -0.00000000000E+00 -0.10569787689E+04  0.10569787689E+04  0.00000000000E+00 0. -1.
         23    2    1    2    0    0 -0.60366775354E+02  0.25800427595E+03 -0.87418912161E+03  0.91807485967E+03  0.91893817170E+02 0.  0.
         13    1    3    3    0    0 -0.65168078569E+02  0.14797438420E+03 -0.40389039300E+03  0.43505257889E+03  0.00000000000E+00 0. -1.
        -13    1    3    3    0    0  0.48013032159E+01  0.11002989175E+03 -0.47029872861E+03  0.48302228078E+03  0.00000000000E+00 0.  1.
         22    1    1    2    0    0  0.60366775354E+02 -0.25800427595E+03 -0.51720635509E+02  0.26997292108E+03  0.00000000000E+00 0.  1.
<mgrwt>
<rscale>  0 0.74441161E+03</rscale>
<asrwt>0</asrwt>
<pdfrwt beam="1">  1        1 0.16261212E+00 0.74441161E+03</pdfrwt>
<pdfrwt beam="2">  1       -1 0.20164463E-01 0.74441161E+03</pdfrwt>
<totfact> 0.27905179E+02</totfact>
</mgrwt>
</event>
<event>
 6    1  0.1568961E-005  0.1888983E+04  0.7818608E-02  0.8660360E-01
         -2   -1    0    0    0  501 -0.00000000000E+00  0.00000000000E+00  0.36028466841E+03  0.36028466841E+03  0.00000000000E+00 0.  1.
          2   -1    0    0  501    0  0.00000000000E+00 -0.00000000000E+00 -0.24759985565E+04  0.24759985565E+04  0.00000000000E+00 0. -1.
         23    2    1    2    0    0  0.30830920719E+03 -0.13208413698E+03 -0.23822799940E+04  0.24078462106E+04  0.99822932401E+02 0.  0.
         11    1    3    3    0    0  0.15547285295E+03 -0.12657254154E+02 -0.10629029615E+04  0.10742880059E+04  0.00000000000E+00 0. -1.
        -11    1    3    3    0    0  0.15283635424E+03 -0.11942688282E+03 -0.13193770324E+04  0.13335582047E+04  0.00000000000E+00 0.  1.
         22    1    1    2    0    0 -0.30830920719E+03  0.13208413698E+03  0.26656610583E+03  0.42843701434E+03  0.00000000000E+00 0.  1.
<mgrwt>
<rscale>  0 0.18889831E+04</rscale>
<asrwt>0</asrwt>
<pdfrwt beam="1">  1        2 0.38092285E+00 0.18889831E+04</pdfrwt>
<pdfrwt beam="2">  1       -2 0.55428412E-01 0.18889831E+04</pdfrwt>
<totfact> 0.10315305E+01</totfact>
</mgrwt>
</event>
<event>
 6    1  0.2152196E-005  0.1898496E+04  0.7818608E-02  0.8655605E-01
          1   -1    0    0  501    0  0.00000000000E+00  0.00000000000E+00  0.11045377696E+04  0.11045377696E+04  0.00000000000E+00 0. -1.
         -1   -1    0    0    0  501 -0.00000000000E+00 -0.00000000000E+00 -0.81579085661E+03  0.81579085661E+03  0.00000000000E+00 0.  1.
         23    2    1    2    0    0 -0.64940248324E+03 -0.67979697140E+03  0.28836445455E+02  0.94493077982E+03  0.90637357106E+02 0.  0.
         11    1    3    3    0    0 -0.24892237922E+03 -0.23672790860E+03 -0.29882272428E+02  0.34481212825E+03  0.00000000000E+00 0.  1.
        -11    1    3    3    0    0 -0.40048010402E+03 -0.44306906281E+03  0.58718717883E+02  0.60011865157E+03  0.00000000000E+00 0. -1.
         22    1    1    2    0    0  0.64940248324E+03  0.67979697140E+03  0.25991046750E+03  0.97539784636E+03  0.00000000000E+00 0.  1.
<mgrwt>
<rscale>  0 0.18984961E+04</rscale>
<asrwt>0</asrwt>
<pdfrwt beam="1">  1        1 0.16992889E+00 0.18984961E+04</pdfrwt>
<pdfrwt beam="2">  1       -1 0.12550629E+00 0.18984961E+04</pdfrwt>
<totfact> 0.65220787E+00</totfact>
</mgrwt>
</event>
<event>
 6    1  0.1568961E-005  0.2130054E+04  0.7818608E-02  0.8548119E-01
         -2   -1    0    0    0  501 -0.00000000000E+00  0.00000000000E+00  0.13155093275E+04  0.13155093275E+04  0.00000000000E+00 0.  1.
          2   -1    0    0  501    0  0.00000000000E+00 -0.00000000000E+00 -0.86223864824E+03  0.86223864824E+03  0.00000000000E+00 0. -1.
         23    2    1    2    0    0 -0.19584965659E+03  0.95917958553E+03  0.65069947026E+03  0.11790685012E+04  0.91706950381E+02 0.  0.
         13    1    3    3    0    0 -0.14204539402E+03  0.47161749529E+03  0.31443098291E+03  0.58435160549E+03  0.00000000000E+00 0. -1.
        -13    1    3    3    0    0 -0.53804262562E+02  0.48756209024E+03  0.33626848735E+03  0.59471689576E+03  0.00000000000E+00 0.  1.
         22    1    1    2    0    0  0.19584965659E+03 -0.95917958553E+03 -0.19742879099E+03  0.99867947451E+03  0.00000000000E+00 0. -1.
<mgrwt>
<rscale>  0 0.21300544E+04</rscale>
<asrwt>0</asrwt>
<pdfrwt beam="1">  1        2 0.13265210E+00 0.21300544E+04</pdfrwt>
<pdfrwt beam="2">  1       -2 0.20238605E+00 0.21300544E+04</pdfrwt>
<totfact> 0.36690955E+00</totfact>
</mgrwt>
</event>
<event>
 6    1  0.1568961E-005  0.1801598E+04  0.7818608E-02  0.8705450E-01
         -2   -1    0    0    0  501 -0.00000000000E+00  0.00000000000E+00  0.17529283780E+03  0.17529283780E+03  0.00000000000E+00 0.  1.
          2   -1    0    0  501    0  0.00000000000E+00 -0.00000000000E+00 -0.46290452881E+04  0.46290452881E+04  0.00000000000E+00 0. -1.
         23    2    1    2    0    0  0.84955340681E+02 -0.78230725299E+03 -0.33894267696E+04  0.34807025255E+04  0.88623905048E+02 0.  0.
         11    1    3    3    0    0  0.36259601678E+02 -0.23977640835E+03 -0.87737374442E+03  0.91027038407E+03  0.00000000000E+00 0.  1.
        -11    1    3    3    0    0  0.48695739003E+02 -0.54253084464E+03 -0.25120530252E+04  0.25704321415E+04  0.00000000000E+00 0. -1.
         22    1    1    2    0    0 -0.84955340681E+02  0.78230725299E+03 -0.10643256806E+04  0.13236356003E+04  0.00000000000E+00 0.  1.
<mgrwt>
<rscale>  0 0.18015976E+04</rscale>
<asrwt>0</asrwt>
<pdfrwt beam="1">  1        2 0.71216078E+00 0.18015976E+04</pdfrwt>
<pdfrwt beam="2">  1       -2 0.26968130E-01 0.18015976E+04</pdfrwt>
<totfact> 0.11028321E+00</totfact>
</mgrwt>
</event>
<event>
 6    1  0.1568961E-005  0.1995886E+04  0.7818608E-02  0.8608547E-01
          2   -1    0    0  501    0  0.00000000000E+00  0.00000000000E+00  0.18344141386E+04  0.18344141386E+04  0.00000000000E+00 0. -1.
         -2   -1    0    0    0  501 -0.00000000000E+00 -0.00000000000E+00 -0.54289269322E+03  0.54289269322E+03  0.00000000000E+00 0.  1.
         23    2    1    2    0    0 -0.45173672869E+03 -0.57717415716E+03  0.14501887767E+04  0.16273925688E+04  0.90349351583E+02 0.  0.
         13    1    3    3    0    0 -0.15824412223E+03 -0.15853306670E+03  0.37435658752E+03  0.43625312615E+03  0.00000000000E+00 0.  1.
        -13    1    3    3    0    0 -0.29349260646E+03 -0.41864109046E+03  0.10758321892E+04  0.11911394427E+04  0.00000000000E+00 0. -1.
         22    1    1    2    0    0  0.45173672869E+03  0.57717415716E+03 -0.15866733134E+03  0.74991426295E+03  0.00000000000E+00 0.  1.
<mgrwt>
<rscale>  0 0.19958858E+04</rscale>
<asrwt>0</asrwt>
<pdfrwt beam="1">  1        2 0.28221756E+00 0.19958858E+04</pdfrwt>
<pdfrwt beam="2">  1       -2 0.83521953E-01 0.19958858E+04</pdfrwt>
<totfact> 0.96225573E+00</totfact>
</mgrwt>
</event>
<event>
 6    1  0.1568961E-005  0.1210521E+04  0.7818608E-02  0.9103697E-01
          1   -1    0    0  501    0  0.00000000000E+00  0.00000000000E+00  0.11284647596E+04  0.11284647596E+04  0.00000000000E+00 0. -1.
         -1   -1    0    0    0  501 -0.00000000000E+00 -0.00000000000E+00 -0.32463606375E+03  0.32463606375E+03  0.00000000000E+00 0.  1.
         23    2    1    2    0    0  0.42483057744E+03 -0.40881914146E+03  0.25868097659E+03  0.65010633658E+03  0.90046050830E+02 0.  0.
         13    1    3    3    0    0  0.13014276521E+03 -0.15090944932E+03  0.46181759010E+02  0.20455697519E+03  0.00000000000E+00 0. -1.
        -13    1    3    3    0    0  0.29468781222E+03 -0.25790969214E+03  0.21249921758E+03  0.44554936140E+03  0.00000000000E+00 0.  1.
         22    1    1    2    0    0 -0.42483057744E+03  0.40881914146E+03  0.54514771926E+03  0.80299448676E+03  0.00000000000E+00 0. -1.
<mgrwt>
<rscale>  0 0.12105211E+04</rscale>
<asrwt>0</asrwt>
<pdfrwt beam="1">  1        1 0.17360996E+00 0.12105211E+04</pdfrwt>
<pdfrwt beam="2">  1       -1 0.49944010E-01 0.12105211E+04</pdfrwt>
<totfact> 0.48002465E+01</totfact>
</mgrwt>
</event>
<event>
 6    1  0.1568961E-005  0.1820859E+04  0.7818608E-02  0.8695285E-01
          2   -1    0    0  501    0  0.00000000000E+00  0.00000000000E+00  0.18589609056E+04  0.18589609056E+04  0.00000000000E+00 0. -1.
         -2   -1    0    0    0  501 -0.00000000000E+00 -0.00000000000E+00 -0.44588460593E+03  0.44588460593E+03  0.00000000000E+00 0.  1.
         23    2    1    2    0    0  0.73304721882E+03  0.53515712353E+03  0.67021258606E+03  0.11319866671E+04  0.91964841916E+02 0.  0.
         13    1    3    3    0    0  0.37804431448E+03  0.23554533163E+03  0.36824200315E+03  0.57792843835E+03  0.00000000000E+00 0. -1.
        -13    1    3    3    0    0  0.35500290434E+03  0.29961179189E+03  0.30197058290E+03  0.55405822877E+03  0.00000000000E+00 0.  1.
         22    1    1    2    0    0 -0.73304721882E+03 -0.53515712353E+03  0.74286371357E+03  0.11728588444E+04  0.00000000000E+00 0. -1.
<mgrwt>
<rscale>  0 0.18208592E+04</rscale>
<asrwt>0</asrwt>
<pdfrwt beam="1">  1        2 0.28599398E+00 0.18208592E+04</pdfrwt>
<pdfrwt beam="2">  1       -2 0.68597633E-01 0.18208592E+04</pdfrwt>
<totfact> 0.14651944E+01</totfact>
</mgrwt>
</event>
<event>
 6    1  0.1568961E-005  0.2337233E+04  0.7818608E-02  0.8463384E-01
          2   -1    0    0  501    0  0.00000000000E+00  0.00000000000E+00  0.27781034119E+04  0.27781034119E+04  0.00000000000E+00 0.  1.
         -2   -1    0    0    0  501 -0.00000000000E+00 -0.00000000000E+00 -0.49158140867E+03  0.49158140867E+03  0.00000000000E+00 0. -1.
         23    2    1    2    0    0  0.23952964177E+02 -0.78368468596E+03 -0.64081358087E+02  0.79176803550E+03  0.89748370921E+02 0.  0.
         11    1    3    3    0    0 -0.33133611296E+02 -0.35388035298E+03 -0.36889188251E+02  0.35733730932E+03  0.00000000000E+00 0. -1.
        -11    1    3    3    0    0  0.57086575473E+02 -0.42980433298E+03 -0.27192169837E+02  0.43443072618E+03  0.00000000000E+00 0.  1.
         22    1    1    2    0    0 -0.23952964177E+02  0.78368468596E+03  0.23506033613E+04  0.24779167850E+04  0.00000000000E+00 0.  1.
<mgrwt>
<rscale>  0 0.23372325E+04</rscale>
<asrwt>0</asrwt>
<pdfrwt beam="1">  1        2 0.42740052E+00 0.23372325E+04</pdfrwt>
<pdfrwt beam="2">  1       -2 0.75627910E-01 0.23372325E+04</pdfrwt>
<totfact> 0.33784562E+00</totfact>
</mgrwt>
</event>
<event>
 6    1  0.1568961E-005  0.2743741E+04  0.7818608E-02  0.8320950E-01
          1   -1    0    0  501    0  0.00000000000E+00  0.00000000000E+00  0.72307797454E+03  0.72307797454E+03  0.00000000000E+00 0. -1.
         -1   -1    0    0    0  501 -0.00000000000E+00 -0.00000000000E+00 -0.26028018655E+04  0.26028018655E+04  0.00000000000E+00 0.  1.
         23    2    1    2    0    0  0.30849213073E+03  0.13350032893E+04 -0.90935116233E+03  0.16468847806E+04  0.88931248845E+02 0.  0.
         11    1    3    3    0    0  0.14951509990E+03  0.45979494655E+03 -0.32640346950E+03  0.58335699436E+03  0.00000000000E+00 0. -1.
        -11    1    3    3    0    0  0.15897703083E+03  0.87520834274E+03 -0.58294769283E+03  0.10635277862E+04  0.00000000000E+00 0.  1.
         22    1    1    2    0    0 -0.30849213073E+03 -0.13350032893E+04 -0.97037272864E+03  0.16789950594E+04  0.00000000000E+00 0. -1.
<mgrwt>
<rscale>  0 0.27437410E+04</rscale>
<asrwt>0</asrwt>
<pdfrwt beam="1">  1        1 0.11124277E+00 0.27437410E+04</pdfrwt>
<pdfrwt beam="2">  1       -1 0.40043105E+00 0.27437410E+04</pdfrwt>
<totfact> 0.16015877E-01</totfact>
</mgrwt>
</event>
<event>
 6    1  0.1568961E-005  0.2292873E+04  0.7818608E-02  0.8480736E-01
          2   -1    0    0  501    0  0.00000000000E+00  0.00000000000E+00  0.18657280598E+04  0.18657280598E+04  0.00000000000E+00 0. -1.
         -2   -1    0    0    0  501 -0.00000000000E+00 -0.00000000000E+00 -0.70445260039E+03  0.70445260039E+03  0.00000000000E+00 0.  1.
         23    2    1    2    0    0  0.29415317676E+03  0.82267624634E+03  0.14104328238E+04  0.16616644579E+04  0.92117981792E+02 0.  0.
         11    1    3    3    0    0 -0.62491128651E+00  0.23948380641E+02  0.19678068419E+02  0.31002287434E+02  0.00000000000E+00 0.  1.
        -11    1    3    3    0    0  0.29477808805E+03  0.79872786570E+03  0.13907547553E+04  0.16306621705E+04  0.00000000000E+00 0. -1.
         22    1    1    2    0    0 -0.29415317676E+03 -0.82267624634E+03 -0.24915736434E+03  0.90851620233E+03  0.00000000000E+00 0.  1.
<mgrwt>
<rscale>  0 0.22928733E+04</rscale>
<asrwt>0</asrwt>
<pdfrwt beam="1">  1        2 0.28703508E+00 0.22928733E+04</pdfrwt>
<pdfrwt beam="2">  1       -2 0.10837732E+00 0.22928733E+04</pdfrwt>
<totfact> 0.49016778E+00</totfact>
</mgrwt>
</event>
<event>
 6    1  0.1568961E-005  0.1880750E+04  0.7818608E-02  0.8664498E-01
          1   -1    0    0  501    0  0.00000000000E+00  0.00000000000E+00  0.65272836398E+03  0.65272836398E+03  0.00000000000E+00 0. -1.
         -1   -1    0    0    0  501 -0.00000000000E+00 -0.00000000000E+00 -0.13547823091E+04  0.13547823091E+04  0.00000000000E+00 0.  1.
         23    2    1    2    0    0  0.60800067084E+03 -0.42076776928E+03 -0.96864301532E+03  0.12215208107E+04  0.84459863300E+02 0.  0.
         13    1    3    3    0    0  0.24076563452E+03 -0.21364543334E+03 -0.39322526361E+03  0.50817179171E+03  0.00000000000E+00 0. -1.
        -13    1    3    3    0    0  0.36723503632E+03 -0.20712233594E+03 -0.57541775171E+03  0.71334901901E+03  0.00000000000E+00 0.  1.
         22    1    1    2    0    0 -0.60800067084E+03  0.42076776928E+03  0.26658907018E+03  0.78598986237E+03  0.00000000000E+00 0. -1.
<mgrwt>
<rscale>  0 0.18807497E+04</rscale>
<asrwt>0</asrwt>
<pdfrwt beam="1">  1        1 0.10041975E+00 0.18807497E+04</pdfrwt>
<pdfrwt beam="2">  1       -1 0.20842804E+00 0.18807497E+04</pdfrwt>
<totfact> 0.37368075E+00</totfact>
</mgrwt>
</event>
<event>
 6    1  0.1568961E-005  0.2165636E+04  0.7818608E-02  0.8532869E-01
         -3   -1    0    0    0  501 -0.00000000000E+00  0.00000000000E+00  0.87998000620E+03  0.87998000620E+03  0.00000000000E+00 0.  1.
          3   -1    0    0  501    0  0.00000000000E+00 -0.00000000000E+00 -0.13324106411E+04  0.13324106411E+04  0.00000000000E+00 0. -1.
         23    2    1    2    0    0 -0.72083179998E+03 -0.80441369985E+03 -0.25969727132E+03  0.11152005845E+04  0.97723009833E+02 0.  0.
         11    1    3    3    0    0 -0.46272854914E+03 -0.47820476614E+03 -0.11834866807E+03  0.67587270679E+03  0.00000000000E+00 0.  1.
        -11    1    3    3    0    0 -0.25810325084E+03 -0.32620893370E+03 -0.14134860324E+03  0.43932787774E+03  0.00000000000E+00 0. -1.
         22    1    1    2    0    0  0.72083179998E+03  0.80441369985E+03 -0.19273336356E+03  0.10971900627E+04  0.00000000000E+00 0. -1.
<mgrwt>
<rscale>  0 0.21656359E+04</rscale>
<asrwt>0</asrwt>
<pdfrwt beam="1">  1        3 0.20498625E+00 0.21656359E+04</pdfrwt>
<pdfrwt beam="2">  1       -3 0.13538154E+00 0.21656359E+04</pdfrwt>
<totfact> 0.13752206E-01</totfact>
</mgrwt>
</event>
<event>
 6    1  0.1568961E-005  0.3282042E+04  0.7818608E-02  0.8167480E-01
          1   -1    0    0  501    0  0.00000000000E+00  0.00000000000E+00  0.21456457588E+04  0.21456457588E+04  0.00000000000E+00 0. -1.
         -1   -1    0    0    0  501 -0.00000000000E+00 -0.00000000000E+00 -0.12550769728E+04  0.12550769728E+04  0.00000000000E+00 0.  1.
         23    2    1    2    0    0 -0.13876647598E+02 -0.10696151569E+04 -0.84268384923E+03  0.13639522873E+04  0.77334515064E+02 0.  0.
         11    1    3    3    0    0 -0.20309296517E+02 -0.10477702533E+04 -0.83490320557E+03  0.13398874333E+04  0.00000000000E+00 0.  1.
        -11    1    3    3    0    0  0.64326489198E+01 -0.21844903600E+02 -0.77806436574E+01  0.24064854064E+02  0.00000000000E+00 0. -1.
         22    1    1    2    0    0  0.13876647598E+02  0.10696151569E+04  0.17332526352E+04  0.20367704443E+04  0.00000000000E+00 0. -1.
<mgrwt>
<rscale>  0 0.32820424E+04</rscale>
<asrwt>0</asrwt>
<pdfrwt beam="1">  1        1 0.33009935E+00 0.32820424E+04</pdfrwt>
<pdfrwt beam="2">  1       -1 0.19308876E+00 0.32820424E+04</pdfrwt>
<totfact> 0.33138236E-01</totfact>
</mgrwt>
</event>
<event>
 6    1  0.1568961E-005  0.3898194E+04  0.7818608E-02  0.8025405E-01
         -1   -1    0    0    0  501 -0.00000000000E+00  0.00000000000E+00  0.16160249381E+04  0.16160249381E+04  0.00000000000E+00 0.  1.
          1   -1    0    0  501    0  0.00000000000E+00 -0.00000000000E+00 -0.23508171807E+04  0.23508171807E+04  0.00000000000E+00 0. -1.
         23    2    1    2    0    0  0.10157679688E+04 -0.71552114371E+03 -0.18943853362E+04  0.22673094725E+04  0.90781983228E+02 0.  0.
         13    1    3    3    0    0  0.61806607892E+03 -0.48872423802E+03 -0.11917207023E+04  0.14286550637E+04  0.00000000000E+00 0. -1.
        -13    1    3    3    0    0  0.39770188990E+03 -0.22679690569E+03 -0.70266463389E+03  0.83865440879E+03  0.00000000000E+00 0.  1.
         22    1    1    2    0    0 -0.10157679688E+04  0.71552114371E+03  0.11595930935E+04  0.16995326464E+04  0.00000000000E+00 0.  1.
<mgrwt>
<rscale>  0 0.38981940E+04</rscale>
<asrwt>0</asrwt>
<pdfrwt beam="1">  1        1 0.36166418E+00 0.38981940E+04</pdfrwt>
<pdfrwt beam="2">  1       -1 0.24861922E+00 0.38981940E+04</pdfrwt>
<totfact> 0.96491585E-02</totfact>
</mgrwt>
</event>
<event>
 6    1  0.1568961E-005  0.1368304E+04  0.7818608E-02  0.8977087E-01
          1   -1    0    0  501    0  0.00000000000E+00  0.00000000000E+00  0.15917481554E+04  0.15917481554E+04  0.00000000000E+00 0. -1.
         -1   -1    0    0    0  501 -0.00000000000E+00 -0.00000000000E+00 -0.29405637512E+03  0.29405637512E+03  0.00000000000E+00 0.  1.
         23    2    1    2    0    0 -0.65574000546E+02 -0.54864697482E+03  0.10250059814E+03  0.56906787712E+03  0.89545651095E+02 0.  0.
         11    1    3    3    0    0 -0.52047684887E+02 -0.11882325302E+03  0.24319565285E+02  0.13198245419E+03  0.00000000000E+00 0. -1.
        -11    1    3    3    0    0 -0.13526315658E+02 -0.42982372180E+03  0.78181032851E+02  0.43708542293E+03  0.00000000000E+00 0.  1.
         22    1    1    2    0    0  0.65574000546E+02  0.54864697482E+03  0.11951911821E+04  0.13167366534E+04  0.00000000000E+00 0. -1.
<mgrwt>
<rscale>  0 0.13683036E+04</rscale>
<asrwt>0</asrwt>
<pdfrwt beam="1">  1        1 0.24488433E+00 0.13683036E+04</pdfrwt>
<pdfrwt beam="2">  1       -1 0.45239443E-01 0.13683036E+04</pdfrwt>
<totfact> 0.26795674E+01</totfact>
</mgrwt>
</event>
<event>
 6    1  0.1568961E-005  0.1460317E+04  0.7818608E-02  0.8911279E-01
         -1   -1    0    0    0  501 -0.00000000000E+00  0.00000000000E+00  0.25480706099E+03  0.25480706099E+03  0.00000000000E+00 0.  1.
          1   -1    0    0  501    0  0.00000000000E+00 -0.00000000000E+00 -0.20922953855E+04  0.20922953855E+04  0.00000000000E+00 0. -1.
         23    2    1    2    0    0 -0.25294761428E+03  0.63127868212E+03 -0.51640255502E+03  0.86124818701E+03  0.11216760108E+03 0.  0.
         13    1    3    3    0    0 -0.78817361845E+01  0.13922190027E+03 -0.11063290015E+03  0.17800139852E+03  0.00000000000E+00 0. -1.
        -13    1    3    3    0    0 -0.24506587809E+03  0.49205678185E+03 -0.40576965487E+03  0.68324678849E+03  0.00000000000E+00 0.  1.
         22    1    1    2    0    0  0.25294761428E+03 -0.63127868212E+03 -0.13210857695E+04  0.14858542595E+04  0.00000000000E+00 0. -1.
<mgrwt>
<rscale>  0 0.14603173E+04</rscale>
<asrwt>0</asrwt>
<pdfrwt beam="1">  1        1 0.32189159E+00 0.14603173E+04</pdfrwt>
<pdfrwt beam="2">  1       -1 0.39201088E-01 0.14603173E+04</pdfrwt>
<totfact> 0.15836247E+01</totfact>
</mgrwt>
</event>
<event>
 6    1  0.1568961E-005  0.1586450E+04  0.7818608E-02  0.8828916E-01
          1   -1    0    0  501    0  0.00000000000E+00  0.00000000000E+00  0.10602780387E+04  0.10602780387E+04  0.00000000000E+00 0. -1.
         -1   -1    0    0    0  501 -0.00000000000E+00 -0.00000000000E+00 -0.59343480277E+03  0.59343480277E+03  0.00000000000E+00 0.  1.
         23    2    1    2    0    0 -0.14784169840E+03 -0.69906336160E+03 -0.11799244200E+03  0.73036051353E+03  0.94644133678E+02 0.  0.
         11    1    3    3    0    0 -0.64612876339E+02 -0.48427714848E+03 -0.55665582775E+02  0.49172943519E+03  0.00000000000E+00 0.  1.
        -11    1    3    3    0    0 -0.83228822066E+02 -0.21478621312E+03 -0.62326859228E+02  0.23863107834E+03  0.00000000000E+00 0. -1.
         22    1    1    2    0    0  0.14784169840E+03  0.69906336160E+03  0.58483567796E+03  0.92335232795E+03  0.00000000000E+00 0. -1.
<mgrwt>
<rscale>  0 0.15864500E+04</rscale>
<asrwt>0</asrwt>
<pdfrwt beam="1">  1        1 0.16311970E+00 0.15864500E+04</pdfrwt>
<pdfrwt beam="2">  1       -1 0.91297662E-01 0.15864500E+04</pdfrwt>
<totfact> 0.15280489E+01</totfact>
</mgrwt>
</event>
<event>
 6    1  0.1667442E-005  0.3136668E+04  0.7818608E-02  0.8205746E-01
          2   -1    0    0  501    0  0.00000000000E+00  0.00000000000E+00  0.17612682715E+04  0.17612682715E+04  0.00000000000E+00 0. -1.
         -2   -1    0    0    0  501 -0.00000000000E+00 -0.00000000000E+00 -0.13965339164E+04  0.13965339164E+04  0.00000000000E+00 0.  1.
         23    2    1    2    0    0  0.13928000534E+04 -0.22775929575E+03  0.86801902003E+03  0.16594491790E+04  0.92456870669E+02 0.  0.
         11    1    3    3    0    0  0.10304792347E+04 -0.19465651270E+03  0.68043697418E+03  0.12501092300E+04  0.00000000000E+00 0. -1.
        -11    1    3    3    0    0  0.36232081873E+03 -0.33102783051E+02  0.18758204584E+03  0.40933994901E+03  0.00000000000E+00 0.  1.
         22    1    1    2    0    0 -0.13928000534E+04  0.22775929575E+03 -0.50328466496E+03  0.14983530090E+04  0.00000000000E+00 0.  1.
<mgrwt>
<rscale>  0 0.31366676E+04</rscale>
<asrwt>0</asrwt>
<pdfrwt beam="1">  1        2 0.27096435E+00 0.31366676E+04</pdfrwt>
<pdfrwt beam="2">  1       -2 0.21485137E+00 0.31366676E+04</pdfrwt>
<totfact> 0.81808680E-01</totfact>
</mgrwt>
</event>
<event>
 6    1  0.1568961E-005  0.3599204E+04  0.7818608E-02  0.8090674E-01
         -2   -1    0    0    0  501 -0.00000000000E+00  0.00000000000E+00  0.12482559441E+04  0.12482559441E+04  0.00000000000E+00 0.  1.
          2   -1    0    0  501    0  0.00000000000E+00 -0.00000000000E+00 -0.25944733493E+04  0.25944733493E+04  0.00000000000E+00 0. -1.
         23    2    1    2    0    0  0.54802470307E+02 -0.54851975155E+03 -0.25013637072E+04  0.25627917138E+04  0.84874873341E+02 0.  0.
         11    1    3    3    0    0 -0.16342844489E+02 -0.23713001012E+03 -0.11283447468E+04  0.11531086670E+04  0.00000000000E+00 0. -1.
        -11    1    3    3    0    0  0.71145314796E+02 -0.31138974144E+03 -0.13730189604E+04  0.14096830469E+04  0.00000000000E+00 0.  1.
         22    1    1    2    0    0 -0.54802470307E+02  0.54851975155E+03  0.11551463020E+04  0.12799375796E+04  0.00000000000E+00 0.  1.
<mgrwt>
<rscale>  0 0.35992037E+04</rscale>
<asrwt>0</asrwt>
<pdfrwt beam="1">  1        2 0.39914974E+00 0.35992037E+04</pdfrwt>
<pdfrwt beam="2">  1       -2 0.19203938E+00 0.35992037E+04</pdfrwt>
<totfact> 0.37530381E-01</totfact>
</mgrwt>
</event>
<event>
 6    1  0.1568961E-005  0.1789644E+04  0.7818608E-02  0.8711826E-01
         -2   -1    0    0    0  501 -0.00000000000E+00  0.00000000000E+00  0.68010998749E+03  0.68010998749E+03  0.00000000000E+00 0.  1.
          2   -1    0    0  501    0  0.00000000000E+00 -0.00000000000E+00 -0.11773196299E+04  0.11773196299E+04  0.00000000000E+00 0. -1.
         23    2    1    2    0    0 -0.28048281469E+03 -0.84653847609E+03 -0.28747710921E+03  0.94130422402E+03  0.90069711928E+02 0.  0.
         13    1    3    3    0    0 -0.30750439183E+02 -0.11722145182E+03 -0.71601543468E+02  0.14075950875E+03  0.00000000000E+00 0.  1.
        -13    1    3    3    0    0 -0.24973237550E+03 -0.72931702427E+03 -0.21587556575E+03  0.80054471527E+03  0.00000000000E+00 0. -1.
         22    1    1    2    0    0  0.28048281469E+03  0.84653847609E+03 -0.20973253316E+03  0.91612539332E+03  0.00000000000E+00 0. -1.
<mgrwt>
<rscale>  0 0.17896445E+04</rscale>
<asrwt>0</asrwt>
<pdfrwt beam="1">  1        2 0.18112609E+00 0.17896445E+04</pdfrwt>
<pdfrwt beam="2">  1       -2 0.10463231E+00 0.17896445E+04</pdfrwt>
<totfact> 0.13691571E+01</totfact>
</mgrwt>
</event>
<event>
 6    1  0.1568961E-005  0.2434395E+04  0.7818608E-02  0.8426738E-01
         -2   -1    0    0    0  501 -0.00000000000E+00  0.00000000000E+00  0.64857881950E+03  0.64857881950E+03  0.00000000000E+00 0.  1.
          2   -1    0    0  501    0  0.00000000000E+00 -0.00000000000E+00 -0.22843334220E+04  0.22843334220E+04  0.00000000000E+00 0. -1.
         23    2    1    2    0    0 -0.41282419404E+03  0.10170241848E+02 -0.21963194664E+04  0.22366650040E+04  0.91235369881E+02 0.  0.
         13    1    3    3    0    0 -0.99366004543E+02  0.63902791709E+01 -0.34858849796E+03  0.36253052208E+03  0.00000000000E+00 0.  1.
        -13    1    3    3    0    0 -0.31345818950E+03  0.37799626771E+01 -0.18477309684E+04  0.18741344819E+04  0.00000000000E+00 0. -1.
         22    1    1    2    0    0  0.41282419404E+03 -0.10170241848E+02  0.56056486392E+03  0.69624723746E+03  0.00000000000E+00 0.  1.
<mgrwt>
<rscale>  0 0.24343954E+04</rscale>
<asrwt>0</asrwt>
<pdfrwt beam="1">  1        2 0.35143591E+00 0.24343954E+04</pdfrwt>
<pdfrwt beam="2">  1       -2 0.99781357E-01 0.24343954E+04</pdfrwt>
<totfact> 0.34447352E+00</totfact>
</mgrwt>
</event>
<event>
 6    1  0.1568961E-005  0.3052951E+04  0.7818608E-02  0.8228770E-01
         -1   -1    0    0    0  501 -0.00000000000E+00  0.00000000000E+00  0.16320165781E+04  0.16320165781E+04  0.00000000000E+00 0. -1.
          1   -1    0    0  501    0  0.00000000000E+00 -0.00000000000E+00 -0.14277599530E+04  0.14277599530E+04  0.00000000000E+00 0.  1.
         23    2    1    2    0    0 -0.76787549831E+03  0.89480494482E+03  0.10716549790E+04  0.15959840000E+04  0.91716214903E+02 0.  0.
         13    1    3    3    0    0 -0.47955955869E+03  0.49305785061E+03  0.60374499023E+03  0.91520021176E+03  0.00000000000E+00 0.  1.
        -13    1    3    3    0    0 -0.28831593961E+03  0.40174709421E+03  0.46790998873E+03  0.68078378821E+03  0.00000000000E+00 0. -1.
         22    1    1    2    0    0  0.76787549831E+03 -0.89480494482E+03 -0.86739835386E+03  0.14637925312E+04  0.00000000000E+00 0.  1.
<mgrwt>
<rscale>  0 0.30529513E+04</rscale>
<asrwt>0</asrwt>
<pdfrwt beam="1">  1        1 0.21965538E+00 0.30529513E+04</pdfrwt>
<pdfrwt beam="2">  1       -1 0.25107947E+00 0.30529513E+04</pdfrwt>
<totfact> 0.42690273E-01</totfact>
</mgrwt>
</event>
<event>
 6    1  0.1568961E-005  0.1272036E+04  0.7818608E-02  0.9052040E-01
          2   -1    0    0  501    0  0.00000000000E+00  0.00000000000E+00  0.18264485559E+04  0.18264485559E+04  0.00000000000E+00 0. -1.
         -2   -1    0    0    0  501 -0.00000000000E+00 -0.00000000000E+00 -0.22147841089E+03  0.22147841089E+03  0.00000000000E+00 0.  1.
         23    2    1    2    0    0  0.27194358102E+02 -0.41150339334E+03  0.15792013931E+04  0.16347216856E+04  0.91451481319E+02 0.  0.
         13    1    3    3    0    0  0.28255698516E+02 -0.77475450193E+02  0.21639835904E+03  0.23157953207E+03  0.00000000000E+00 0.  1.
        -13    1    3    3    0    0 -0.10613404141E+01 -0.33402794315E+03  0.13628030341E+04  0.14031421535E+04  0.00000000000E+00 0. -1.
         22    1    1    2    0    0 -0.27194358102E+02  0.41150339334E+03  0.25768751893E+02  0.41320528121E+03  0.00000000000E+00 0.  1.
<mgrwt>
<rscale>  0 0.12720360E+04</rscale>
<asrwt>0</asrwt>
<pdfrwt beam="1">  1        2 0.28099207E+00 0.12720360E+04</pdfrwt>
<pdfrwt beam="2">  1       -2 0.34073603E-01 0.12720360E+04</pdfrwt>
<totfact> 0.66073534E+01</totfact>
</mgrwt>
</event>
<event>
 6    1  0.1568961E-005  0.2649731E+04  0.7818608E-02  0.8351502E-01
          2   -1    0    0  501    0  0.00000000000E+00  0.00000000000E+00  0.95832575894E+03  0.95832575894E+03  0.00000000000E+00 0. -1.
         -2   -1    0    0    0  501 -0.00000000000E+00 -0.00000000000E+00 -0.18315991515E+04  0.18315991515E+04  0.00000000000E+00 0.  1.
         23    2    1    2    0    0 -0.54872240768E+03 -0.11096661940E+04 -0.92949912770E+03  0.15507248958E+04  0.91234485235E+02 0.  0.
         11    1    3    3    0    0 -0.29983845277E+03 -0.67399627718E+03 -0.59451251270E+03  0.94742767912E+03  0.00000000000E+00 0.  1.
        -11    1    3    3    0    0 -0.24888395491E+03 -0.43566991685E+03 -0.33498661500E+03  0.60329721671E+03  0.00000000000E+00 0. -1.
         22    1    1    2    0    0  0.54872240768E+03  0.11096661940E+04  0.56225735163E+02  0.12392000146E+04  0.00000000000E+00 0. -1.
<mgrwt>
<rscale>  0 0.26497310E+04</rscale>
<asrwt>0</asrwt>
<pdfrwt beam="1">  1        2 0.14743473E+00 0.26497310E+04</pdfrwt>
<pdfrwt beam="2">  1       -2 0.28178448E+00 0.26497310E+04</pdfrwt>
<totfact> 0.96996322E-01</totfact>
</mgrwt>
</event>
<event>
 6    1  0.1568961E-005  0.2259806E+04  0.7818608E-02  0.8493940E-01
         -2   -1    0    0    0  501 -0.00000000000E+00  0.00000000000E+00  0.57450966756E+03  0.57450966756E+03  0.00000000000E+00 0.  1.
          2   -1    0    0  501    0  0.00000000000E+00 -0.00000000000E+00 -0.22222095038E+04  0.22222095038E+04  0.00000000000E+00 0. -1.
         23    2    1    2    0    0  0.81807375116E+03 -0.50122871718E+03 -0.90806188604E+02  0.96795108346E+03  0.90601582884E+02 0.  0.
         11    1    3    3    0    0  0.46535754005E+03 -0.23217623978E+03 -0.47993863584E+02  0.52227086588E+03  0.00000000000E+00 0. -1.
        -11    1    3    3    0    0  0.35271621111E+03 -0.26905247739E+03 -0.42812325020E+02  0.44568021758E+03  0.00000000000E+00 0.  1.
         22    1    1    2    0    0 -0.81807375116E+03  0.50122871718E+03 -0.15568936476E+04  0.18287680879E+04  0.00000000000E+00 0. -1.
<mgrwt>
<rscale>  0 0.22598060E+04</rscale>
<asrwt>0</asrwt>
<pdfrwt beam="1">  1        2 0.34187838E+00 0.22598060E+04</pdfrwt>
<pdfrwt beam="2">  1       -2 0.88386103E-01 0.22598060E+04</pdfrwt>
<totfact> 0.50275327E+00</totfact>
</mgrwt>
</event>
<event>
 6    1  0.1568961E-005  0.1282776E+04  0.7818608E-02  0.9043337E-01
         -2   -1    0    0    0  501 -0.00000000000E+00  0.00000000000E+00  0.88466959436E+03  0.88466959436E+03  0.00000000000E+00 0. -1.
          2   -1    0    0  501    0  0.00000000000E+00 -0.00000000000E+00 -0.46500804977E+03  0.46500804977E+03  0.00000000000E+00 0.  1.
         23    2    1    2    0    0  0.74882190834E+02 -0.44420942279E+03  0.68626807378E+03  0.82621953195E+03  0.93517335741E+02 0.  0.
         11    1    3    3    0    0  0.26649216781E+01 -0.14442086257E+03  0.15445726542E+03  0.21147466561E+03  0.00000000000E+00 0. -1.
        -11    1    3    3    0    0  0.72217269155E+02 -0.29978856022E+03  0.53181080836E+03  0.61474486634E+03  0.00000000000E+00 0.  1.
         22    1    1    2    0    0 -0.74882190834E+02  0.44420942279E+03 -0.26660652919E+03  0.52345811218E+03  0.00000000000E+00 0.  1.
<mgrwt>
<rscale>  0 0.12827759E+04</rscale>
<asrwt>0</asrwt>
<pdfrwt beam="1">  1        2 0.71539700E-01 0.12827759E+04</pdfrwt>
<pdfrwt beam="2">  1       -2 0.13610301E+00 0.12827759E+04</pdfrwt>
<totfact> 0.25377026E+01</totfact>
</mgrwt>
</event>
<event>
 6    1  0.1568961E-005  0.1937022E+04  0.7818608E-02  0.8636644E-01
          3   -1    0    0  501    0  0.00000000000E+00  0.00000000000E+00  0.23674957760E+03  0.23674957760E+03  0.00000000000E+00 0. -1.
         -3   -1    0    0    0  501 -0.00000000000E+00 -0.00000000000E+00 -0.39620497939E+04  0.39620497939E+04  0.00000000000E+00 0.  1.
         23    2    1    2    0    0  0.58906742043E+03  0.18825218538E+03 -0.34758668526E+04  0.35319738216E+04  0.10367925604E+03 0.  0.
         11    1    3    3    0    0  0.38712969403E+03  0.83008900711E+02 -0.20246600063E+04  0.20630094568E+04  0.00000000000E+00 0. -1.
        -11    1    3    3    0    0  0.20193772640E+03  0.10524328467E+03 -0.14512068463E+04  0.14689643648E+04  0.00000000000E+00 0.  1.
         22    1    1    2    0    0 -0.58906742043E+03 -0.18825218538E+03 -0.24943336368E+03  0.66682554992E+03  0.00000000000E+00 0. -1.
<mgrwt>
<rscale>  0 0.19370221E+04</rscale>
<asrwt>0</asrwt>
<pdfrwt beam="1">  1        3 0.36423012E-01 0.19370221E+04</pdfrwt>
<pdfrwt beam="2">  1       -3 0.60954613E+00 0.19370221E+04</pdfrwt>
<totfact> 0.14834143E-02</totfact>
</mgrwt>
</event>
<event>
 6    1  0.1568961E-005  0.2295785E+04  0.7818608E-02  0.8479585E-01
         -2   -1    0    0    0  501 -0.00000000000E+00  0.00000000000E+00  0.73752814056E+03  0.73752814056E+03  0.00000000000E+00 0.  1.
          2   -1    0    0  501    0  0.00000000000E+00 -0.00000000000E+00 -0.17865859156E+04  0.17865859156E+04  0.00000000000E+00 0. -1.
         23    2    1    2    0    0  0.40536926473E+03  0.29151009559E+03 -0.16598284046E+04  0.17352267774E+04  0.81726739027E+02 0.  0.
         11    1    3    3    0    0  0.31994225841E+03  0.19300971130E+03 -0.11614069403E+04  0.12200335562E+04  0.00000000000E+00 0.  1.
        -11    1    3    3    0    0  0.85427006313E+02  0.98500384292E+02 -0.49842146431E+03  0.51519322123E+03  0.00000000000E+00 0. -1.
         22    1    1    2    0    0 -0.40536926473E+03 -0.29151009559E+03  0.61077062955E+03  0.78888727872E+03  0.00000000000E+00 0.  1.
<mgrwt>
<rscale>  0 0.22957852E+04</rscale>
<asrwt>0</asrwt>
<pdfrwt beam="1">  1        2 0.27485937E+00 0.22957852E+04</pdfrwt>
<pdfrwt beam="2">  1       -2 0.11346587E+00 0.22957852E+04</pdfrwt>
<totfact> 0.48509419E+00</totfact>
</mgrwt>
</event>
<event>
 6    1  0.1568961E-005  0.4757294E+04  0.7818608E-02  0.7867078E-01
          1   -1    0    0  501    0  0.00000000000E+00  0.00000000000E+00  0.32196085251E+04  0.32196085251E+04  0.00000000000E+00 0. -1.
         -1   -1    0    0    0  501 -0.00000000000E+00 -0.00000000000E+00 -0.17573447483E+04  0.17573447483E+04  0.00000000000E+00 0.  1.
         23    2    1    2    0    0 -0.14277808947E+04 -0.13695969290E+04 -0.64726897102E+03  0.20848117752E+04  0.11458178845E+03 0.  0.
         11    1    3    3    0    0 -0.13237490863E+03 -0.88048539543E+02 -0.66008263067E+02  0.17214166417E+03  0.00000000000E+00 0.  1.
        -11    1    3    3    0    0 -0.12954059861E+04 -0.12815483894E+04 -0.58126070796E+03  0.19126701111E+04  0.00000000000E+00 0. -1.
         22    1    1    2    0    0  0.14277808947E+04  0.13695969290E+04  0.21095327478E+04  0.28921414982E+04  0.00000000000E+00 0. -1.
<mgrwt>
<rscale>  0 0.47572942E+04</rscale>
<asrwt>0</asrwt>
<pdfrwt beam="1">  1        1 0.49532439E+00 0.47572942E+04</pdfrwt>
<pdfrwt beam="2">  1       -1 0.27036073E+00 0.47572942E+04</pdfrwt>
<totfact> 0.15532801E-02</totfact>
</mgrwt>
</event>
<event>
 6    1  0.1568961E-005  0.3304491E+04  0.7818608E-02  0.8161753E-01
         -2   -1    0    0    0  501 -0.00000000000E+00  0.00000000000E+00  0.12412881483E+04  0.12412881483E+04  0.00000000000E+00 0.  1.
          2   -1    0    0  501    0  0.00000000000E+00 -0.00000000000E+00 -0.21992604450E+04  0.21992604450E+04  0.00000000000E+00 0. -1.
         23    2    1    2    0    0  0.39265929272E+03  0.18544344937E+03  0.11789678513E+04  0.12599331321E+04  0.94317071521E+02 0.  0.
         13    1    3    3    0    0  0.18829277417E+03  0.37488227446E+02  0.52141918981E+03  0.55564152788E+03  0.00000000000E+00 0.  1.
        -13    1    3    3    0    0  0.20436651855E+03  0.14795522192E+03  0.65754866150E+03  0.70429160426E+03  0.00000000000E+00 0. -1.
         22    1    1    2    0    0 -0.39265929272E+03 -0.18544344937E+03 -0.21369401480E+04  0.21806154611E+04  0.00000000000E+00 0. -1.
<mgrwt>
<rscale>  0 0.33044914E+04</rscale>
<asrwt>0</asrwt>
<pdfrwt beam="1">  1        2 0.33834776E+00 0.33044914E+04</pdfrwt>
<pdfrwt beam="2">  1       -2 0.19096741E+00 0.33044914E+04</pdfrwt>
<totfact> 0.65898215E-01</totfact>
</mgrwt>
</event>
<event>
 6    1  0.1568961E-005  0.1495963E+04  0.7818608E-02  0.8887142E-01
          4   -1    0    0  501    0  0.00000000000E+00  0.00000000000E+00  0.73831313616E+03  0.73831313616E+03  0.00000000000E+00 0. -1.
         -4   -1    0    0    0  501 -0.00000000000E+00 -0.00000000000E+00 -0.75777645659E+03  0.75777645659E+03  0.00000000000E+00 0.  1.
         23    2    1    2    0    0  0.46559304760E+03 -0.72090308084E+01  0.57160942054E+03  0.74362973256E+03  0.97051498671E+02 0.  0.
         13    1    3    3    0    0  0.22954475375E+03  0.29254011064E+02  0.22549079218E+03  0.32309857396E+03  0.00000000000E+00 0. -1.
        -13    1    3    3    0    0  0.23604829385E+03 -0.36463041872E+02  0.34611862836E+03  0.42053115860E+03  0.00000000000E+00 0.  1.
         22    1    1    2    0    0 -0.46559304760E+03  0.72090308084E+01 -0.59107274096E+03  0.75245986019E+03  0.00000000000E+00 0.  1.
<mgrwt>
<rscale>  0 0.14959630E+04</rscale>
<asrwt>0</asrwt>
<pdfrwt beam="1">  1        4 0.11358664E+00 0.14959630E+04</pdfrwt>
<pdfrwt beam="2">  1       -4 0.11658099E+00 0.14959630E+04</pdfrwt>
<totfact> 0.66646338E-01</totfact>
</mgrwt>
</event>
<event>
 6    1  0.1568961E-005  0.8836455E+03  0.7818608E-02  0.9446259E-01
          2   -1    0    0  501    0  0.00000000000E+00  0.00000000000E+00  0.19199744466E+04  0.19199744466E+04  0.00000000000E+00 0. -1.
         -2   -1    0    0    0  501 -0.00000000000E+00 -0.00000000000E+00 -0.10167185256E+03  0.10167185256E+03  0.00000000000E+00 0.  1.
         23    2    1    2    0    0  0.34122589431E+03  0.22912062612E+03  0.57521719869E+03  0.71237448917E+03  0.87585471969E+02 0.  0.
         11    1    3    3    0    0  0.24552702105E+03  0.11454472125E+03  0.37455343701E+03  0.46227079554E+03  0.00000000000E+00 0. -1.
        -11    1    3    3    0    0  0.95698873261E+02  0.11457590487E+03  0.20066376168E+03  0.25010369364E+03  0.00000000000E+00 0.  1.
         22    1    1    2    0    0 -0.34122589431E+03 -0.22912062612E+03  0.12430853953E+04  0.13092718100E+04  0.00000000000E+00 0. -1.
<mgrwt>
<rscale>  0 0.88364554E+03</rscale>
<asrwt>0</asrwt>
<pdfrwt beam="1">  1        2 0.29538066E+00 0.88364554E+03</pdfrwt>
<pdfrwt beam="2">  1       -2 0.15641825E-01 0.88364554E+03</pdfrwt>
<totfact> 0.24430320E+02</totfact>
</mgrwt>
</event>
<event>
 6    1  0.1568961E-005  0.4891376E+04  0.7818608E-02  0.7845485E-01
         -1   -1    0    0    0  501 -0.00000000000E+00  0.00000000000E+00  0.49709852892E+04  0.49709852892E+04  0.00000000000E+00 0.  1.
          1   -1    0    0  501    0  0.00000000000E+00 -0.00000000000E+00 -0.12032606139E+04  0.12032606139E+04  0.00000000000E+00 0. -1.
         23    2    1    2    0    0 -0.13130133556E+04  0.11136921919E+03 -0.71485520390E+03  0.15019948880E+04  0.92539214107E+02 0.  0.
         11    1    3    3    0    0 -0.76617314595E+03  0.19426789860E+02 -0.40911635134E+03  0.86877780742E+03  0.00000000000E+00 0. -1.
        -11    1    3    3    0    0 -0.54684020960E+03  0.91942429327E+02 -0.30573885256E+03  0.63321708056E+03  0.00000000000E+00 0.  1.
         22    1    1    2    0    0  0.13130133556E+04 -0.11136921919E+03  0.44825798792E+04  0.46722510151E+04  0.00000000000E+00 0.  1.
<mgrwt>
<rscale>  0 0.48913764E+04</rscale>
<asrwt>0</asrwt>
<pdfrwt beam="1">  1        1 0.18511702E+00 0.48913764E+04</pdfrwt>
<pdfrwt beam="2">  1       -1 0.76476696E+00 0.48913764E+04</pdfrwt>
<totfact> 0.84548007E-04</totfact>
</mgrwt>
</event>
<event>
 6    1  0.1568961E-005  0.1022560E+04  0.7818608E-02  0.9284142E-01
          1   -1    0    0  501    0  0.00000000000E+00  0.00000000000E+00  0.85668438190E+02  0.85668438190E+02  0.00000000000E+00 0. -1.
         -1   -1    0    0    0  501 -0.00000000000E+00 -0.00000000000E+00 -0.30513814144E+04  0.30513814144E+04  0.00000000000E+00 0.  1.
         23    2    1    2    0    0 -0.40141728793E+03 -0.21608768760E+03 -0.81281206857E+03  0.93641084405E+03  0.91499083397E+02 0.  0.
         11    1    3    3    0    0 -0.28397586155E+03 -0.16976620219E+03 -0.65927024229E+03  0.73763141590E+03  0.00000000000E+00 0. -1.
        -11    1    3    3    0    0 -0.11744142637E+03 -0.46321485415E+02 -0.15354182629E+03  0.19877942816E+03  0.00000000000E+00 0.  1.
         22    1    1    2    0    0  0.40141728793E+03  0.21608768760E+03 -0.21529009076E+04  0.22006390085E+04  0.00000000000E+00 0.  1.
<mgrwt>
<rscale>  0 0.10225597E+04</rscale>
<asrwt>0</asrwt>
<pdfrwt beam="1">  1        1 0.13179759E-01 0.10225597E+04</pdfrwt>
<pdfrwt beam="2">  1       -1 0.46944332E+00 0.10225597E+04</pdfrwt>
<totfact> 0.11231783E+00</totfact>
</mgrwt>
</event>
<event>
 6    1  0.1568961E-005  0.1349536E+04  0.7818608E-02  0.8991179E-01
          1   -1    0    0  501    0  0.00000000000E+00  0.00000000000E+00  0.21782094902E+04  0.21782094902E+04  0.00000000000E+00 0. -1.
         -1   -1    0    0    0  501 -0.00000000000E+00 -0.00000000000E+00 -0.20903040988E+03  0.20903040988E+03  0.00000000000E+00 0.  1.
         23    2    1    2    0    0 -0.47367706576E+03  0.36370799343E+03  0.44492318341E+03  0.75016644223E+03  0.90219647614E+02 0.  0.
         13    1    3    3    0    0 -0.16802995123E+03  0.76743649814E+02  0.13778728485E+03  0.23045387427E+03  0.00000000000E+00 0.  1.
        -13    1    3    3    0    0 -0.30564711452E+03  0.28696434361E+03  0.30713589855E+03  0.51971256797E+03  0.00000000000E+00 0. -1.
         22    1    1    2    0    0  0.47367706576E+03 -0.36370799343E+03  0.15242558969E+04  0.16370734578E+04  0.00000000000E+00 0. -1.
<mgrwt>
<rscale>  0 0.13495363E+04</rscale>
<asrwt>0</asrwt>
<pdfrwt beam="1">  1        1 0.33510914E+00 0.13495363E+04</pdfrwt>
<pdfrwt beam="2">  1       -1 0.32158526E-01 0.13495363E+04</pdfrwt>
<totfact> 0.19955676E+01</totfact>
</mgrwt>
</event>
<event>
 6    1  0.1568961E-005  0.1167676E+04  0.7818608E-02  0.9141630E-01
          2   -1    0    0  501    0  0.00000000000E+00  0.00000000000E+00  0.14867185049E+04  0.14867185049E+04  0.00000000000E+00 0.  1.
         -2   -1    0    0    0  501 -0.00000000000E+00 -0.00000000000E+00 -0.22927443340E+03  0.22927443340E+03  0.00000000000E+00 0. -1.
         23    2    1    2    0    0 -0.15386319961E+03  0.50211904946E+03  0.27207272564E+03  0.59941149781E+03  0.97330116815E+02 0.  0.
         11    1    3    3    0    0 -0.85805681516E+02  0.39631755171E+03  0.18075997164E+03  0.44396439510E+03  0.00000000000E+00 0. -1.
        -11    1    3    3    0    0 -0.68057518092E+02  0.10580149776E+03  0.91312754001E+02  0.15544710271E+03  0.00000000000E+00 0.  1.
         22    1    1    2    0    0  0.15386319961E+03 -0.50211904946E+03  0.98537134585E+03  0.11165814405E+04  0.00000000000E+00 0.  1.
<mgrwt>
<rscale>  0 0.11676755E+04</rscale>
<asrwt>0</asrwt>
<pdfrwt beam="1">  1        2 0.22872592E+00 0.11676755E+04</pdfrwt>
<pdfrwt beam="2">  1       -2 0.35272991E-01 0.11676755E+04</pdfrwt>
<totfact> 0.96322763E+01</totfact>
</mgrwt>
</event>
<event>
 6    1  0.1568961E-005  0.2581417E+04  0.7818608E-02  0.8374541E-01
         -2   -1    0    0    0  501 -0.00000000000E+00  0.00000000000E+00  0.21152216744E+04  0.21152216744E+04  0.00000000000E+00 0. -1.
          2   -1    0    0  501    0  0.00000000000E+00 -0.00000000000E+00 -0.78759063127E+03  0.78759063127E+03  0.00000000000E+00 0.  1.
         23    2    1    2    0    0 -0.20893891175E+03  0.48961012797E+03  0.19850526254E+04  0.20568946482E+04  0.83714526325E+02 0.  0.
         11    1    3    3    0    0 -0.14999730603E+03  0.24713642746E+03  0.10346539196E+04  0.10742831744E+04  0.00000000000E+00 0. -1.
        -11    1    3    3    0    0 -0.58941605727E+02  0.24247370051E+03  0.95039870586E+03  0.98261147379E+03  0.00000000000E+00 0.  1.
         22    1    1    2    0    0  0.20893891175E+03 -0.48961012797E+03 -0.65742158231E+03  0.84591765743E+03  0.00000000000E+00 0.  1.
<mgrwt>
<rscale>  0 0.25814173E+04</rscale>
<asrwt>0</asrwt>
<pdfrwt beam="1">  1        2 0.12116779E+00 0.25814173E+04</pdfrwt>
<pdfrwt beam="2">  1       -2 0.32541872E+00 0.25814173E+04</pdfrwt>
<totfact> 0.69073432E-01</totfact>
</mgrwt>
</event>
<event>
 6    1  0.1568961E-005  0.2979420E+04  0.7818608E-02  0.8249632E-01
          1   -1    0    0  501    0  0.00000000000E+00  0.00000000000E+00  0.15612870519E+04  0.15612870519E+04  0.00000000000E+00 0. -1.
         -1   -1    0    0    0  501 -0.00000000000E+00 -0.00000000000E+00 -0.14214139663E+04  0.14214139663E+04  0.00000000000E+00 0.  1.
         23    2    1    2    0    0  0.11793763562E+04 -0.45776765805E+02  0.97798041619E+03  0.15351347851E+04  0.84670020094E+02 0.  0.
         13    1    3    3    0    0  0.68804612997E+03 -0.25788165880E+02  0.62424993710E+03  0.92938715852E+03  0.00000000000E+00 0. -1.
        -13    1    3    3    0    0  0.49133022620E+03 -0.19988599925E+02  0.35373047909E+03  0.60574762661E+03  0.00000000000E+00 0.  1.
         22    1    1    2    0    0 -0.11793763562E+04  0.45776765805E+02 -0.83810733059E+03  0.14475662331E+04  0.00000000000E+00 0.  1.
<mgrwt>
<rscale>  0 0.29794196E+04</rscale>
<asrwt>0</asrwt>
<pdfrwt beam="1">  1        1 0.24019801E+00 0.29794196E+04</pdfrwt>
<pdfrwt beam="2">  1       -1 0.21867907E+00 0.29794196E+04</pdfrwt>
<totfact> 0.56819084E-01</totfact>
</mgrwt>
</event>
<event>
 6    1  0.1568961E-005  0.3144396E+04  0.7818608E-02  0.8203658E-01
          2   -1    0    0  501    0  0.00000000000E+00  0.00000000000E+00  0.15512026141E+04  0.15512026141E+04  0.00000000000E+00 0. -1.
         -2   -1    0    0    0  501 -0.00000000000E+00 -0.00000000000E+00 -0.15934771770E+04  0.15934771770E+04  0.00000000000E+00 0.  1.
         23    2    1    2    0    0 -0.53951534864E+03  0.23225143172E+03 -0.14782278343E+04  0.15932355167E+04  0.90688161170E+02 0.  0.
         11    1    3    3    0    0 -0.11816937374E+03  0.90525169321E+02 -0.33313856749E+03  0.36488369698E+03  0.00000000000E+00 0.  1.
        -11    1    3    3    0    0 -0.42134597490E+03  0.14172626240E+03 -0.11450892668E+04  0.12283518197E+04  0.00000000000E+00 0. -1.
         22    1    1    2    0    0  0.53951534864E+03 -0.23225143172E+03  0.14359532714E+04  0.15514442744E+04  0.00000000000E+00 0. -1.
<mgrwt>
<rscale>  0 0.31443956E+04</rscale>
<asrwt>0</asrwt>
<pdfrwt beam="1">  1        2 0.23864655E+00 0.31443956E+04</pdfrwt>
<pdfrwt beam="2">  1       -2 0.24515034E+00 0.31443956E+04</pdfrwt>
<totfact> 0.69169520E-01</totfact>
</mgrwt>
</event>
<event>
 6    1  0.1568961E-005  0.3200823E+04  0.7818608E-02  0.8188600E-01
         -1   -1    0    0    0  501 -0.00000000000E+00  0.00000000000E+00  0.11489267003E+04  0.11489267003E+04  0.00000000000E+00 0.  1.
          1   -1    0    0  501    0  0.00000000000E+00 -0.00000000000E+00 -0.22293122842E+04  0.22293122842E+04  0.00000000000E+00 0. -1.
         23    2    1    2    0    0  0.10886053660E+04 -0.83525193335E+03 -0.14074795879E+04  0.19676724592E+04  0.89602908961E+02 0.  0.
         11    1    3    3    0    0  0.69592269648E+03 -0.58707108181E+03 -0.92563050861E+03  0.12983653927E+04  0.00000000000E+00 0.  1.
        -11    1    3    3    0    0  0.39268266954E+03 -0.24818085154E+03 -0.48184907924E+03  0.66930706644E+03  0.00000000000E+00 0. -1.
         22    1    1    2    0    0 -0.10886053660E+04  0.83525193335E+03  0.32709400398E+03  0.14105665254E+04  0.00000000000E+00 0.  1.
<mgrwt>
<rscale>  0 0.32008226E+04</rscale>
<asrwt>0</asrwt>
<pdfrwt beam="1">  1        1 0.34297112E+00 0.32008226E+04</pdfrwt>
<pdfrwt beam="2">  1       -1 0.17675796E+00 0.32008226E+04</pdfrwt>
<totfact> 0.38223315E-01</totfact>
</mgrwt>
</event>
<event>
 6    1  0.1568961E-005  0.1613876E+04  0.7818608E-02  0.8812069E-01
         -1   -1    0    0    0  501 -0.00000000000E+00  0.00000000000E+00  0.13200934080E+04  0.13200934080E+04  0.00000000000E+00 0.  1.
          1   -1    0    0  501    0  0.00000000000E+00 -0.00000000000E+00 -0.49325958376E+03  0.49325958376E+03  0.00000000000E+00 0. -1.
         23    2    1    2    0    0 -0.24535798094E+03 -0.48592669956E+03  0.10798544368E+04  0.12130657884E+04  0.95486680201E+02 0.  0.
         13    1    3    3    0    0 -0.59855712540E+02 -0.75212588635E+02  0.26495546080E+03  0.28185286236E+03  0.00000000000E+00 0.  1.
        -13    1    3    3    0    0 -0.18550226840E+03 -0.41071411092E+03  0.81489897604E+03  0.93121292605E+03  0.00000000000E+00 0. -1.
         22    1    1    2    0    0  0.24535798094E+03  0.48592669956E+03 -0.25302061257E+03  0.60028720338E+03  0.00000000000E+00 0. -1.
<mgrwt>
<rscale>  0 0.16138757E+04</rscale>
<asrwt>0</asrwt>
<pdfrwt beam="1">  1        1 0.75886091E-01 0.16138757E+04</pdfrwt>
<pdfrwt beam="2">  1       -1 0.20309129E+00 0.16138757E+04</pdfrwt>
<totfact> 0.62018016E+00</totfact>
</mgrwt>
</event>
<event>
 6    1  0.1568961E-005  0.2464052E+04  0.7818608E-02  0.8415905E-01
          1   -1    0    0  501    0  0.00000000000E+00  0.00000000000E+00  0.27609742511E+04  0.27609742511E+04  0.00000000000E+00 0. -1.
         -1   -1    0    0    0  501 -0.00000000000E+00 -0.00000000000E+00 -0.54976551777E+03  0.54976551777E+03  0.00000000000E+00 0.  1.
         23    2    1    2    0    0  0.23801411325E+03 -0.59564157365E+03  0.25178581316E+04  0.25997732043E+04  0.88156342225E+02 0.  0.
         11    1    3    3    0    0  0.79791416468E+01 -0.14578959057E+02  0.26918383162E+02  0.31635614434E+02  0.00000000000E+00 0. -1.
        -11    1    3    3    0    0  0.23003497160E+03 -0.58106261460E+03  0.24909397485E+04  0.25681375899E+04  0.00000000000E+00 0.  1.
         22    1    1    2    0    0 -0.23801411325E+03  0.59564157365E+03 -0.30664939831E+03  0.71096656451E+03  0.00000000000E+00 0.  1.
<mgrwt>
<rscale>  0 0.24640523E+04</rscale>
<asrwt>0</asrwt>
<pdfrwt beam="1">  1        1 0.42476526E+00 0.24640523E+04</pdfrwt>
<pdfrwt beam="2">  1       -1 0.84579312E-01 0.24640523E+04</pdfrwt>
<totfact> 0.10955582E+00</totfact>
</mgrwt>
</event>
<event>
 6    1  0.1568961E-005  0.1692412E+04  0.7818608E-02  0.8765704E-01
         -1   -1    0    0    0  501 -0.00000000000E+00  0.00000000000E+00  0.43345428780E+03  0.43345428780E+03  0.00000000000E+00 0.  1.
          1   -1    0    0  501    0  0.00000000000E+00 -0.00000000000E+00 -0.16519965561E+04  0.16519965561E+04  0.00000000000E+00 0. -1.
         23    2    1    2    0    0  0.42004420256E+03  0.66725545605E+03 -0.98152309965E+03  0.12621373786E+04  0.89085305741E+02 0.  0.
         11    1    3    3    0    0  0.50466994675E+02  0.36296875285E+02 -0.81870268622E+02  0.10279650573E+03  0.00000000000E+00 0. -1.
        -11    1    3    3    0    0  0.36957720788E+03  0.63095858076E+03 -0.89965283103E+03  0.11593408729E+04  0.00000000000E+00 0.  1.
         22    1    1    2    0    0 -0.42004420256E+03 -0.66725545605E+03 -0.23701916862E+03  0.82331346523E+03  0.00000000000E+00 0.  1.
<mgrwt>
<rscale>  0 0.16924125E+04</rscale>
<asrwt>0</asrwt>
<pdfrwt beam="1">  1        1 0.25415332E+00 0.16924125E+04</pdfrwt>
<pdfrwt beam="2">  1       -1 0.66685274E-01 0.16924125E+04</pdfrwt>
<totfact> 0.11151274E+01</totfact>
</mgrwt>
</event>
<event>
 6    1  0.1568961E-005  0.1636157E+04  0.7818608E-02  0.8798638E-01
          2   -1    0    0  501    0  0.00000000000E+00  0.00000000000E+00  0.10987740150E+04  0.10987740150E+04  0.00000000000E+00 0. -1.
         -2   -1    0    0    0  501 -0.00000000000E+00 -0.00000000000E+00 -0.60909010170E+03  0.60909010170E+03  0.00000000000E+00 0.  1.
         23    2    1    2    0    0 -0.52607814196E+03  0.18227373841E+03  0.86794850669E+03  0.10347623193E+04  0.86119219765E+02 0.  0.
         11    1    3    3    0    0 -0.38198559698E+03  0.92734018956E+02  0.62875808161E+03  0.74151825315E+03  0.00000000000E+00 0. -1.
        -11    1    3    3    0    0 -0.14409254497E+03  0.89539719452E+02  0.23919042508E+03  0.29324406614E+03  0.00000000000E+00 0.  1.
         22    1    1    2    0    0  0.52607814196E+03 -0.18227373841E+03 -0.37826459335E+03  0.67310179746E+03  0.00000000000E+00 0.  1.
<mgrwt>
<rscale>  0 0.16361569E+04</rscale>
<asrwt>0</asrwt>
<pdfrwt beam="1">  1        2 0.16904216E+00 0.16361569E+04</pdfrwt>
<pdfrwt beam="2">  1       -2 0.93706169E-01 0.16361569E+04</pdfrwt>
<totfact> 0.20087847E+01</totfact>
</mgrwt>
</event>
<event>
 6    1  0.1568961E-005  0.2329534E+04  0.7818608E-02  0.8466367E-01
          1   -1    0    0  501    0  0.00000000000E+00  0.00000000000E+00  0.63818725891E+03  0.63818725891E+03  0.00000000000E+00 0. -1.
         -1   -1    0    0    0  501 -0.00000000000E+00 -0.00000000000E+00 -0.21258362789E+04  0.21258362789E+04  0.00000000000E+00 0.  1.
         23    2    1    2    0    0  0.18988755647E+03  0.56667060777E+03  0.43864454989E+03  0.74714977400E+03  0.93010116811E+02 0.  0.
         11    1    3    3    0    0  0.12714258227E+03  0.25774633548E+03  0.24108392907E+03  0.37512647272E+03  0.00000000000E+00 0. -1.
        -11    1    3    3    0    0  0.62744974192E+02  0.30892427229E+03  0.19756062082E+03  0.37202330128E+03  0.00000000000E+00 0.  1.
         22    1    1    2    0    0 -0.18988755647E+03 -0.56667060777E+03 -0.19262935698E+04  0.20168737638E+04  0.00000000000E+00 0.  1.
<mgrwt>
<rscale>  0 0.23295335E+04</rscale>
<asrwt>0</asrwt>
<pdfrwt beam="1">  1        1 0.98182654E-01 0.23295335E+04</pdfrwt>
<pdfrwt beam="2">  1       -1 0.32705174E+00 0.23295335E+04</pdfrwt>
<totfact> 0.62127155E-01</totfact>
</mgrwt>
</event>
<event>
 6    1  0.1568961E-005  0.5419287E+03  0.7818608E-02  0.1003380E+00
          1   -1    0    0  501    0  0.00000000000E+00  0.00000000000E+00  0.36297649770E+03  0.36297649770E+03  0.00000000000E+00 0. -1.
         -1   -1    0    0    0  501 -0.00000000000E+00 -0.00000000000E+00 -0.20227670558E+03  0.20227670558E+03  0.00000000000E+00 0.  1.
         23    2    1    2    0    0  0.24338303852E+01 -0.12615446516E+03  0.32462790038E+03  0.35838779464E+03  0.84484702950E+02 0.  0.
         13    1    3    3    0    0  0.31602900128E+02 -0.68602844460E+02  0.10410280490E+03  0.12861760203E+03  0.00000000000E+00 0. -1.
        -13    1    3    3    0    0 -0.29169069743E+02 -0.57551620703E+02  0.22052509548E+03  0.22977019261E+03  0.00000000000E+00 0.  1.
         22    1    1    2    0    0 -0.24338303852E+01  0.12615446516E+03 -0.16392810826E+03  0.20686540864E+03  0.00000000000E+00 0.  1.
<mgrwt>
<rscale>  0 0.54192874E+03</rscale>
<asrwt>0</asrwt>
<pdfrwt beam="1">  1        1 0.55842538E-01 0.54192874E+03</pdfrwt>
<pdfrwt beam="2">  1       -1 0.31119493E-01 0.54192874E+03</pdfrwt>
<totfact> 0.65827848E+02</totfact>
</mgrwt>
</event>
<event>
 6    1  0.1568961E-005  0.2158169E+04  0.7818608E-02  0.8536044E-01
         -3   -1    0    0    0  501 -0.00000000000E+00  0.00000000000E+00  0.10969300154E+04  0.10969300154E+04  0.00000000000E+00 0.  1.
          3   -1    0    0  501    0  0.00000000000E+00 -0.00000000000E+00 -0.10615292261E+04  0.10615292261E+04  0.00000000000E+00 0. -1.
         23    2    1    2    0    0 -0.80122493057E+03 -0.28851445032E+03  0.67738945900E+03  0.10919924444E+04  0.91591713371E+02 0.  0.
         13    1    3    3    0    0 -0.56346294036E+03 -0.17928130207E+03  0.42268431431E+03  0.72683856529E+03  0.00000000000E+00 0.  1.
        -13    1    3    3    0    0 -0.23776199020E+03 -0.10923314825E+03  0.25470514468E+03  0.36515387906E+03  0.00000000000E+00 0. -1.
         22    1    1    2    0    0  0.80122493057E+03  0.28851445032E+03 -0.64198866968E+03  0.10664667971E+04  0.00000000000E+00 0. -1.
<mgrwt>
<rscale>  0 0.21581689E+04</rscale>
<asrwt>0</asrwt>
<pdfrwt beam="1">  1        3 0.16331219E+00 0.21581689E+04</pdfrwt>
<pdfrwt beam="2">  1       -3 0.16875846E+00 0.21581689E+04</pdfrwt>
<totfact> 0.14614035E-01</totfact>
</mgrwt>
</event>
<event>
 6    1  0.1568961E-005  0.1866128E+04  0.7818608E-02  0.8671903E-01
         -1   -1    0    0    0  501 -0.00000000000E+00  0.00000000000E+00  0.65606139927E+03  0.65606139927E+03  0.00000000000E+00 0.  1.
          1   -1    0    0  501    0  0.00000000000E+00 -0.00000000000E+00 -0.13270223912E+04  0.13270223912E+04  0.00000000000E+00 0. -1.
         23    2    1    2    0    0 -0.78254482955E+03  0.37343836791E+03  0.23593003240E+02  0.87212120015E+03  0.90587709211E+02 0.  0.
         13    1    3    3    0    0 -0.66582658636E+03  0.32717784625E+03 -0.10785744175E+02  0.74194792166E+03  0.00000000000E+00 0.  1.
        -13    1    3    3    0    0 -0.11671824319E+03  0.46260521658E+02  0.34378747415E+02  0.13017327848E+03  0.00000000000E+00 0. -1.
         22    1    1    2    0    0  0.78254482955E+03 -0.37343836791E+03 -0.69455399518E+03  0.11109625903E+04  0.00000000000E+00 0. -1.
<mgrwt>
<rscale>  0 0.18661277E+04</rscale>
<asrwt>0</asrwt>
<pdfrwt beam="1">  1        1 0.20415729E+00 0.18661277E+04</pdfrwt>
<pdfrwt beam="2">  1       -1 0.10093252E+00 0.18661277E+04</pdfrwt>
<totfact> 0.75752702E+00</totfact>
</mgrwt>
</event>
<event>
 6    1  0.1568961E-005  0.1586036E+04  0.7818608E-02  0.8829173E-01
         -2   -1    0    0    0  501 -0.00000000000E+00  0.00000000000E+00  0.80963947864E+03  0.80963947864E+03  0.00000000000E+00 0.  1.
          2   -1    0    0  501    0  0.00000000000E+00 -0.00000000000E+00 -0.77673800022E+03  0.77673800022E+03  0.00000000000E+00 0. -1.
         23    2    1    2    0    0  0.66344994263E+03 -0.42900757051E+03  0.44455523600E+02  0.79622128046E+03  0.88197006471E+02 0.  0.
         11    1    3    3    0    0  0.22694496737E+03 -0.11056101714E+03 -0.13490725658E+02  0.25280379033E+03  0.00000000000E+00 0. -1.
        -11    1    3    3    0    0  0.43650497526E+03 -0.31844655337E+03  0.57946249258E+02  0.54341749013E+03  0.00000000000E+00 0.  1.
         22    1    1    2    0    0 -0.66344994263E+03  0.42900757051E+03 -0.11554045177E+02  0.79015619841E+03  0.00000000000E+00 0.  1.
<mgrwt>
<rscale>  0 0.15860363E+04</rscale>
<asrwt>0</asrwt>
<pdfrwt beam="1">  1        2 0.11949815E+00 0.15860363E+04</pdfrwt>
<pdfrwt beam="2">  1       -2 0.12455992E+00 0.15860363E+04</pdfrwt>
<totfact> 0.16631582E+01</totfact>
</mgrwt>
</event>
<event>
 6    1  0.1568961E-005  0.1106747E+04  0.7818608E-02  0.9198641E-01
          1   -1    0    0  501    0  0.00000000000E+00  0.00000000000E+00  0.85779388129E+03  0.85779388129E+03  0.00000000000E+00 0. -1.
         -1   -1    0    0    0  501 -0.00000000000E+00 -0.00000000000E+00 -0.35698788141E+03  0.35698788141E+03  0.00000000000E+00 0.  1.
         23    2    1    2    0    0 -0.38107191104E+03 -0.35710693140E+03  0.63476652130E+02  0.53360768786E+03  0.89256469434E+02 0.  0.
         13    1    3    3    0    0 -0.17144691747E+03 -0.18060429806E+03 -0.12179532536E+02  0.24931967230E+03  0.00000000000E+00 0. -1.
        -13    1    3    3    0    0 -0.20962499358E+03 -0.17650263334E+03  0.75656184666E+02  0.28428801555E+03  0.00000000000E+00 0.  1.
         22    1    1    2    0    0  0.38107191104E+03  0.35710693140E+03  0.43732934775E+03  0.68117407485E+03  0.00000000000E+00 0. -1.
<mgrwt>
<rscale>  0 0.11067466E+04</rscale>
<asrwt>0</asrwt>
<pdfrwt beam="1">  1        1 0.13196829E+00 0.11067466E+04</pdfrwt>
<pdfrwt beam="2">  1       -1 0.54921213E-01 0.11067466E+04</pdfrwt>
<totfact> 0.65823972E+01</totfact>
</mgrwt>
</event>
<event>
 6    1  0.1568961E-005  0.2784836E+04  0.7818608E-02  0.8307992E-01
          2   -1    0    0  501    0  0.00000000000E+00  0.00000000000E+00  0.23719988534E+04  0.23719988534E+04  0.00000000000E+00 0. -1.
         -2   -1    0    0    0  501 -0.00000000000E+00 -0.00000000000E+00 -0.81738164615E+03  0.81738164615E+03  0.00000000000E+00 0.  1.
         23    2    1    2    0    0 -0.89766395325E+03  0.68958242554E+03  0.17036175764E+04  0.20476600414E+04  0.96303187572E+02 0.  0.
         11    1    3    3    0    0 -0.29736251869E+03  0.18540089395E+03  0.57869607047E+03  0.67652575780E+03  0.00000000000E+00 0. -1.
        -11    1    3    3    0    0 -0.60030143456E+03  0.50418153159E+03  0.11249215059E+04  0.13711342836E+04  0.00000000000E+00 0.  1.
         22    1    1    2    0    0  0.89766395325E+03 -0.68958242554E+03 -0.14900036913E+03  0.11417204582E+04  0.00000000000E+00 0.  1.
<mgrwt>
<rscale>  0 0.27848363E+04</rscale>
<asrwt>0</asrwt>
<pdfrwt beam="1">  1        2 0.36492290E+00 0.27848363E+04</pdfrwt>
<pdfrwt beam="2">  1       -2 0.12575102E+00 0.27848363E+04</pdfrwt>
<totfact> 0.16971636E+00</totfact>
</mgrwt>
</event>
<event>
 6    1  0.1568961E-005  0.2059982E+04  0.7818608E-02  0.8579080E-01
         -2   -1    0    0    0  501 -0.00000000000E+00  0.00000000000E+00  0.32106213566E+03  0.32106213566E+03  0.00000000000E+00 0.  1.
          2   -1    0    0  501    0  0.00000000000E+00 -0.00000000000E+00 -0.33042860287E+04  0.33042860287E+04  0.00000000000E+00 0. -1.
         23    2    1    2    0    0 -0.21695503300E+03 -0.31577646593E+03 -0.31733219998E+04  0.31976548713E+04  0.90773885598E+02 0.  0.
         11    1    3    3    0    0 -0.17128557840E+03 -0.29642412631E+03 -0.28625344180E+04  0.28829341487E+04  0.00000000000E+00 0. -1.
        -11    1    3    3    0    0 -0.45669454599E+02 -0.19352339620E+02 -0.31078758189E+03  0.31472072253E+03  0.00000000000E+00 0.  1.
         22    1    1    2    0    0  0.21695503300E+03  0.31577646593E+03  0.19009810677E+03  0.42769329311E+03  0.00000000000E+00 0.  1.
<mgrwt>
<rscale>  0 0.20599817E+04</rscale>
<asrwt>0</asrwt>
<pdfrwt beam="1">  1        2 0.50835170E+00 0.20599817E+04</pdfrwt>
<pdfrwt beam="2">  1       -2 0.49394175E-01 0.20599817E+04</pdfrwt>
<totfact> 0.39835059E+00</totfact>
</mgrwt>
</event>
<event>
 6    1  0.1568961E-005  0.1963072E+04  0.7818608E-02  0.8624083E-01
          1   -1    0    0  501    0  0.00000000000E+00  0.00000000000E+00  0.39413911051E+03  0.39413911051E+03  0.00000000000E+00 0. -1.
         -1   -1    0    0    0  501 -0.00000000000E+00 -0.00000000000E+00 -0.24443481553E+04  0.24443481553E+04  0.00000000000E+00 0.  1.
         23    2    1    2    0    0  0.67142793621E+03 -0.50308798698E+03 -0.17578892444E+04  0.19500257518E+04  0.92265057446E+02 0.  0.
         13    1    3    3    0    0  0.40440359316E+03 -0.25639003589E+03 -0.93780457299E+03  0.10529746121E+04  0.00000000000E+00 0. -1.
        -13    1    3    3    0    0  0.26702434305E+03 -0.24669795109E+03 -0.82008467143E+03  0.89705113966E+03  0.00000000000E+00 0.  1.
         22    1    1    2    0    0 -0.67142793621E+03  0.50308798698E+03 -0.29231980034E+03  0.88846151399E+03  0.00000000000E+00 0. -1.
<mgrwt>
<rscale>  0 0.19630723E+04</rscale>
<asrwt>0</asrwt>
<pdfrwt beam="1">  1        1 0.60636788E-01 0.19630723E+04</pdfrwt>
<pdfrwt beam="2">  1       -1 0.37605355E+00 0.19630723E+04</pdfrwt>
<totfact> 0.59358471E-01</totfact>
</mgrwt>
</event>
<event>
 6    1  0.1568961E-005  0.3975118E+04  0.7818608E-02  0.8009585E-01
         -2   -1    0    0    0  501 -0.00000000000E+00  0.00000000000E+00  0.21423048939E+04  0.21423048939E+04  0.00000000000E+00 0.  1.
          2   -1    0    0  501    0  0.00000000000E+00 -0.00000000000E+00 -0.18439905712E+04  0.18439905712E+04  0.00000000000E+00 0. -1.
         23    2    1    2    0    0 -0.45465408524E+03 -0.18943718020E+04 -0.24019646226E+03  0.19650709039E+04  0.91948114384E+02 0.  0.
         11    1    3    3    0    0 -0.41200857934E+03 -0.16351615861E+04 -0.23287969580E+03  0.17022741950E+04  0.00000000000E+00 0. -1.
        -11    1    3    3    0    0 -0.42645505896E+02 -0.25921021584E+03 -0.73167664630E+01  0.26279670896E+03  0.00000000000E+00 0.  1.
         22    1    1    2    0    0  0.45465408524E+03  0.18943718020E+04  0.53851078494E+03  0.20212245612E+04  0.00000000000E+00 0.  1.
<mgrwt>
<rscale>  0 0.39751176E+04</rscale>
<asrwt>0</asrwt>
<pdfrwt beam="1">  1        2 0.28369086E+00 0.39751176E+04</pdfrwt>
<pdfrwt beam="2">  1       -2 0.32958537E+00 0.39751176E+04</pdfrwt>
<totfact> 0.13462740E-01</totfact>
</mgrwt>
</event>
<event>
 6    1  0.1568961E-005  0.1829716E+04  0.7818608E-02  0.8690655E-01
          2   -1    0    0  501    0  0.00000000000E+00  0.00000000000E+00  0.27289670103E+04  0.27289670103E+04  0.00000000000E+00 0. -1.
         -2   -1    0    0    0  501 -0.00000000000E+00 -0.00000000000E+00 -0.30669671498E+03  0.30669671498E+03  0.00000000000E+00 0.  1.
         23    2    1    2    0    0  0.86859764515E+03 -0.19899470597E+03  0.15408343438E+04  0.17822722865E+04  0.90902508798E+02 0.  0.
         11    1    3    3    0    0  0.56742668651E+03 -0.97615633647E+02  0.10513716267E+04  0.11987010278E+04  0.00000000000E+00 0. -1.
        -11    1    3    3    0    0  0.30117095864E+03 -0.10137907232E+03  0.48946271705E+03  0.58357125873E+03  0.00000000000E+00 0.  1.
         22    1    1    2    0    0 -0.86859764515E+03  0.19899470597E+03  0.88143595161E+03  0.12533914388E+04  0.00000000000E+00 0. -1.
<mgrwt>
<rscale>  0 0.18297161E+04</rscale>
<asrwt>0</asrwt>
<pdfrwt beam="1">  1        2 0.41984106E+00 0.18297161E+04</pdfrwt>
<pdfrwt beam="2">  1       -2 0.47184112E-01 0.18297161E+04</pdfrwt>
<totfact> 0.10252423E+01</totfact>
</mgrwt>
</event>
<event>
 6    1  0.1568961E-005  0.2515514E+04  0.7818608E-02  0.8397480E-01
         -1   -1    0    0    0  501 -0.00000000000E+00  0.00000000000E+00  0.85826133644E+03  0.85826133644E+03  0.00000000000E+00 0.  1.
          1   -1    0    0  501    0  0.00000000000E+00 -0.00000000000E+00 -0.18432056144E+04  0.18432056144E+04  0.00000000000E+00 0. -1.
         23    2    1    2    0    0  0.93596816320E+03  0.75896193184E+03 -0.11217128408E+03  0.12135851291E+04  0.90259914681E+02 0.  0.
         13    1    3    3    0    0  0.65550227591E+03  0.56937942328E+03 -0.52588156178E+02  0.86985152500E+03  0.00000000000E+00 0. -1.
        -13    1    3    3    0    0  0.28046588729E+03  0.18958250857E+03 -0.59583127905E+02  0.34373360414E+03  0.00000000000E+00 0.  1.
         22    1    1    2    0    0 -0.93596816320E+03 -0.75896193184E+03 -0.87277299389E+03  0.14878818217E+04  0.00000000000E+00 0. -1.
<mgrwt>
<rscale>  0 0.25155136E+04</rscale>
<asrwt>0</asrwt>
<pdfrwt beam="1">  1        1 0.28357009E+00 0.25155136E+04</pdfrwt>
<pdfrwt beam="2">  1       -1 0.13204021E+00 0.25155136E+04</pdfrwt>
<totfact> 0.16467091E+00</totfact>
</mgrwt>
</event>
<event>
 6    1  0.1568961E-005  0.3386637E+04  0.7818608E-02  0.8141194E-01
          1   -1    0    0  501    0  0.00000000000E+00  0.00000000000E+00  0.32837294216E+04  0.32837294216E+04  0.00000000000E+00 0. -1.
         -1   -1    0    0    0  501 -0.00000000000E+00 -0.00000000000E+00 -0.87319237265E+03  0.87319237265E+03  0.00000000000E+00 0.  1.
         23    2    1    2    0    0 -0.72977263642E+03 -0.11225278691E+03  0.30746688667E+04  0.31638256960E+04  0.10505049312E+03 0.  0.
         11    1    3    3    0    0 -0.41743458134E+03 -0.11564968175E+03  0.17438025671E+04  0.17967954451E+04  0.00000000000E+00 0. -1.
        -11    1    3    3    0    0 -0.31233805508E+03  0.33968948370E+01  0.13308662996E+04  0.13670302509E+04  0.00000000000E+00 0.  1.
         22    1    1    2    0    0  0.72977263642E+03  0.11225278691E+03 -0.66413181772E+03  0.99309609824E+03  0.00000000000E+00 0.  1.
<mgrwt>
<rscale>  0 0.33866370E+04</rscale>
<asrwt>0</asrwt>
<pdfrwt beam="1">  1        1 0.50518913E+00 0.33866370E+04</pdfrwt>
<pdfrwt beam="2">  1       -1 0.13433729E+00 0.33866370E+04</pdfrwt>
<totfact> 0.14101793E-01</totfact>
</mgrwt>
</event>
<event>
 6    1  0.1568961E-005  0.1042422E+04  0.7818608E-02  0.9263203E-01
         -2   -1    0    0    0  501 -0.00000000000E+00  0.00000000000E+00  0.19614666133E+04  0.19614666133E+04  0.00000000000E+00 0.  1.
          2   -1    0    0  501    0  0.00000000000E+00 -0.00000000000E+00 -0.13849884938E+03  0.13849884938E+03  0.00000000000E+00 0. -1.
         23    2    1    2    0    0 -0.13419588952E+03 -0.23748423677E+02  0.19237297272E+04  0.19304794820E+04  0.86269591218E+02 0.  0.
         11    1    3    3    0    0 -0.88610690399E+02 -0.39017677410E+02  0.81881559585E+03  0.82451998982E+03  0.00000000000E+00 0. -1.
        -11    1    3    3    0    0 -0.45585199123E+02  0.15269253733E+02  0.11049141314E+04  0.11059594921E+04  0.00000000000E+00 0.  1.
         22    1    1    2    0    0  0.13419588952E+03  0.23748423677E+02 -0.10076196336E+03  0.16948598069E+03  0.00000000000E+00 0. -1.
<mgrwt>
<rscale>  0 0.10424219E+04</rscale>
<asrwt>0</asrwt>
<pdfrwt beam="1">  1        2 0.21307517E-01 0.10424219E+04</pdfrwt>
<pdfrwt beam="2">  1       -2 0.30176407E+00 0.10424219E+04</pdfrwt>
<totfact> 0.82690970E+00</totfact>
</mgrwt>
</event>
<event>
 6    1  0.1568961E-005  0.1980339E+04  0.7818608E-02  0.8615868E-01
          1   -1    0    0  501    0  0.00000000000E+00  0.00000000000E+00  0.48138696023E+03  0.48138696023E+03  0.00000000000E+00 0. -1.
         -1   -1    0    0    0  501 -0.00000000000E+00 -0.00000000000E+00 -0.20366900877E+04  0.20366900877E+04  0.00000000000E+00 0.  1.
         23    2    1    2    0    0 -0.59224414817E+03  0.48385640403E+03 -0.15738676592E+04  0.17530837194E+04  0.10664411846E+03 0.  0.
         13    1    3    3    0    0 -0.57952698536E+03  0.46002994826E+03 -0.15477158080E+04  0.17154892312E+04  0.00000000000E+00 0. -1.
        -13    1    3    3    0    0 -0.12717162806E+02  0.23826455774E+02 -0.26151851118E+02  0.37594488179E+02  0.00000000000E+00 0.  1.
         22    1    1    2    0    0  0.59224414817E+03 -0.48385640403E+03  0.18564531725E+02  0.76499332847E+03  0.00000000000E+00 0. -1.
<mgrwt>
<rscale>  0 0.19803394E+04</rscale>
<asrwt>0</asrwt>
<pdfrwt beam="1">  1        1 0.74059531E-01 0.19803394E+04</pdfrwt>
<pdfrwt beam="2">  1       -1 0.31333694E+00 0.19803394E+04</pdfrwt>
<totfact> 0.11749902E+00</totfact>
</mgrwt>
</event>
<event>
 6    1  0.1568961E-005  0.5368393E+04  0.7818608E-02  0.7774062E-01
         -2   -1    0    0    0  501 -0.00000000000E+00  0.00000000000E+00  0.18441859990E+04  0.18441859990E+04  0.00000000000E+00 0.  1.
          2   -1    0    0  501    0  0.00000000000E+00 -0.00000000000E+00 -0.39068246423E+04  0.39068246423E+04  0.00000000000E+00 0. -1.
         23    2    1    2    0    0 -0.13527188632E+04  0.40932697254E+03  0.14121261895E+04  0.19998258236E+04  0.88351889807E+02 0.  0.
         11    1    3    3    0    0 -0.66583606736E+03  0.24713234350E+03  0.69911563245E+03  0.99658152268E+03  0.00000000000E+00 0.  1.
        -11    1    3    3    0    0 -0.68688279581E+03  0.16219462904E+03  0.71301055709E+03  0.10032443010E+04  0.00000000000E+00 0. -1.
         22    1    1    2    0    0  0.13527188632E+04 -0.40932697254E+03 -0.34747648328E+04  0.37511848177E+04  0.00000000000E+00 0. -1.
<mgrwt>
<rscale>  0 0.53683932E+04</rscale>
<asrwt>0</asrwt>
<pdfrwt beam="1">  1        2 0.60104993E+00 0.53683932E+04</pdfrwt>
<pdfrwt beam="2">  1       -2 0.28372093E+00 0.53683932E+04</pdfrwt>
<totfact> 0.11425901E-02</totfact>
</mgrwt>
</event>
<event>
 6    1  0.1568961E-005  0.3226768E+04  0.7818608E-02  0.8181783E-01
         -2   -1    0    0    0  501 -0.00000000000E+00  0.00000000000E+00  0.11616025824E+04  0.11616025824E+04  0.00000000000E+00 0. -1.
          2   -1    0    0  501    0  0.00000000000E+00 -0.00000000000E+00 -0.22408760268E+04  0.22408760268E+04  0.00000000000E+00 0.  1.
         23    2    1    2    0    0  0.11433427589E+04  0.11207735139E+04 -0.73899634214E+03  0.17656663292E+04  0.89978102113E+02 0.  0.
         11    1    3    3    0    0  0.87837068321E+03  0.90315264305E+03 -0.55716129887E+03  0.13775516204E+04  0.00000000000E+00 0.  1.
        -11    1    3    3    0    0  0.26497207564E+03  0.21762087083E+03 -0.18183504327E+03  0.38811470888E+03  0.00000000000E+00 0. -1.
         22    1    1    2    0    0 -0.11433427589E+04 -0.11207735139E+04 -0.34027710223E+03  0.16368122800E+04  0.00000000000E+00 0.  1.
<mgrwt>
<rscale>  0 0.32267677E+04</rscale>
<asrwt>0</asrwt>
<pdfrwt beam="1">  1        2 0.34475016E+00 0.32267677E+04</pdfrwt>
<pdfrwt beam="2">  1       -2 0.17870809E+00 0.32267677E+04</pdfrwt>
<totfact> 0.76158473E-01</totfact>
</mgrwt>
</event>
<event>
 6    1  0.1568961E-005  0.2771325E+04  0.7818608E-02  0.8312226E-01
         -2   -1    0    0    0  501 -0.00000000000E+00  0.00000000000E+00  0.14026924679E+04  0.14026924679E+04  0.00000000000E+00 0.  1.
          2   -1    0    0  501    0  0.00000000000E+00 -0.00000000000E+00 -0.13688393349E+04  0.13688393349E+04  0.00000000000E+00 0. -1.
         23    2    1    2    0    0 -0.26504714399E+03  0.10847289051E+04 -0.80045264394E+03  0.13776333433E+04  0.10130354048E+03 0.  0.
         11    1    3    3    0    0  0.73022769591E+01  0.50103670061E+02 -0.46944985314E+02  0.69047321805E+02  0.00000000000E+00 0. -1.
        -11    1    3    3    0    0 -0.27234942095E+03  0.10346252350E+04 -0.75350765863E+03  0.13085860215E+04  0.00000000000E+00 0.  1.
         22    1    1    2    0    0  0.26504714399E+03 -0.10847289051E+04  0.83430577699E+03  0.13938984595E+04  0.00000000000E+00 0.  1.
<mgrwt>
<rscale>  0 0.27713250E+04</rscale>
<asrwt>0</asrwt>
<pdfrwt beam="1">  1        2 0.21059067E+00 0.27713250E+04</pdfrwt>
<pdfrwt beam="2">  1       -2 0.21579884E+00 0.27713250E+04</pdfrwt>
<totfact> 0.13825037E+00</totfact>
</mgrwt>
</event>
<event>
 6    1  0.1568961E-005  0.1081709E+04  0.7818608E-02  0.9223206E-01
         -1   -1    0    0    0  501 -0.00000000000E+00  0.00000000000E+00  0.79194191921E+03  0.79194191921E+03  0.00000000000E+00 0.  1.
          1   -1    0    0  501    0  0.00000000000E+00 -0.00000000000E+00 -0.36937472885E+03  0.36937472885E+03  0.00000000000E+00 0. -1.
         23    2    1    2    0    0 -0.36417798544E+03  0.25766686143E+03 -0.10819984542E+03  0.46796863817E+03  0.90937468636E+02 0.  0.
         11    1    3    3    0    0 -0.29799863429E+03  0.21323929425E+03 -0.51240127875E+02  0.36999963967E+03  0.00000000000E+00 0.  1.
        -11    1    3    3    0    0 -0.66179351154E+02  0.44427567178E+02 -0.56959717545E+02  0.97968998501E+02  0.00000000000E+00 0. -1.
         22    1    1    2    0    0  0.36417798544E+03 -0.25766686143E+03  0.53076703578E+03  0.69334800989E+03  0.00000000000E+00 0.  1.
<mgrwt>
<rscale>  0 0.10817085E+04</rscale>
<asrwt>0</asrwt>
<pdfrwt beam="1">  1        1 0.56826882E-01 0.10817085E+04</pdfrwt>
<pdfrwt beam="2">  1       -1 0.12183722E+00 0.10817085E+04</pdfrwt>
<totfact> 0.39696349E+01</totfact>
</mgrwt>
</event>
<event>
 6    1  0.1568961E-005  0.1117472E+04  0.7818608E-02  0.9188328E-01
          1   -1    0    0  501    0  0.00000000000E+00  0.00000000000E+00  0.30997333635E+04  0.30997333635E+04  0.00000000000E+00 0. -1.
         -1   -1    0    0    0  501 -0.00000000000E+00 -0.00000000000E+00 -0.10071375346E+03  0.10071375346E+03  0.00000000000E+00 0.  1.
         23    2    1    2    0    0 -0.48504422104E+02 -0.48058261283E+03  0.22923537973E+04  0.23444746305E+04  0.91449626753E+02 0.  0.
         13    1    3    3    0    0 -0.31822409705E+02 -0.53465799875E+02  0.22832992012E+03  0.23665546674E+03  0.00000000000E+00 0.  1.
        -13    1    3    3    0    0 -0.16682012399E+02 -0.42711681295E+03  0.20640238772E+04  0.21078191637E+04  0.00000000000E+00 0. -1.
         22    1    1    2    0    0  0.48504422104E+02  0.48058261283E+03  0.70666581278E+03  0.85597248652E+03  0.00000000000E+00 0.  1.
<mgrwt>
<rscale>  0 0.11174718E+04</rscale>
<asrwt>0</asrwt>
<pdfrwt beam="1">  1        1 0.47688198E+00 0.11174718E+04</pdfrwt>
<pdfrwt beam="2">  1       -1 0.15494426E-01 0.11174718E+04</pdfrwt>
<totfact> 0.15974684E+01</totfact>
</mgrwt>
</event>
<event>
 6    1  0.1568961E-005  0.1437914E+04  0.7818608E-02  0.8926823E-01
         -2   -1    0    0    0  501 -0.00000000000E+00  0.00000000000E+00  0.26578664319E+03  0.26578664319E+03  0.00000000000E+00 0.  1.
          2   -1    0    0  501    0  0.00000000000E+00 -0.00000000000E+00 -0.19447894531E+04  0.19447894531E+04  0.00000000000E+00 0. -1.
         23    2    1    2    0    0  0.31143487422E+03 -0.60845353197E+03 -0.11707294012E+04  0.13587843146E+04  0.92087464529E+02 0.  0.
         13    1    3    3    0    0  0.22098162287E+03 -0.50739764878E+03 -0.91624744599E+03  0.10704179716E+04  0.00000000000E+00 0.  1.
        -13    1    3    3    0    0  0.90453251350E+02 -0.10105588319E+03 -0.25448195525E+03  0.28836634296E+03  0.00000000000E+00 0. -1.
         22    1    1    2    0    0 -0.31143487422E+03  0.60845353197E+03 -0.50827340864E+03  0.85179178170E+03  0.00000000000E+00 0. -1.
<mgrwt>
<rscale>  0 0.14379139E+04</rscale>
<asrwt>0</asrwt>
<pdfrwt beam="1">  1        2 0.29919838E+00 0.14379139E+04</pdfrwt>
<pdfrwt beam="2">  1       -2 0.40890252E-01 0.14379139E+04</pdfrwt>
<totfact> 0.39435562E+01</totfact>
</mgrwt>
</event>
<event>
 6    1  0.1568961E-005  0.9879486E+03  0.7818608E-02  0.9321862E-01
         -1   -1    0    0    0  501 -0.00000000000E+00  0.00000000000E+00  0.33461886425E+03  0.33461886425E+03  0.00000000000E+00 0.  1.
          1   -1    0    0  501    0  0.00000000000E+00 -0.00000000000E+00 -0.72921959024E+03  0.72921959024E+03  0.00000000000E+00 0. -1.
         23    2    1    2    0    0 -0.45724328363E+02  0.47431377402E+03 -0.91721085299E+02  0.49921437850E+03  0.11720907723E+03 0.  0.
         13    1    3    3    0    0 -0.44276250086E+02  0.39537231782E+03 -0.29954432768E+02  0.39896982852E+03  0.00000000000E+00 0.  1.
        -13    1    3    3    0    0 -0.14480782768E+01  0.78941456199E+02 -0.61766652532E+02  0.10024454999E+03  0.00000000000E+00 0. -1.
         22    1    1    2    0    0  0.45724328363E+02 -0.47431377402E+03 -0.30287964070E+03  0.56462407599E+03  0.00000000000E+00 0. -1.
<mgrwt>
<rscale>  0 0.98794864E+03</rscale>
<asrwt>0</asrwt>
<pdfrwt beam="1">  1        1 0.11218763E+00 0.98794864E+03</pdfrwt>
<pdfrwt beam="2">  1       -1 0.51479825E-01 0.98794864E+03</pdfrwt>
<totfact> 0.97425769E+01</totfact>
</mgrwt>
</event>
<event>
 6    1  0.1568961E-005  0.3431571E+04  0.7818608E-02  0.8130201E-01
         -1   -1    0    0    0  501 -0.00000000000E+00  0.00000000000E+00  0.11595620600E+04  0.11595620600E+04  0.00000000000E+00 0.  1.
          1   -1    0    0  501    0  0.00000000000E+00 -0.00000000000E+00 -0.25388206782E+04  0.25388206782E+04  0.00000000000E+00 0. -1.
         23    2    1    2    0    0  0.17267728546E+03 -0.69557082484E+03 -0.23688288096E+04  0.24765458502E+04  0.91067017056E+02 0.  0.
         11    1    3    3    0    0  0.21831752912E+02 -0.10980890828E+03 -0.26993196682E+03  0.29222917118E+03  0.00000000000E+00 0.  1.
        -11    1    3    3    0    0  0.15084553255E+03 -0.58576191656E+03 -0.20988968427E+04  0.21843166790E+04  0.00000000000E+00 0. -1.
         22    1    1    2    0    0 -0.17267728546E+03  0.69557082484E+03  0.98957019143E+03  0.12218368881E+04  0.00000000000E+00 0.  1.
<mgrwt>
<rscale>  0 0.34315711E+04</rscale>
<asrwt>0</asrwt>
<pdfrwt beam="1">  1        1 0.39058780E+00 0.34315711E+04</pdfrwt>
<pdfrwt beam="2">  1       -1 0.17839416E+00 0.34315711E+04</pdfrwt>
<totfact> 0.22320977E-01</totfact>
</mgrwt>
</event>
<event>
 6    1  0.1568961E-005  0.4838968E+04  0.7818608E-02  0.7853840E-01
         -2   -1    0    0    0  501 -0.00000000000E+00  0.00000000000E+00  0.19056403202E+04  0.19056403202E+04  0.00000000000E+00 0.  1.
          2   -1    0    0  501    0  0.00000000000E+00 -0.00000000000E+00 -0.30718825485E+04  0.30718825485E+04  0.00000000000E+00 0. -1.
         23    2    1    2    0    0  0.38305751714E+02 -0.22328905037E+04 -0.15386264281E+04  0.27134695733E+04  0.90986305928E+02 0.  0.
         13    1    3    3    0    0 -0.38882601469E+01 -0.41447790356E+03 -0.32711397246E+03  0.52802519077E+03  0.00000000000E+00 0. -1.
        -13    1    3    3    0    0  0.42194011861E+02 -0.18184126001E+04 -0.12115124556E+04  0.21854443825E+04  0.00000000000E+00 0.  1.
         22    1    1    2    0    0 -0.38305751714E+02  0.22328905037E+04  0.37238419982E+03  0.22640532954E+04  0.00000000000E+00 0.  1.
<mgrwt>
<rscale>  0 0.48389682E+04</rscale>
<asrwt>0</asrwt>
<pdfrwt beam="1">  1        2 0.47259731E+00 0.48389682E+04</pdfrwt>
<pdfrwt beam="2">  1       -2 0.29317544E+00 0.48389682E+04</pdfrwt>
<totfact> 0.40438079E-02</totfact>
</mgrwt>
</event>
<event>
 6    1  0.1568961E-005  0.2035092E+04  0.7818608E-02  0.8590388E-01
         -2   -1    0    0    0  501 -0.00000000000E+00  0.00000000000E+00  0.71089118442E+03  0.71089118442E+03  0.00000000000E+00 0. -1.
          2   -1    0    0  501    0  0.00000000000E+00 -0.00000000000E+00 -0.14564813787E+04  0.14564813787E+04  0.00000000000E+00 0.  1.
         23    2    1    2    0    0  0.92409146232E+03 -0.13151829063E+03  0.51950266080E+02  0.93964585193E+03  0.94833566805E+02 0.  0.
         11    1    3    3    0    0  0.83584830658E+03 -0.89995128732E+02  0.45616632039E+02  0.84191590550E+03  0.00000000000E+00 0. -1.
        -11    1    3    3    0    0  0.88243155737E+02 -0.41523161899E+02  0.63336340410E+01  0.97729946427E+02  0.00000000000E+00 0.  1.
         22    1    1    2    0    0 -0.92409146232E+03  0.13151829063E+03 -0.79754046040E+03  0.12277267112E+04  0.00000000000E+00 0.  1.
<mgrwt>
<rscale>  0 0.20350919E+04</rscale>
<asrwt>0</asrwt>
<pdfrwt beam="1">  1        2 0.22407406E+00 0.20350919E+04</pdfrwt>
<pdfrwt beam="2">  1       -2 0.10936788E+00 0.20350919E+04</pdfrwt>
<totfact> 0.82942063E+00</totfact>
</mgrwt>
</event>
<event>
 6    1  0.1568961E-005  0.2223022E+04  0.7818608E-02  0.8508907E-01
         -1   -1    0    0    0  501 -0.00000000000E+00  0.00000000000E+00  0.94161352393E+03  0.94161352393E+03  0.00000000000E+00 0.  1.
          1   -1    0    0  501    0  0.00000000000E+00 -0.00000000000E+00 -0.13120633954E+04  0.13120633954E+04  0.00000000000E+00 0. -1.
         23    2    1    2    0    0 -0.16675769639E+03 -0.10641822311E+03 -0.12924949939E+04  0.13106497854E+04  0.90147562995E+02 0.  0.
         11    1    3    3    0    0 -0.86017364962E+02 -0.11898792552E+02 -0.69167883768E+03  0.69710844410E+03  0.00000000000E+00 0. -1.
        -11    1    3    3    0    0 -0.80740331426E+02 -0.94519430559E+02 -0.60081615625E+03  0.61354134130E+03  0.00000000000E+00 0.  1.
         22    1    1    2    0    0  0.16675769639E+03  0.10641822311E+03  0.92204512245E+03  0.94302713394E+03  0.00000000000E+00 0.  1.
<mgrwt>
<rscale>  0 0.22230219E+04</rscale>
<asrwt>0</asrwt>
<pdfrwt beam="1">  1        1 0.20185591E+00 0.22230219E+04</pdfrwt>
<pdfrwt beam="2">  1       -1 0.14486362E+00 0.22230219E+04</pdfrwt>
<totfact> 0.30908610E+00</totfact>
</mgrwt>
</event>
<event>
 6    1  0.1568961E-005  0.2239885E+04  0.7818608E-02  0.8502008E-01
         -2   -1    0    0    0  501 -0.00000000000E+00  0.00000000000E+00  0.15520518256E+04  0.15520518256E+04  0.00000000000E+00 0. -1.
          2   -1    0    0  501    0  0.00000000000E+00 -0.00000000000E+00 -0.80813722466E+03  0.80813722466E+03  0.00000000000E+00 0.  1.
         23    2    1    2    0    0 -0.37400893803E+03 -0.93976473722E+03 -0.12946766055E+03  0.10238369179E+04  0.91867906342E+02 0.  0.
         13    1    3    3    0    0 -0.29177847231E+03 -0.61686719337E+03 -0.90136466260E+02  0.68831997916E+03  0.00000000000E+00 0. -1.
        -13    1    3    3    0    0 -0.82230465720E+02 -0.32289754386E+03 -0.39331194286E+02  0.33551693872E+03  0.00000000000E+00 0.  1.
         22    1    1    2    0    0  0.37400893803E+03  0.93976473722E+03  0.87338226149E+03  0.13363521324E+04  0.00000000000E+00 0. -1.
<mgrwt>
<rscale>  0 0.22398847E+04</rscale>
<asrwt>0</asrwt>
<pdfrwt beam="1">  1        2 0.12432880E+00 0.22398847E+04</pdfrwt>
<pdfrwt beam="2">  1       -2 0.23877720E+00 0.22398847E+04</pdfrwt>
<totfact> 0.23332134E+00</totfact>
</mgrwt>
</event>
<event>
 6    1  0.1921882E-005  0.1935980E+04  0.7818608E-02  0.8637151E-01
          1   -1    0    0  501    0  0.00000000000E+00  0.00000000000E+00  0.13751331270E+04  0.13751331270E+04  0.00000000000E+00 0. -1.
         -1   -1    0    0    0  501 -0.00000000000E+00 -0.00000000000E+00 -0.68139210776E+03  0.68139210776E+03  0.00000000000E+00 0.  1.
         23    2    1    2    0    0 -0.46402357686E+03 -0.69995035881E+03 -0.15862890659E+03  0.85995393511E+03  0.95442421457E+02 0.  0.
         13    1    3    3    0    0 -0.23705245094E+03 -0.36340048280E+03 -0.13033790219E+03  0.45303614000E+03  0.00000000000E+00 0.  1.
        -13    1    3    3    0    0 -0.22697112593E+03 -0.33654987601E+03 -0.28291004396E+02  0.40691779511E+03  0.00000000000E+00 0. -1.
         22    1    1    2    0    0  0.46402357686E+03  0.69995035881E+03  0.85236992579E+03  0.11965712996E+04  0.00000000000E+00 0. -1.
<mgrwt>
<rscale>  0 0.19359802E+04</rscale>
<asrwt>0</asrwt>
<pdfrwt beam="1">  1        1 0.21155894E+00 0.19359802E+04</pdfrwt>
<pdfrwt beam="2">  1       -1 0.10482956E+00 0.19359802E+04</pdfrwt>
<totfact> 0.63764207E+00</totfact>
</mgrwt>
</event>
<event>
 6    1  0.1568961E-005  0.5314697E+04  0.7818608E-02  0.7781715E-01
          2   -1    0    0  501    0  0.00000000000E+00  0.00000000000E+00  0.27595378518E+04  0.27595378518E+04  0.00000000000E+00 0.  1.
         -2   -1    0    0    0  501 -0.00000000000E+00 -0.00000000000E+00 -0.25589433470E+04  0.25589433470E+04  0.00000000000E+00 0. -1.
         23    2    1    2    0    0 -0.37816866472E+03  0.25574704642E+04 -0.51136135887E+03  0.26369615055E+04  0.91699663454E+02 0.  0.
         11    1    3    3    0    0 -0.17677123431E+03  0.13678552375E+04 -0.31164955599E+03  0.14140019327E+04  0.00000000000E+00 0. -1.
        -11    1    3    3    0    0 -0.20139743041E+03  0.11896152267E+04 -0.19971180288E+03  0.12229595728E+04  0.00000000000E+00 0.  1.
         22    1    1    2    0    0  0.37816866472E+03 -0.25574704642E+04  0.71195586367E+03  0.26815196934E+04  0.00000000000E+00 0. -1.
<mgrwt>
<rscale>  0 0.53146970E+04</rscale>
<asrwt>0</asrwt>
<pdfrwt beam="1">  1        2 0.42454428E+00 0.53146970E+04</pdfrwt>
<pdfrwt beam="2">  1       -2 0.39368359E+00 0.53146970E+04</pdfrwt>
<totfact> 0.14186962E-02</totfact>
</mgrwt>
</event>
<event>
 6    1  0.1568961E-005  0.1785889E+04  0.7818608E-02  0.8713840E-01
         -1   -1    0    0    0  501 -0.00000000000E+00  0.00000000000E+00  0.94191362821E+03  0.94191362821E+03  0.00000000000E+00 0.  1.
          1   -1    0    0  501    0  0.00000000000E+00 -0.00000000000E+00 -0.84652111100E+03  0.84652111100E+03  0.00000000000E+00 0. -1.
         23    2    1    2    0    0 -0.46914309992E+03  0.62617499725E+03 -0.37835204868E+03  0.87376305544E+03  0.90117861266E+02 0.  0.
         13    1    3    3    0    0 -0.19756193614E+03  0.27367770712E+03 -0.11446079895E+03  0.35641475907E+03  0.00000000000E+00 0. -1.
        -13    1    3    3    0    0 -0.27158116379E+03  0.35249729013E+03 -0.26389124973E+03  0.51734829637E+03  0.00000000000E+00 0.  1.
         22    1    1    2    0    0  0.46914309992E+03 -0.62617499725E+03  0.47374456588E+03  0.91467168377E+03  0.00000000000E+00 0.  1.
<mgrwt>
<rscale>  0 0.17858889E+04</rscale>
<asrwt>0</asrwt>
<pdfrwt beam="1">  1        1 0.13023402E+00 0.17858889E+04</pdfrwt>
<pdfrwt beam="2">  1       -1 0.14490979E+00 0.17858889E+04</pdfrwt>
<totfact> 0.72913999E+00</totfact>
</mgrwt>
</event>
<event>
 6    1  0.1568961E-005  0.3104355E+04  0.7818608E-02  0.8214544E-01
         -2   -1    0    0    0  501 -0.00000000000E+00  0.00000000000E+00  0.77060401494E+03  0.77060401494E+03  0.00000000000E+00 0.  1.
          2   -1    0    0  501    0  0.00000000000E+00 -0.00000000000E+00 -0.31264497021E+04  0.31264497021E+04  0.00000000000E+00 0. -1.
         23    2    1    2    0    0  0.15198653277E+04 -0.27221487132E+03 -0.13609795945E+04  0.20602494018E+04  0.90942785874E+02 0.  0.
         11    1    3    3    0    0  0.84420368222E+03 -0.10643286738E+03 -0.76239967276E+03  0.11424802289E+04  0.00000000000E+00 0. -1.
        -11    1    3    3    0    0  0.67566164545E+03 -0.16578200393E+03 -0.59857992177E+03  0.91776917289E+03  0.00000000000E+00 0.  1.
         22    1    1    2    0    0 -0.15198653277E+04  0.27221487132E+03 -0.99486609268E+03  0.18368043153E+04  0.00000000000E+00 0.  1.
<mgrwt>
<rscale>  0 0.31043548E+04</rscale>
<asrwt>0</asrwt>
<pdfrwt beam="1">  1        2 0.48099225E+00 0.31043548E+04</pdfrwt>
<pdfrwt beam="2">  1       -2 0.11855447E+00 0.31043548E+04</pdfrwt>
<totfact> 0.67162039E-01</totfact>
</mgrwt>
</event>
<event>
 6    1  0.1568961E-005  0.3015276E+04  0.7818608E-02  0.8239382E-01
          1   -1    0    0  501    0  0.00000000000E+00  0.00000000000E+00  0.30146559909E+04  0.30146559909E+04  0.00000000000E+00 0. -1.
         -1   -1    0    0    0  501 -0.00000000000E+00 -0.00000000000E+00 -0.75397382359E+03  0.75397382359E+03  0.00000000000E+00 0.  1.
         23    2    1    2    0    0 -0.44508462012E+01 -0.82815627055E+03  0.27041164284E+04  0.28292169327E+04  0.79750709994E+02 0.  0.
         11    1    3    3    0    0  0.66684903199E+01 -0.18397829412E+03  0.49758727129E+03  0.53055214072E+03  0.00000000000E+00 0. -1.
        -11    1    3    3    0    0 -0.11119336521E+02 -0.64417797643E+03  0.22065291571E+04  0.22986647920E+04  0.00000000000E+00 0.  1.
         22    1    1    2    0    0  0.44508462012E+01  0.82815627055E+03 -0.44343426108E+03  0.93941288174E+03  0.00000000000E+00 0.  1.
<mgrwt>
<rscale>  0 0.30152756E+04</rscale>
<asrwt>0</asrwt>
<pdfrwt beam="1">  1        1 0.46379322E+00 0.30152756E+04</pdfrwt>
<pdfrwt beam="2">  1       -1 0.11599597E+00 0.30152756E+04</pdfrwt>
<totfact> 0.33298582E-01</totfact>
</mgrwt>
</event>
<event>
 6    1  0.1568961E-005  0.2042363E+04  0.7818608E-02  0.8587067E-01
          2   -1    0    0  501    0  0.00000000000E+00  0.00000000000E+00  0.15497884750E+04  0.15497884750E+04  0.00000000000E+00 0. -1.
         -2   -1    0    0    0  501 -0.00000000000E+00 -0.00000000000E+00 -0.67287360991E+03  0.67287360991E+03  0.00000000000E+00 0.  1.
         23    2    1    2    0    0  0.64232272155E+03  0.44363403442E+03 -0.27308035100E+03  0.83274171591E+03  0.97448715749E+02 0.  0.
         11    1    3    3    0    0  0.38283623462E+03  0.22720098351E+03 -0.11557970398E+03  0.45993753643E+03  0.00000000000E+00 0. -1.
        -11    1    3    3    0    0  0.25948648693E+03  0.21643305091E+03 -0.15750064703E+03  0.37280417948E+03  0.00000000000E+00 0.  1.
         22    1    1    2    0    0 -0.64232272155E+03 -0.44363403442E+03  0.11499952161E+04  0.13899203690E+04  0.00000000000E+00 0. -1.
<mgrwt>
<rscale>  0 0.20423631E+04</rscale>
<asrwt>0</asrwt>
<pdfrwt beam="1">  1        2 0.23842899E+00 0.20423631E+04</pdfrwt>
<pdfrwt beam="2">  1       -2 0.10351902E+00 0.20423631E+04</pdfrwt>
<totfact> 0.83803600E+00</totfact>
</mgrwt>
</event>
<event>
 6    1  0.1568961E-005  0.1659359E+04  0.7818608E-02  0.8784889E-01
          1   -1    0    0  501    0  0.00000000000E+00  0.00000000000E+00  0.49077141391E+03  0.49077141391E+03  0.00000000000E+00 0. -1.
         -1   -1    0    0    0  501 -0.00000000000E+00 -0.00000000000E+00 -0.14026240973E+04  0.14026240973E+04  0.00000000000E+00 0.  1.
         23    2    1    2    0    0  0.75228171136E+03  0.14165457478E+03 -0.99607572349E+02  0.77727010955E+03  0.90737880355E+02 0.  0.
         13    1    3    3    0    0  0.48905035762E+03  0.77345007915E+02 -0.22940612895E+02  0.49565993812E+03  0.00000000000E+00 0. -1.
        -13    1    3    3    0    0  0.26323135375E+03  0.64309566860E+02 -0.76666959454E+02  0.28161017144E+03  0.00000000000E+00 0.  1.
         22    1    1    2    0    0 -0.75228171136E+03 -0.14165457478E+03 -0.81224511099E+03  0.11161254016E+04  0.00000000000E+00 0.  1.
<mgrwt>
<rscale>  0 0.16593587E+04</rscale>
<asrwt>0</asrwt>
<pdfrwt beam="1">  1        1 0.75503295E-01 0.16593587E+04</pdfrwt>
<pdfrwt beam="2">  1       -1 0.21578832E+00 0.16593587E+04</pdfrwt>
<totfact> 0.51001103E+00</totfact>
</mgrwt>
</event>
<event>
 6    1  0.1568961E-005  0.1110534E+04  0.7818608E-02  0.9194985E-01
         -3   -1    0    0    0  501 -0.00000000000E+00  0.00000000000E+00  0.74568708553E+03  0.74568708553E+03  0.00000000000E+00 0.  1.
          3   -1    0    0  501    0  0.00000000000E+00 -0.00000000000E+00 -0.41347300384E+03  0.41347300384E+03  0.00000000000E+00 0. -1.
         23    2    1    2    0    0 -0.11148341888E+03 -0.19829847943E+03 -0.35708020478E+03  0.43329684262E+03  0.92135994858E+02 0.  0.
         13    1    3    3    0    0 -0.28149152646E+02 -0.91561384995E+02 -0.79639766389E+02  0.12457268724E+03  0.00000000000E+00 0.  1.
        -13    1    3    3    0    0 -0.83334266238E+02 -0.10673709444E+03 -0.27744043839E+03  0.30872415537E+03  0.00000000000E+00 0. -1.
         22    1    1    2    0    0  0.11148341888E+03  0.19829847943E+03  0.68929428646E+03  0.72586324675E+03  0.00000000000E+00 0.  1.
<mgrwt>
<rscale>  0 0.11105341E+04</rscale>
<asrwt>0</asrwt>
<pdfrwt beam="1">  1        3 0.63611231E-01 0.11105341E+04</pdfrwt>
<pdfrwt beam="2">  1       -3 0.11472109E+00 0.11105341E+04</pdfrwt>
<totfact> 0.39328375E+00</totfact>
</mgrwt>
</event>
<event>
 6    1  0.1568961E-005  0.2900660E+04  0.7818608E-02  0.8272681E-01
         -2   -1    0    0    0  501 -0.00000000000E+00  0.00000000000E+00  0.99964861792E+03  0.99964861792E+03  0.00000000000E+00 0.  1.
          2   -1    0    0  501    0  0.00000000000E+00 -0.00000000000E+00 -0.21041969704E+04  0.21041969704E+04  0.00000000000E+00 0. -1.
         23    2    1    2    0    0  0.38656288185E+03 -0.28460888138E+03  0.90987461911E+03  0.10330165308E+04  0.93905555834E+02 0.  0.
         11    1    3    3    0    0  0.31385735028E+03 -0.23705639687E+03  0.65815381023E+03  0.76672590248E+03  0.00000000000E+00 0. -1.
        -11    1    3    3    0    0  0.72705531569E+02 -0.47552484516E+02  0.25172080889E+03  0.26629062832E+03  0.00000000000E+00 0.  1.
         22    1    1    2    0    0 -0.38656288185E+03  0.28460888138E+03 -0.20144229716E+04  0.20708290575E+04  0.00000000000E+00 0. -1.
<mgrwt>
<rscale>  0 0.29006603E+04</rscale>
<asrwt>0</asrwt>
<pdfrwt beam="1">  1        2 0.32372260E+00 0.29006603E+04</pdfrwt>
<pdfrwt beam="2">  1       -2 0.15379210E+00 0.29006603E+04</pdfrwt>
<totfact> 0.14139580E+00</totfact>
</mgrwt>
</event>
<event>
 6    1  0.1568961E-005  0.3254007E+04  0.7818608E-02  0.8174698E-01
          1   -1    0    0  501    0  0.00000000000E+00  0.00000000000E+00  0.14883678663E+04  0.14883678663E+04  0.00000000000E+00 0. -1.
         -1   -1    0    0    0  501 -0.00000000000E+00 -0.00000000000E+00 -0.17785523940E+04  0.17785523940E+04  0.00000000000E+00 0.  1.
         23    2    1    2    0    0  0.11152618088E+04  0.11522949797E+04  0.12280395264E+03  0.16109757844E+04  0.92571835172E+02 0.  0.
         13    1    3    3    0    0  0.64498596396E+03  0.68688663781E+03  0.28695634461E+02  0.94267894129E+03  0.00000000000E+00 0.  1.
        -13    1    3    3    0    0  0.47027584481E+03  0.46540834191E+03  0.94108318176E+02  0.66829684309E+03  0.00000000000E+00 0. -1.
         22    1    1    2    0    0 -0.11152618088E+04 -0.11522949797E+04 -0.41298848031E+03  0.16559444759E+04  0.00000000000E+00 0.  1.
<mgrwt>
<rscale>  0 0.32540069E+04</rscale>
<asrwt>0</asrwt>
<pdfrwt beam="1">  1        1 0.22897967E+00 0.32540069E+04</pdfrwt>
<pdfrwt beam="2">  1       -1 0.27362344E+00 0.32540069E+04</pdfrwt>
<totfact> 0.27166216E-01</totfact>
</mgrwt>
</event>
<event>
 6    1  0.1568961E-005  0.1929374E+04  0.7818608E-02  0.8640372E-01
          1   -1    0    0  501    0  0.00000000000E+00  0.00000000000E+00  0.13675812311E+04  0.13675812311E+04  0.00000000000E+00 0. -1.
         -1   -1    0    0    0  501 -0.00000000000E+00 -0.00000000000E+00 -0.68048671003E+03  0.68048671003E+03  0.00000000000E+00 0.  1.
         23    2    1    2    0    0 -0.36698667926E+03 -0.41206549589E+01  0.12889124572E+04  0.13431700543E+04  0.90079241473E+02 0.  0.
         11    1    3    3    0    0 -0.16661621764E+03 -0.80282875401E+01  0.74671773296E+03  0.76512272879E+03  0.00000000000E+00 0.  1.
        -11    1    3    3    0    0 -0.20037046162E+03  0.39076325812E+01  0.54219472425E+03  0.57804732547E+03  0.00000000000E+00 0. -1.
         22    1    1    2    0    0  0.36698667926E+03  0.41206549589E+01 -0.60181793619E+03  0.70489788684E+03  0.00000000000E+00 0.  1.
<mgrwt>
<rscale>  0 0.19293738E+04</rscale>
<asrwt>0</asrwt>
<pdfrwt beam="1">  1        1 0.21039711E+00 0.19293738E+04</pdfrwt>
<pdfrwt beam="2">  1       -1 0.10469026E+00 0.19293738E+04</pdfrwt>
<totfact> 0.64789452E+00</totfact>
</mgrwt>
</event>
<event>
 6    1  0.1568961E-005  0.2688546E+04  0.7818608E-02  0.8338731E-01
          2   -1    0    0  501    0  0.00000000000E+00  0.00000000000E+00  0.77326944012E+03  0.77326944012E+03  0.00000000000E+00 0.  1.
         -2   -1    0    0    0  501 -0.00000000000E+00 -0.00000000000E+00 -0.23369220778E+04  0.23369220778E+04  0.00000000000E+00 0. -1.
         23    2    1    2    0    0 -0.45214884842E+03 -0.75259990321E+03 -0.19580844468E+04  0.21476835193E+04  0.87204373119E+02 0.  0.
         11    1    3    3    0    0 -0.62433624346E+01 -0.47767394122E+02 -0.11389248893E+03  0.12366164543E+03  0.00000000000E+00 0.  1.
        -11    1    3    3    0    0 -0.44590548599E+03 -0.70483250908E+03 -0.18441919579E+04  0.20240218738E+04  0.00000000000E+00 0. -1.
         22    1    1    2    0    0  0.45214884842E+03  0.75259990321E+03  0.39443180912E+03  0.96250799866E+03  0.00000000000E+00 0.  1.
<mgrwt>
<rscale>  0 0.26885464E+04</rscale>
<asrwt>0</asrwt>
<pdfrwt beam="1">  1        2 0.11896453E+00 0.26885464E+04</pdfrwt>
<pdfrwt beam="2">  1       -2 0.35952647E+00 0.26885464E+04</pdfrwt>
<totfact> 0.42847581E-01</totfact>
</mgrwt>
</event>
<event>
 6    1  0.1568961E-005  0.1238654E+04  0.7818608E-02  0.9079680E-01
          1   -1    0    0  501    0  0.00000000000E+00  0.00000000000E+00  0.17422873677E+04  0.17422873677E+04  0.00000000000E+00 0. -1.
         -1   -1    0    0    0  501 -0.00000000000E+00 -0.00000000000E+00 -0.22015063885E+03  0.22015063885E+03  0.00000000000E+00 0.  1.
         23    2    1    2    0    0  0.47989021787E+02  0.16125314478E+03  0.17038368944E+04  0.17148082970E+04  0.95926065514E+02 0.  0.
         13    1    3    3    0    0  0.69756478691E+02  0.14027430105E+03  0.15589017430E+04  0.15667538065E+04  0.00000000000E+00 0.  1.
        -13    1    3    3    0    0 -0.21767456903E+02  0.20978843731E+02  0.14493515134E+03  0.14805449051E+03  0.00000000000E+00 0. -1.
         22    1    1    2    0    0 -0.47989021787E+02 -0.16125314478E+03 -0.18170016549E+03  0.24762970955E+03  0.00000000000E+00 0.  1.
<mgrwt>
<rscale>  0 0.12386536E+04</rscale>
<asrwt>0</asrwt>
<pdfrwt beam="1">  1        1 0.26804420E+00 0.12386536E+04</pdfrwt>
<pdfrwt beam="2">  1       -1 0.33869330E-01 0.12386536E+04</pdfrwt>
<totfact> 0.36239907E+01</totfact>
</mgrwt>
</event>
<event>
 6    1  0.1568961E-005  0.4699870E+04  0.7818608E-02  0.7876550E-01
          1   -1    0    0  501    0  0.00000000000E+00  0.00000000000E+00  0.30555510601E+04  0.30555510601E+04  0.00000000000E+00 0. -1.
         -1   -1    0    0    0  501 -0.00000000000E+00 -0.00000000000E+00 -0.18072666477E+04  0.18072666477E+04  0.00000000000E+00 0.  1.
         23    2    1    2    0    0  0.19810083036E+04 -0.12546847497E+04  0.76862398988E+03  0.24693470392E+04  0.90907878601E+02 0.  0.
         13    1    3    3    0    0  0.13009562371E+04 -0.79959171563E+03  0.46020005443E+03  0.15948724503E+04  0.00000000000E+00 0. -1.
        -13    1    3    3    0    0  0.68005206650E+03 -0.45509303404E+03  0.30842393545E+03  0.87447458896E+03  0.00000000000E+00 0.  1.
         22    1    1    2    0    0 -0.19810083036E+04  0.12546847497E+04  0.47966042250E+03  0.23934706685E+04  0.00000000000E+00 0. -1.
<mgrwt>
<rscale>  0 0.46998704E+04</rscale>
<asrwt>0</asrwt>
<pdfrwt beam="1">  1        1 0.47008478E+00 0.46998704E+04</pdfrwt>
<pdfrwt beam="2">  1       -1 0.27804102E+00 0.46998704E+04</pdfrwt>
<totfact> 0.18435273E-02</totfact>
</mgrwt>
</event>
<event>
 6    1  0.1568961E-005  0.4155365E+04  0.7818608E-02  0.7973917E-01
          1   -1    0    0  501    0  0.00000000000E+00  0.00000000000E+00  0.26004483726E+04  0.26004483726E+04  0.00000000000E+00 0. -1.
         -1   -1    0    0    0  501 -0.00000000000E+00 -0.00000000000E+00 -0.16600081356E+04  0.16600081356E+04  0.00000000000E+00 0.  1.
         23    2    1    2    0    0  0.16013379285E+03 -0.58497704698E+03  0.25067630069E+04  0.25808113085E+04  0.94261659038E+02 0.  0.
         11    1    3    3    0    0  0.60575011167E+02 -0.87410704688E+02  0.43132380797E+03  0.44424114014E+03  0.00000000000E+00 0. -1.
        -11    1    3    3    0    0  0.99558781679E+02 -0.49756634230E+03  0.20754391989E+04  0.21365701684E+04  0.00000000000E+00 0.  1.
         22    1    1    2    0    0 -0.16013379285E+03  0.58497704698E+03 -0.15663227699E+04  0.16796451996E+04  0.00000000000E+00 0.  1.
<mgrwt>
<rscale>  0 0.41553654E+04</rscale>
<asrwt>0</asrwt>
<pdfrwt beam="1">  1        1 0.40006898E+00 0.41553654E+04</pdfrwt>
<pdfrwt beam="2">  1       -1 0.25538587E+00 0.41553654E+04</pdfrwt>
<totfact> 0.57291465E-02</totfact>
</mgrwt>
</event>
<event>
 6    1  0.1764096E-005  0.2434983E+04  0.7818608E-02  0.8426521E-01
          1   -1    0    0  501    0  0.00000000000E+00  0.00000000000E+00  0.14591741857E+04  0.14591741857E+04  0.00000000000E+00 0. -1.
         -1   -1    0    0    0  501 -0.00000000000E+00 -0.00000000000E+00 -0.10158390354E+04  0.10158390354E+04  0.00000000000E+00 0.  1.
         23    2    1    2    0    0 -0.67440947556E+03 -0.37611351223E+03 -0.73260952904E+03  0.10681957477E+04  0.89643284948E+02 0.  0.
         11    1    3    3    0    0 -0.39030384348E+03 -0.26415467792E+03 -0.46691673595E+03  0.66341994424E+03  0.00000000000E+00 0.  1.
        -11    1    3    3    0    0 -0.28410563209E+03 -0.11195883431E+03 -0.26569279308E+03  0.40477580345E+03  0.00000000000E+00 0. -1.
         22    1    1    2    0    0  0.67440947556E+03  0.37611351223E+03  0.11759446793E+04  0.14068174735E+04  0.00000000000E+00 0. -1.
<mgrwt>
<rscale>  0 0.24349834E+04</rscale>
<asrwt>0</asrwt>
<pdfrwt beam="1">  1        1 0.22448834E+00 0.24349834E+04</pdfrwt>
<pdfrwt beam="2">  1       -1 0.15628293E+00 0.24349834E+04</pdfrwt>
<totfact> 0.19465379E+00</totfact>
</mgrwt>
</event>
<event>
 6    1  0.1568961E-005  0.1316252E+04  0.7818608E-02  0.9016776E-01
          1   -1    0    0  501    0  0.00000000000E+00  0.00000000000E+00  0.48456380791E+03  0.48456380791E+03  0.00000000000E+00 0. -1.
         -1   -1    0    0    0  501 -0.00000000000E+00 -0.00000000000E+00 -0.89385487380E+03  0.89385487380E+03  0.00000000000E+00 0.  1.
         23    2    1    2    0    0  0.51987695360E+03  0.37309213301E+03 -0.35344062163E+03  0.73608772439E+03  0.86226900506E+02 0.  0.
         13    1    3    3    0    0  0.15825165330E+03  0.15615772107E+03 -0.97260345211E+02  0.24266931074E+03  0.00000000000E+00 0. -1.
        -13    1    3    3    0    0  0.36162530030E+03  0.21693441194E+03 -0.25618027642E+03  0.49341841365E+03  0.00000000000E+00 0.  1.
         22    1    1    2    0    0 -0.51987695360E+03 -0.37309213301E+03 -0.55850444249E+02  0.64233095732E+03  0.00000000000E+00 0.  1.
<mgrwt>
<rscale>  0 0.13162518E+04</rscale>
<asrwt>0</asrwt>
<pdfrwt beam="1">  1        1 0.74548279E-01 0.13162518E+04</pdfrwt>
<pdfrwt beam="2">  1       -1 0.13751613E+00 0.13162518E+04</pdfrwt>
<totfact> 0.19951406E+01</totfact>
</mgrwt>
</event>
<event>
 6    1  0.1568961E-005  0.8905316E+03  0.7818608E-02  0.9437495E-01
         -2   -1    0    0    0  501 -0.00000000000E+00  0.00000000000E+00  0.79595395050E+02  0.79595395050E+02  0.00000000000E+00 0. -1.
          2   -1    0    0  501    0  0.00000000000E+00 -0.00000000000E+00 -0.24908679966E+04  0.24908679966E+04  0.00000000000E+00 0.  1.
         23    2    1    2    0    0 -0.28262750796E+03  0.14340176387E+02 -0.21927582385E+04  0.22129267142E+04  0.93658959664E+02 0.  0.
         13    1    3    3    0    0 -0.16465921349E+03  0.24835191927E+02 -0.15859883640E+04  0.15947064100E+04  0.00000000000E+00 0. -1.
        -13    1    3    3    0    0 -0.11796829447E+03 -0.10495015540E+02 -0.60676987449E+03  0.61822030413E+03  0.00000000000E+00 0.  1.
         22    1    1    2    0    0  0.28262750796E+03 -0.14340176387E+02 -0.21851436307E+03  0.35753667753E+03  0.00000000000E+00 0.  1.
<mgrwt>
<rscale>  0 0.89053158E+03</rscale>
<asrwt>0</asrwt>
<pdfrwt beam="1">  1        2 0.38321048E+00 0.89053158E+03</pdfrwt>
<pdfrwt beam="2">  1       -2 0.12245445E-01 0.89053158E+03</pdfrwt>
<totfact> 0.17754425E+02</totfact>
</mgrwt>
</event>
<event>
 6    1  0.1568961E-005  0.6589024E+04  0.7818608E-02  0.7621371E-01
         -1   -1    0    0    0  501 -0.00000000000E+00  0.00000000000E+00  0.22930140826E+04  0.22930140826E+04  0.00000000000E+00 0.  1.
          1   -1    0    0  501    0  0.00000000000E+00 -0.00000000000E+00 -0.47334251349E+04  0.47334251349E+04  0.00000000000E+00 0. -1.
         23    2    1    2    0    0  0.23881191860E+03  0.16221708863E+04  0.18259774255E+04  0.24558221737E+04  0.91648641601E+02 0.  0.
         13    1    3    3    0    0  0.91270901073E+02  0.93120604883E+03  0.10373710353E+04  0.13970016992E+04  0.00000000000E+00 0. -1.
        -13    1    3    3    0    0  0.14754101752E+03  0.69096483750E+03  0.78860639017E+03  0.10588204745E+04  0.00000000000E+00 0.  1.
         22    1    1    2    0    0 -0.23881191860E+03 -0.16221708863E+04 -0.42663884779E+04  0.45706170438E+04  0.00000000000E+00 0. -1.
<mgrwt>
<rscale>  0 0.65890244E+04</rscale>
<asrwt>0</asrwt>
<pdfrwt beam="1">  1        1 0.72821925E+00 0.65890244E+04</pdfrwt>
<pdfrwt beam="2">  1       -1 0.35277140E+00 0.65890244E+04</pdfrwt>
<totfact> 0.16971386E-04</totfact>
</mgrwt>
</event>
<event>
 6    1  0.1568961E-005  0.2619255E+04  0.7818608E-02  0.8361690E-01
         -1   -1    0    0    0  501 -0.00000000000E+00  0.00000000000E+00  0.12360693052E+04  0.12360693052E+04  0.00000000000E+00 0.  1.
          1   -1    0    0  501    0  0.00000000000E+00 -0.00000000000E+00 -0.13875629242E+04  0.13875629242E+04  0.00000000000E+00 0. -1.
         23    2    1    2    0    0  0.50253584825E+03 -0.76433147468E+03 -0.10123130111E+04  0.13675450876E+04  0.93043281523E+02 0.  0.
         11    1    3    3    0    0  0.61033907011E+02 -0.12667376782E+03 -0.11622605403E+03  0.18242773061E+03  0.00000000000E+00 0.  1.
        -11    1    3    3    0    0  0.44150194124E+03 -0.63765770685E+03 -0.89608695704E+03  0.11851173570E+04  0.00000000000E+00 0. -1.
         22    1    1    2    0    0 -0.50253584825E+03  0.76433147468E+03  0.86081939211E+03  0.12560871418E+04  0.00000000000E+00 0.  1.
<mgrwt>
<rscale>  0 0.26192548E+04</rscale>
<asrwt>0</asrwt>
<pdfrwt beam="1">  1        1 0.21347122E+00 0.26192548E+04</pdfrwt>
<pdfrwt beam="2">  1       -1 0.19016451E+00 0.26192548E+04</pdfrwt>
<totfact> 0.12147929E+00</totfact>
</mgrwt>
</event>
<event>
 6    1  0.1568961E-005  0.2813871E+04  0.7818608E-02  0.8298975E-01
         -1   -1    0    0    0  501 -0.00000000000E+00  0.00000000000E+00  0.16197852524E+04  0.16197852524E+04  0.00000000000E+00 0.  1.
          1   -1    0    0  501    0  0.00000000000E+00 -0.00000000000E+00 -0.12220557525E+04  0.12220557525E+04  0.00000000000E+00 0. -1.
         23    2    1    2    0    0  0.35388384637E+03 -0.17888691526E+02  0.15727583232E+04  0.16145486528E+04  0.87434702221E+02 0.  0.
         13    1    3    3    0    0  0.21488475035E+03 -0.39467833506E+02  0.81107435762E+03  0.83998498761E+03  0.00000000000E+00 0.  1.
        -13    1    3    3    0    0  0.13899909602E+03  0.21579141980E+02  0.76168396558E+03  0.77456366523E+03  0.00000000000E+00 0. -1.
         22    1    1    2    0    0 -0.35388384637E+03  0.17888691526E+02 -0.11750288232E+04  0.12272923521E+04  0.00000000000E+00 0. -1.
<mgrwt>
<rscale>  0 0.28138713E+04</rscale>
<asrwt>0</asrwt>
<pdfrwt beam="1">  1        1 0.18800858E+00 0.28138713E+04</pdfrwt>
<pdfrwt beam="2">  1       -1 0.24919773E+00 0.28138713E+04</pdfrwt>
<totfact> 0.62826618E-01</totfact>
</mgrwt>
</event>
<event>
 6    1  0.1568961E-005  0.4835726E+03  0.7818608E-02  0.1018158E+00
         -2   -1    0    0    0  501 -0.00000000000E+00  0.00000000000E+00  0.75898906186E+03  0.75898906186E+03  0.00000000000E+00 0. -1.
          2   -1    0    0  501    0  0.00000000000E+00 -0.00000000000E+00 -0.77024317840E+02  0.77024317840E+02  0.00000000000E+00 0.  1.
         23    2    1    2    0    0 -0.21317223336E+02 -0.22428942799E+03  0.26436514024E+03  0.36151406400E+03  0.10021636385E+03 0.  0.
         13    1    3    3    0    0  0.99954040847E+00 -0.24989547106E+02 -0.51878173026E+01  0.25541926199E+02  0.00000000000E+00 0.  1.
        -13    1    3    3    0    0 -0.22316763744E+02 -0.19929988088E+03  0.26955295754E+03  0.33597213780E+03  0.00000000000E+00 0. -1.
         22    1    1    2    0    0  0.21317223336E+02  0.22428942799E+03  0.41759960379E+03  0.47449931570E+03  0.00000000000E+00 0. -1.
<mgrwt>
<rscale>  0 0.48357260E+03</rscale>
<asrwt>0</asrwt>
<pdfrwt beam="1">  1        2 0.11849896E-01 0.48357260E+03</pdfrwt>
<pdfrwt beam="2">  1       -2 0.11676754E+00 0.48357260E+03</pdfrwt>
<totfact> 0.30861023E+02</totfact>
</mgrwt>
</event>
<event>
 6    1  0.1568961E-005  0.1860649E+04  0.7818608E-02  0.8674696E-01
          2   -1    0    0  501    0  0.00000000000E+00  0.00000000000E+00  0.18227373167E+04  0.18227373167E+04  0.00000000000E+00 0. -1.
         -2   -1    0    0    0  501 -0.00000000000E+00 -0.00000000000E+00 -0.47483746465E+03  0.47483746465E+03  0.00000000000E+00 0.  1.
         23    2    1    2    0    0 -0.95374342223E+02 -0.91714521086E+03  0.54472914613E+03  0.10747359589E+04  0.89866209748E+02 0.  0.
         13    1    3    3    0    0 -0.44817404890E+02 -0.23532422225E+03  0.10300621059E+03  0.26076113357E+03  0.00000000000E+00 0. -1.
        -13    1    3    3    0    0 -0.50556937333E+02 -0.68182098861E+03  0.44172293554E+03  0.81397482529E+03  0.00000000000E+00 0.  1.
         22    1    1    2    0    0  0.95374342223E+02  0.91714521086E+03  0.80317070597E+03  0.12228388225E+04  0.00000000000E+00 0.  1.
<mgrwt>
<rscale>  0 0.18606493E+04</rscale>
<asrwt>0</asrwt>
<pdfrwt beam="1">  1        2 0.28042112E+00 0.18606493E+04</pdfrwt>
<pdfrwt beam="2">  1       -2 0.73051918E-01 0.18606493E+04</pdfrwt>
<totfact> 0.13326978E+01</totfact>
</mgrwt>
</event>
<event>
 6    1  0.1568961E-005  0.4193474E+04  0.7818608E-02  0.7966615E-01
          1   -1    0    0  501    0  0.00000000000E+00  0.00000000000E+00  0.19515436031E+04  0.19515436031E+04  0.00000000000E+00 0. -1.
         -1   -1    0    0    0  501 -0.00000000000E+00 -0.00000000000E+00 -0.22527322491E+04  0.22527322491E+04  0.00000000000E+00 0.  1.
         23    2    1    2    0    0  0.13598410503E+04 -0.37603160710E+03  0.14030709936E+04  0.19917957120E+04  0.89858185562E+02 0.  0.
         11    1    3    3    0    0  0.60675357231E+03 -0.15043776666E+03  0.56345820069E+03  0.84158574315E+03  0.00000000000E+00 0. -1.
        -11    1    3    3    0    0  0.75308747801E+03 -0.22559384044E+03  0.83961279293E+03  0.11502099688E+04  0.00000000000E+00 0.  1.
         22    1    1    2    0    0 -0.13598410503E+04  0.37603160710E+03 -0.17042596396E+04  0.22124801402E+04  0.00000000000E+00 0.  1.
<mgrwt>
<rscale>  0 0.41934736E+04</rscale>
<asrwt>0</asrwt>
<pdfrwt beam="1">  1        1 0.30023748E+00 0.41934736E+04</pdfrwt>
<pdfrwt beam="2">  1       -1 0.34657419E+00 0.41934736E+04</pdfrwt>
<totfact> 0.40532699E-02</totfact>
</mgrwt>
</event>
<event>
 6    1  0.1568961E-005  0.2857781E+04  0.7818608E-02  0.8285551E-01
          3   -1    0    0  501    0  0.00000000000E+00  0.00000000000E+00  0.18041269334E+04  0.18041269334E+04  0.00000000000E+00 0. -1.
         -3   -1    0    0    0  501 -0.00000000000E+00 -0.00000000000E+00 -0.11316984498E+04  0.11316984498E+04  0.00000000000E+00 0.  1.
         23    2    1    2    0    0  0.10484683521E+04  0.90575545190E+03 -0.15633580349E+02  0.13888579538E+04  0.94885104787E+02 0.  0.
         13    1    3    3    0    0  0.21159374127E+03  0.13773222683E+03  0.10331614003E+02  0.25268324024E+03  0.00000000000E+00 0. -1.
        -13    1    3    3    0    0  0.83687461079E+03  0.76802322507E+03 -0.25965194352E+02  0.11361747136E+04  0.00000000000E+00 0.  1.
         22    1    1    2    0    0 -0.10484683521E+04 -0.90575545190E+03  0.68806206387E+03  0.15469674294E+04  0.00000000000E+00 0.  1.
<mgrwt>
<rscale>  0 0.28577807E+04</rscale>
<asrwt>0</asrwt>
<pdfrwt beam="1">  1        3 0.27755799E+00 0.28577807E+04</pdfrwt>
<pdfrwt beam="2">  1       -3 0.17410745E+00 0.28577807E+04</pdfrwt>
<totfact> 0.25127469E-02</totfact>
</mgrwt>
</event>
<event>
 6    1  0.1568961E-005  0.2185500E+04  0.7818608E-02  0.8524488E-01
          1   -1    0    0  501    0  0.00000000000E+00  0.00000000000E+00  0.10206468005E+04  0.10206468005E+04  0.00000000000E+00 0. -1.
         -1   -1    0    0    0  501 -0.00000000000E+00 -0.00000000000E+00 -0.11699467091E+04  0.11699467091E+04  0.00000000000E+00 0.  1.
         23    2    1    2    0    0  0.79430220281E+03 -0.64774367206E+03  0.29951270999E+03  0.10717009229E+04  0.91362742067E+02 0.  0.
         11    1    3    3    0    0  0.45900681629E+02 -0.38806939798E+02 -0.40331038453E+01  0.60242153656E+02  0.00000000000E+00 0. -1.
        -11    1    3    3    0    0  0.74840152118E+03 -0.60893673226E+03  0.30354581383E+03  0.10114587693E+04  0.00000000000E+00 0.  1.
         22    1    1    2    0    0 -0.79430220281E+03  0.64774367206E+03 -0.44881261853E+03  0.11188925867E+04  0.00000000000E+00 0.  1.
<mgrwt>
<rscale>  0 0.21854998E+04</rscale>
<asrwt>0</asrwt>
<pdfrwt beam="1">  1        1 0.15702258E+00 0.21854998E+04</pdfrwt>
<pdfrwt beam="2">  1       -1 0.17999180E+00 0.21854998E+04</pdfrwt>
<totfact> 0.27703991E+00</totfact>
</mgrwt>
</event>
<event>
 6    1  0.1568961E-005  0.1898919E+04  0.7818608E-02  0.8655395E-01
          2   -1    0    0  501    0  0.00000000000E+00  0.00000000000E+00  0.29428636566E+04  0.29428636566E+04  0.00000000000E+00 0. -1.
         -2   -1    0    0    0  501 -0.00000000000E+00 -0.00000000000E+00 -0.30632526420E+03  0.30632526420E+03  0.00000000000E+00 0.  1.
         23    2    1    2    0    0 -0.54668138315E+03 -0.77254993245E+03  0.13917980783E+04  0.16855161985E+04  0.90382697298E+02 0.  0.
         11    1    3    3    0    0 -0.35690519730E+03 -0.56596079151E+03  0.94311204820E+03  0.11563534377E+04  0.00000000000E+00 0. -1.
        -11    1    3    3    0    0 -0.18977618584E+03 -0.20658914094E+03  0.44868603006E+03  0.52916276082E+03  0.00000000000E+00 0.  1.
         22    1    1    2    0    0  0.54668138315E+03  0.77254993245E+03  0.12447403141E+04  0.15636727223E+04  0.00000000000E+00 0.  1.
<mgrwt>
<rscale>  0 0.18989192E+04</rscale>
<asrwt>0</asrwt>
<pdfrwt beam="1">  1        2 0.45274824E+00 0.18989192E+04</pdfrwt>
<pdfrwt beam="2">  1       -2 0.47126966E-01 0.18989192E+04</pdfrwt>
<totfact> 0.75761938E+00</totfact>
</mgrwt>
</event>
<event>
 6    1  0.1568961E-005  0.2719039E+04  0.7818608E-02  0.8328854E-01
          1   -1    0    0  501    0  0.00000000000E+00  0.00000000000E+00  0.93830327564E+03  0.93830327564E+03  0.00000000000E+00 0. -1.
         -1   -1    0    0    0  501 -0.00000000000E+00 -0.00000000000E+00 -0.19698256568E+04  0.19698256568E+04  0.00000000000E+00 0.  1.
         23    2    1    2    0    0  0.92037425552E+03 -0.80179938331E+03 -0.11529169889E+04  0.16814636675E+04  0.90174610986E+02 0.  0.
         11    1    3    3    0    0  0.54468697730E+03 -0.43508672581E+03 -0.70315082560E+03  0.99015425352E+03  0.00000000000E+00 0.  1.
        -11    1    3    3    0    0  0.37568727822E+03 -0.36671265750E+03 -0.44976616332E+03  0.69130941398E+03  0.00000000000E+00 0. -1.
         22    1    1    2    0    0 -0.92037425552E+03  0.80179938331E+03  0.12139460780E+03  0.12266652649E+04  0.00000000000E+00 0. -1.
<mgrwt>
<rscale>  0 0.27190394E+04</rscale>
<asrwt>0</asrwt>
<pdfrwt beam="1">  1        1 0.14435435E+00 0.27190394E+04</pdfrwt>
<pdfrwt beam="2">  1       -1 0.30305009E+00 0.27190394E+04</pdfrwt>
<totfact> 0.46586652E-01</totfact>
</mgrwt>
</event>
<event>
 6    1  0.1568961E-005  0.1808725E+04  0.7818608E-02  0.8701673E-01
          1   -1    0    0  501    0  0.00000000000E+00  0.00000000000E+00  0.10774001335E+04  0.10774001335E+04  0.00000000000E+00 0. -1.
         -1   -1    0    0    0  501 -0.00000000000E+00 -0.00000000000E+00 -0.75911615754E+03  0.75911615754E+03  0.00000000000E+00 0.  1.
         23    2    1    2    0    0  0.60607226277E+03  0.35539478724E+03  0.73392700495E+03  0.10201902716E+04  0.92251283224E+02 0.  0.
         11    1    3    3    0    0  0.17039758448E+03  0.77455105883E+02  0.14568955906E+03  0.23719206952E+03  0.00000000000E+00 0.  1.
        -11    1    3    3    0    0  0.43567467829E+03  0.27793968136E+03  0.58823744589E+03  0.78299820212E+03  0.00000000000E+00 0. -1.
         22    1    1    2    0    0 -0.60607226277E+03 -0.35539478724E+03 -0.41564302895E+03  0.81632601944E+03  0.00000000000E+00 0.  1.
<mgrwt>
<rscale>  0 0.18087254E+04</rscale>
<asrwt>0</asrwt>
<pdfrwt beam="1">  1        1 0.16575387E+00 0.18087254E+04</pdfrwt>
<pdfrwt beam="2">  1       -1 0.11678710E+00 0.18087254E+04</pdfrwt>
<totfact> 0.82255648E+00</totfact>
</mgrwt>
</event>
<event>
 6    1  0.1568961E-005  0.2136635E+04  0.7818608E-02  0.8545275E-01
         -4   -1    0    0    0  501 -0.00000000000E+00  0.00000000000E+00  0.14898579903E+04  0.14898579903E+04  0.00000000000E+00 0. -1.
          4   -1    0    0  501    0  0.00000000000E+00 -0.00000000000E+00 -0.76604739200E+03  0.76604739200E+03  0.00000000000E+00 0.  1.
         23    2    1    2    0    0  0.39455503719E+03  0.28720951430E+03 -0.64024107639E+03  0.80718182217E+03  0.58914138082E+02 0.  0.
         13    1    3    3    0    0  0.28492405634E+03  0.17469207035E+03 -0.42333586370E+03  0.53936285636E+03  0.00000000000E+00 0. -1.
        -13    1    3    3    0    0  0.10963098084E+03  0.11251744395E+03 -0.21690521269E+03  0.26781896581E+03  0.00000000000E+00 0.  1.
         22    1    1    2    0    0 -0.39455503719E+03 -0.28720951430E+03  0.13640516747E+04  0.14487235602E+04  0.00000000000E+00 0. -1.
<mgrwt>
<rscale>  0 0.21366346E+04</rscale>
<asrwt>0</asrwt>
<pdfrwt beam="1">  1        4 0.11785345E+00 0.21366346E+04</pdfrwt>
<pdfrwt beam="2">  1       -4 0.22920892E+00 0.21366346E+04</pdfrwt>
<totfact> 0.86726134E-02</totfact>
</mgrwt>
</event>
<event>
 6    1  0.1568961E-005  0.1779876E+04  0.7818608E-02  0.8717075E-01
         -1   -1    0    0    0  501 -0.00000000000E+00  0.00000000000E+00  0.13126890157E+04  0.13126890157E+04  0.00000000000E+00 0.  1.
          1   -1    0    0  501    0  0.00000000000E+00 -0.00000000000E+00 -0.60333360388E+03  0.60333360388E+03  0.00000000000E+00 0. -1.
         23    2    1    2    0    0  0.59703923469E+03  0.58613076545E+03  0.67299571861E+03  0.10785698453E+04  0.10190462149E+03 0.  0.
         13    1    3    3    0    0  0.56107273912E+03  0.53271215774E+03  0.58713695346E+03  0.97124387448E+03  0.00000000000E+00 0. -1.
        -13    1    3    3    0    0  0.35966495576E+02  0.53418607713E+02  0.85858765148E+02  0.10732597079E+03  0.00000000000E+00 0.  1.
         22    1    1    2    0    0 -0.59703923469E+03 -0.58613076545E+03  0.36359693249E+02  0.83745277435E+03  0.00000000000E+00 0. -1.
<mgrwt>
<rscale>  0 0.17798757E+04</rscale>
<asrwt>0</asrwt>
<pdfrwt beam="1">  1        1 0.92820554E-01 0.17798757E+04</pdfrwt>
<pdfrwt beam="2">  1       -1 0.20195216E+00 0.17798757E+04</pdfrwt>
<totfact> 0.46849288E+00</totfact>
</mgrwt>
</event>
<event>
 6    1  0.1568961E-005  0.3582831E+04  0.7818608E-02  0.8094436E-01
         -2   -1    0    0    0  501 -0.00000000000E+00  0.00000000000E+00  0.15226061479E+04  0.15226061479E+04  0.00000000000E+00 0.  1.
          2   -1    0    0  501    0  0.00000000000E+00 -0.00000000000E+00 -0.21076813983E+04  0.21076813983E+04  0.00000000000E+00 0. -1.
         23    2    1    2    0    0 -0.69674967874E+03  0.99110771264E+03 -0.16281996923E+04  0.20315808144E+04  0.92367496872E+02 0.  0.
         13    1    3    3    0    0 -0.16965015708E+03  0.26988232785E+03 -0.49232321027E+03  0.58651495297E+03  0.00000000000E+00 0. -1.
        -13    1    3    3    0    0 -0.52709952165E+03  0.72122538478E+03 -0.11358764820E+04  0.14450658614E+04  0.00000000000E+00 0.  1.
         22    1    1    2    0    0  0.69674967874E+03 -0.99110771264E+03  0.10431244419E+04  0.15987067318E+04  0.00000000000E+00 0.  1.
<mgrwt>
<rscale>  0 0.35828305E+04</rscale>
<asrwt>0</asrwt>
<pdfrwt beam="1">  1        2 0.32425867E+00 0.35828305E+04</pdfrwt>
<pdfrwt beam="2">  1       -2 0.23424710E+00 0.35828305E+04</pdfrwt>
<totfact> 0.38195209E-01</totfact>
</mgrwt>
</event>
<event>
 6    1  0.1568961E-005  0.2961789E+04  0.7818608E-02  0.8254727E-01
         -2   -1    0    0    0  501 -0.00000000000E+00  0.00000000000E+00  0.62422678342E+03  0.62422678342E+03  0.00000000000E+00 0.  1.
          2   -1    0    0  501    0  0.00000000000E+00 -0.00000000000E+00 -0.35132235474E+04  0.35132235474E+04  0.00000000000E+00 0. -1.
         23    2    1    2    0    0  0.12642364499E+04  0.65785234703E+02 -0.25150389154E+04  0.28174253421E+04  0.99213473804E+02 0.  0.
         11    1    3    3    0    0  0.94113799502E+03  0.21373261985E+02 -0.17913693430E+04  0.20236604619E+04  0.00000000000E+00 0. -1.
        -11    1    3    3    0    0  0.32309845493E+03  0.44411972717E+02 -0.72366957243E+03  0.79376488015E+03  0.00000000000E+00 0.  1.
         22    1    1    2    0    0 -0.12642364499E+04 -0.65785234703E+02 -0.37395784854E+03  0.13200249888E+04  0.00000000000E+00 0.  1.
<mgrwt>
<rscale>  0 0.29617888E+04</rscale>
<asrwt>0</asrwt>
<pdfrwt beam="1">  1        2 0.54049592E+00 0.29617888E+04</pdfrwt>
<pdfrwt beam="2">  1       -2 0.96034891E-01 0.29617888E+04</pdfrwt>
<totfact> 0.62050115E-01</totfact>
</mgrwt>
</event>
<event>
 6    1  0.1568961E-005  0.4569630E+04  0.7818608E-02  0.7898559E-01
          2   -1    0    0  501    0  0.00000000000E+00  0.00000000000E+00  0.17003033034E+04  0.17003033034E+04  0.00000000000E+00 0. -1.
         -2   -1    0    0    0  501 -0.00000000000E+00 -0.00000000000E+00 -0.30702636668E+04  0.30702636668E+04  0.00000000000E+00 0.  1.
         23    2    1    2    0    0 -0.58613161915E+03 -0.12953083607E+04  0.11806443446E+04  0.18504713552E+04  0.94599912833E+02 0.  0.
         11    1    3    3    0    0 -0.47401059187E+03 -0.94897625297E+03  0.88807795184E+03  0.13834465723E+04  0.00000000000E+00 0.  1.
        -11    1    3    3    0    0 -0.11212102727E+03 -0.34633210775E+03  0.29256639276E+03  0.46702478284E+03  0.00000000000E+00 0. -1.
         22    1    1    2    0    0  0.58613161915E+03  0.12953083607E+04 -0.25506047080E+04  0.29200956150E+04  0.00000000000E+00 0.  1.
<mgrwt>
<rscale>  0 0.45696299E+04</rscale>
<asrwt>0</asrwt>
<pdfrwt beam="1">  1        2 0.26158513E+00 0.45696299E+04</pdfrwt>
<pdfrwt beam="2">  1       -2 0.47234825E+00 0.45696299E+04</pdfrwt>
<totfact> 0.18331212E-02</totfact>
</mgrwt>
</event>
<event>
 6    1  0.1568961E-005  0.1000813E+04  0.7818608E-02  0.9307653E-01
         -2   -1    0    0    0  501 -0.00000000000E+00  0.00000000000E+00  0.33313557216E+03  0.33313557216E+03  0.00000000000E+00 0. -1.
          2   -1    0    0  501    0  0.00000000000E+00 -0.00000000000E+00 -0.75166616370E+03  0.75166616370E+03  0.00000000000E+00 0.  1.
         23    2    1    2    0    0 -0.56014977676E+02 -0.39412098924E+03 -0.53215682600E+03  0.67082111670E+03  0.91329355970E+02 0.  0.
         13    1    3    3    0    0  0.51493772703E+01 -0.10789510778E+03 -0.20592770227E+03  0.23253836013E+03  0.00000000000E+00 0.  1.
        -13    1    3    3    0    0 -0.61164354946E+02 -0.28622588146E+03 -0.32622912373E+03  0.43828275657E+03  0.00000000000E+00 0. -1.
         22    1    1    2    0    0  0.56014977676E+02  0.39412098924E+03  0.11362623447E+03  0.41398061917E+03  0.00000000000E+00 0. -1.
<mgrwt>
<rscale>  0 0.10008131E+04</rscale>
<asrwt>0</asrwt>
<pdfrwt beam="1">  1        2 0.11564095E+00 0.10008131E+04</pdfrwt>
<pdfrwt beam="2">  1       -2 0.51251627E-01 0.10008131E+04</pdfrwt>
<totfact> 0.13430632E+02</totfact>
</mgrwt>
</event>
<event>
 6    1  0.1568961E-005  0.3816729E+04  0.7818608E-02  0.8042574E-01
          2   -1    0    0  501    0  0.00000000000E+00  0.00000000000E+00  0.16357718432E+04  0.16357718432E+04  0.00000000000E+00 0.  1.
         -2   -1    0    0    0  501 -0.00000000000E+00 -0.00000000000E+00 -0.22263837611E+04  0.22263837611E+04  0.00000000000E+00 0. -1.
         23    2    1    2    0    0  0.13693075977E+04 -0.12912682293E+04  0.15696512669E+02  0.18847869361E+04  0.98987256991E+02 0.  0.
         11    1    3    3    0    0  0.37696327466E+03 -0.41542089208E+03  0.16745409433E+02  0.56120961926E+03  0.00000000000E+00 0.  1.
        -11    1    3    3    0    0  0.99234432299E+03 -0.87584733720E+03 -0.10488967639E+01  0.13235773168E+04  0.00000000000E+00 0. -1.
         22    1    1    2    0    0 -0.13693075977E+04  0.12912682293E+04 -0.60630843054E+03  0.19773686682E+04  0.00000000000E+00 0. -1.
<mgrwt>
<rscale>  0 0.38167294E+04</rscale>
<asrwt>0</asrwt>
<pdfrwt beam="1">  1        2 0.25165721E+00 0.38167294E+04</pdfrwt>
<pdfrwt beam="2">  1       -2 0.34252058E+00 0.38167294E+04</pdfrwt>
<totfact> 0.14781208E-01</totfact>
</mgrwt>
</event>
<event>
 6    1  0.1568961E-005  0.1330593E+04  0.7818608E-02  0.9005650E-01
         -2   -1    0    0    0  501 -0.00000000000E+00  0.00000000000E+00  0.13547148510E+04  0.13547148510E+04  0.00000000000E+00 0.  1.
          2   -1    0    0  501    0  0.00000000000E+00 -0.00000000000E+00 -0.32672541025E+03  0.32672541025E+03  0.00000000000E+00 0. -1.
         23    2    1    2    0    0  0.33784544588E+03  0.47730730678E+03  0.90910243853E+03  0.10847025218E+04  0.90280156721E+02 0.  0.
         11    1    3    3    0    0  0.80573445582E+02  0.15207391261E+03  0.33336928817E+03  0.37517147722E+03  0.00000000000E+00 0. -1.
        -11    1    3    3    0    0  0.25727200030E+03  0.32523339417E+03  0.57573315036E+03  0.70953104459E+03  0.00000000000E+00 0.  1.
         22    1    1    2    0    0 -0.33784544588E+03 -0.47730730678E+03  0.11888700225E+03  0.59673773947E+03  0.00000000000E+00 0. -1.
<mgrwt>
<rscale>  0 0.13305935E+04</rscale>
<asrwt>0</asrwt>
<pdfrwt beam="1">  1        2 0.50265448E-01 0.13305935E+04</pdfrwt>
<pdfrwt beam="2">  1       -2 0.20841767E+00 0.13305935E+04</pdfrwt>
<totfact> 0.11437132E+01</totfact>
</mgrwt>
</event>
<event>
 6    1  0.1568961E-005  0.3561073E+04  0.7818608E-02  0.8099467E-01
         -1   -1    0    0    0  501 -0.00000000000E+00  0.00000000000E+00  0.13718105384E+04  0.13718105384E+04  0.00000000000E+00 0.  1.
          1   -1    0    0  501    0  0.00000000000E+00 -0.00000000000E+00 -0.23110414915E+04  0.23110414915E+04  0.00000000000E+00 0. -1.
         23    2    1    2    0    0 -0.13738822566E+04 -0.10168455200E+04 -0.98141428439E+03  0.19730840048E+04  0.91428801785E+02 0.  0.
         11    1    3    3    0    0 -0.91269216013E+03 -0.64344722844E+03 -0.60015867824E+03  0.12677624991E+04  0.00000000000E+00 0. -1.
        -11    1    3    3    0    0 -0.46119009645E+03 -0.37339829154E+03 -0.38125560615E+03  0.70532150570E+03  0.00000000000E+00 0.  1.
         22    1    1    2    0    0  0.13738822566E+04  0.10168455200E+04  0.42183331264E+02  0.17097680252E+04  0.00000000000E+00 0.  1.
<mgrwt>
<rscale>  0 0.35610735E+04</rscale>
<asrwt>0</asrwt>
<pdfrwt beam="1">  1        1 0.35554484E+00 0.35610735E+04</pdfrwt>
<pdfrwt beam="2">  1       -1 0.21104778E+00 0.35610735E+04</pdfrwt>
<totfact> 0.18775498E-01</totfact>
</mgrwt>
</event>
<event>
 6    1  0.1568961E-005  0.1530047E+04  0.7818608E-02  0.8864715E-01
          1   -1    0    0  501    0  0.00000000000E+00  0.00000000000E+00  0.11019156070E+04  0.11019156070E+04  0.00000000000E+00 0. -1.
         -1   -1    0    0    0  501 -0.00000000000E+00 -0.00000000000E+00 -0.53113020988E+03  0.53113020988E+03  0.00000000000E+00 0.  1.
         23    2    1    2    0    0 -0.13194514017E+03  0.34478485294E+03 -0.42554288715E+03  0.57052232779E+03  0.90126926439E+02 0.  0.
         11    1    3    3    0    0 -0.29469111566E+02  0.20268190681E+03 -0.22952352795E+03  0.30761897498E+03  0.00000000000E+00 0. -1.
        -11    1    3    3    0    0 -0.10247602860E+03  0.14210294613E+03 -0.19601935921E+03  0.26290335282E+03  0.00000000000E+00 0.  1.
         22    1    1    2    0    0  0.13194514017E+03 -0.34478485294E+03  0.99632828430E+03  0.10625234891E+04  0.00000000000E+00 0. -1.
<mgrwt>
<rscale>  0 0.15300466E+04</rscale>
<asrwt>0</asrwt>
<pdfrwt beam="1">  1        1 0.16952548E+00 0.15300466E+04</pdfrwt>
<pdfrwt beam="2">  1       -1 0.81712340E-01 0.15300466E+04</pdfrwt>
<totfact> 0.18182151E+01</totfact>
</mgrwt>
</event>
<event>
 6    1  0.1568961E-005  0.2082557E+04  0.7818608E-02  0.8568966E-01
          2   -1    0    0  501    0  0.00000000000E+00  0.00000000000E+00  0.10229884051E+04  0.10229884051E+04  0.00000000000E+00 0. -1.
         -2   -1    0    0    0  501 -0.00000000000E+00 -0.00000000000E+00 -0.10598958060E+04  0.10598958060E+04  0.00000000000E+00 0.  1.
         23    2    1    2    0    0 -0.90408869140E+03 -0.40474328733E+03  0.29703677580E+03  0.10375554571E+04  0.84243633896E+02 0.  0.
         13    1    3    3    0    0 -0.82550462292E+03 -0.38717574129E+03  0.28965641718E+03  0.95669419206E+03  0.00000000000E+00 0.  1.
        -13    1    3    3    0    0 -0.78584068485E+02 -0.17567546043E+02  0.73803586169E+01  0.80861265059E+02  0.00000000000E+00 0. -1.
         22    1    1    2    0    0  0.90408869140E+03  0.40474328733E+03 -0.33394417671E+03  0.10453287539E+04  0.00000000000E+00 0.  1.
<mgrwt>
<rscale>  0 0.20825572E+04</rscale>
<asrwt>0</asrwt>
<pdfrwt beam="1">  1        2 0.15738283E+00 0.20825572E+04</pdfrwt>
<pdfrwt beam="2">  1       -2 0.16306089E+00 0.20825572E+04</pdfrwt>
<totfact> 0.53735890E+00</totfact>
</mgrwt>
</event>
<event>
 6    1  0.1568961E-005  0.1573130E+04  0.7818608E-02  0.8837227E-01
         -2   -1    0    0    0  501 -0.00000000000E+00  0.00000000000E+00  0.13738395833E+04  0.13738395833E+04  0.00000000000E+00 0.  1.
          2   -1    0    0  501    0  0.00000000000E+00 -0.00000000000E+00 -0.45033244919E+03  0.45033244919E+03  0.00000000000E+00 0. -1.
         23    2    1    2    0    0 -0.75722165751E+02 -0.39559872353E+03  0.12430527169E+04  0.13100304411E+04  0.93634946709E+02 0.  0.
         11    1    3    3    0    0  0.22251842028E+02 -0.64489620117E+02  0.20573404404E+03  0.21674997682E+03  0.00000000000E+00 0.  1.
        -11    1    3    3    0    0 -0.97974007779E+02 -0.33110910341E+03  0.10373186728E+04  0.10932804643E+04  0.00000000000E+00 0. -1.
         22    1    1    2    0    0  0.75722165751E+02  0.39559872353E+03 -0.31954558282E+03  0.51414159134E+03  0.00000000000E+00 0. -1.
<mgrwt>
<rscale>  0 0.15731301E+04</rscale>
<asrwt>0</asrwt>
<pdfrwt beam="1">  1        2 0.69281916E-01 0.15731301E+04</pdfrwt>
<pdfrwt beam="2">  1       -2 0.21135993E+00 0.15731301E+04</pdfrwt>
<totfact> 0.74870343E+00</totfact>
</mgrwt>
</event>
<event>
 6    1  0.1568961E-005  0.1395591E+04  0.7818608E-02  0.8957016E-01
          2   -1    0    0  501    0  0.00000000000E+00  0.00000000000E+00  0.29299401877E+04  0.29299401877E+04  0.00000000000E+00 0. -1.
         -2   -1    0    0    0  501 -0.00000000000E+00 -0.00000000000E+00 -0.16618729109E+03  0.16618729109E+03  0.00000000000E+00 0.  1.
         23    2    1    2    0    0  0.61800397241E+03 -0.16279008566E+03  0.19924145599E+04  0.20944327391E+04  0.92212787270E+02 0.  0.
         13    1    3    3    0    0  0.27468356851E+03 -0.32474460411E+02  0.77760886043E+03  0.82533701795E+03  0.00000000000E+00 0. -1.
        -13    1    3    3    0    0  0.34332040390E+03 -0.13031562525E+03  0.12148056995E+04  0.12690957212E+04  0.00000000000E+00 0.  1.
         22    1    1    2    0    0 -0.61800397241E+03  0.16279008566E+03  0.77133833672E+03  0.10016947397E+04  0.00000000000E+00 0.  1.
<mgrwt>
<rscale>  0 0.13955914E+04</rscale>
<asrwt>0</asrwt>
<pdfrwt beam="1">  1        2 0.45075999E+00 0.13955914E+04</pdfrwt>
<pdfrwt beam="2">  1       -2 0.25567278E-01 0.13955914E+04</pdfrwt>
<totfact> 0.26032381E+01</totfact>
</mgrwt>
</event>
<event>
 6    1  0.1568961E-005  0.3016274E+04  0.7818608E-02  0.8239099E-01
          2   -1    0    0  501    0  0.00000000000E+00  0.00000000000E+00  0.25912934557E+04  0.25912934557E+04  0.00000000000E+00 0. -1.
         -2   -1    0    0    0  501 -0.00000000000E+00 -0.00000000000E+00 -0.87773805052E+03  0.87773805052E+03  0.00000000000E+00 0.  1.
         23    2    1    2    0    0  0.36915264031E+03 -0.14218272645E+04  0.47063595446E+03  0.15447874461E+04  0.83687574247E+02 0.  0.
         11    1    3    3    0    0  0.11068421926E+03 -0.53492181095E+03  0.20631916916E+03  0.58391775087E+03  0.00000000000E+00 0. -1.
        -11    1    3    3    0    0  0.25846842105E+03 -0.88690545354E+03  0.26431678530E+03  0.96086969522E+03  0.00000000000E+00 0.  1.
         22    1    1    2    0    0 -0.36915264031E+03  0.14218272645E+04  0.12429194507E+04  0.19242440601E+04  0.00000000000E+00 0. -1.
<mgrwt>
<rscale>  0 0.30162738E+04</rscale>
<asrwt>0</asrwt>
<pdfrwt beam="1">  1        2 0.39866053E+00 0.30162738E+04</pdfrwt>
<pdfrwt beam="2">  1       -2 0.13503662E+00 0.30162738E+04</pdfrwt>
<totfact> 0.10375060E+00</totfact>
</mgrwt>
</event>
<event>
 6    1  0.1568961E-005  0.1677518E+04  0.7818608E-02  0.8774292E-01
          2   -1    0    0  501    0  0.00000000000E+00  0.00000000000E+00  0.21178580458E+04  0.21178580458E+04  0.00000000000E+00 0. -1.
         -2   -1    0    0    0  501 -0.00000000000E+00 -0.00000000000E+00 -0.33218308622E+03  0.33218308622E+03  0.00000000000E+00 0.  1.
         23    2    1    2    0    0 -0.47893072449E+03  0.44565915826E+03  0.16562496055E+04  0.17831546001E+04  0.92145796660E+02 0.  0.
         11    1    3    3    0    0 -0.24486126070E+03  0.21780385389E+03  0.95218935095E+03  0.10070055193E+04  0.00000000000E+00 0. -1.
        -11    1    3    3    0    0 -0.23406946379E+03  0.22785530437E+03  0.70406025457E+03  0.77614908082E+03  0.00000000000E+00 0.  1.
         22    1    1    2    0    0  0.47893072449E+03 -0.44565915826E+03  0.12942535407E+03  0.66688653193E+03  0.00000000000E+00 0.  1.
<mgrwt>
<rscale>  0 0.16775180E+04</rscale>
<asrwt>0</asrwt>
<pdfrwt beam="1">  1        2 0.32582431E+00 0.16775180E+04</pdfrwt>
<pdfrwt beam="2">  1       -2 0.51105091E-01 0.16775180E+04</pdfrwt>
<totfact> 0.19813888E+01</totfact>
</mgrwt>
</event>
<event>
 6    1  0.1568961E-005  0.1612241E+04  0.7818608E-02  0.8813063E-01
         -1   -1    0    0    0  501 -0.00000000000E+00  0.00000000000E+00  0.37290106603E+03  0.37290106603E+03  0.00000000000E+00 0.  1.
          1   -1    0    0  501    0  0.00000000000E+00 -0.00000000000E+00 -0.17426344404E+04  0.17426344404E+04  0.00000000000E+00 0. -1.
         23    2    1    2    0    0  0.44130468258E+03 -0.49113448216E+03 -0.12879704190E+04  0.14502174748E+04  0.91104453738E+02 0.  0.
         11    1    3    3    0    0  0.22668647101E+03 -0.28854141043E+03 -0.79613011281E+03  0.87662195853E+03  0.00000000000E+00 0.  1.
        -11    1    3    3    0    0  0.21461821158E+03 -0.20259307174E+03 -0.49184030617E+03  0.57359551622E+03  0.00000000000E+00 0. -1.
         22    1    1    2    0    0 -0.44130468258E+03  0.49113448216E+03 -0.81762955430E+02  0.66531803171E+03  0.00000000000E+00 0.  1.
<mgrwt>
<rscale>  0 0.16122410E+04</rscale>
<asrwt>0</asrwt>
<pdfrwt beam="1">  1        1 0.26809761E+00 0.16122410E+04</pdfrwt>
<pdfrwt beam="2">  1       -1 0.57369395E-01 0.16122410E+04</pdfrwt>
<totfact> 0.13147416E+01</totfact>
</mgrwt>
</event>
<event>
 6    1  0.1568961E-005  0.3383890E+04  0.7818608E-02  0.8141872E-01
          1   -1    0    0  501    0  0.00000000000E+00  0.00000000000E+00  0.31167687371E+04  0.31167687371E+04  0.00000000000E+00 0. -1.
         -1   -1    0    0    0  501 -0.00000000000E+00 -0.00000000000E+00 -0.91847609054E+03  0.91847609054E+03  0.00000000000E+00 0.  1.
         23    2    1    2    0    0 -0.16132987569E+04 -0.40355695317E+03  0.73655101042E+03  0.18211355927E+04  0.91849674289E+02 0.  0.
         11    1    3    3    0    0 -0.54152225321E+03 -0.17063724832E+03  0.28093708638E+03  0.63347380983E+03  0.00000000000E+00 0. -1.
        -11    1    3    3    0    0 -0.10717765037E+04 -0.23291970485E+03  0.45561392404E+03  0.11876617829E+04  0.00000000000E+00 0.  1.
         22    1    1    2    0    0  0.16132987569E+04  0.40355695317E+03  0.14617416361E+04  0.22141092349E+04  0.00000000000E+00 0. -1.
<mgrwt>
<rscale>  0 0.33838898E+04</rscale>
<asrwt>0</asrwt>
<pdfrwt beam="1">  1        1 0.47950288E+00 0.33838898E+04</pdfrwt>
<pdfrwt beam="2">  1       -1 0.14130402E+00 0.33838898E+04</pdfrwt>
<totfact> 0.16511977E-01</totfact>
</mgrwt>
</event>
<event>
 6    1  0.1568961E-005  0.2957020E+04  0.7818608E-02  0.8256112E-01
         -2   -1    0    0    0  501 -0.00000000000E+00  0.00000000000E+00  0.21791894189E+04  0.21791894189E+04  0.00000000000E+00 0.  1.
          2   -1    0    0  501    0  0.00000000000E+00 -0.00000000000E+00 -0.10031213962E+04  0.10031213962E+04  0.00000000000E+00 0. -1.
         23    2    1    2    0    0 -0.52717060798E+03  0.11162468392E+04  0.14614240915E+04  0.19152891335E+04  0.93038882445E+02 0.  0.
         11    1    3    3    0    0 -0.41504605207E+03  0.92228419265E+03  0.11469620244E+04  0.15291805789E+04  0.00000000000E+00 0. -1.
        -11    1    3    3    0    0 -0.11212455591E+03  0.19396264650E+03  0.31446206716E+03  0.38610855463E+03  0.00000000000E+00 0.  1.
         22    1    1    2    0    0  0.52717060798E+03 -0.11162468392E+04 -0.28535606880E+03  0.12670216817E+04  0.00000000000E+00 0.  1.
<mgrwt>
<rscale>  0 0.29570198E+04</rscale>
<asrwt>0</asrwt>
<pdfrwt beam="1">  1        2 0.15432637E+00 0.29570198E+04</pdfrwt>
<pdfrwt beam="2">  1       -2 0.33525991E+00 0.29570198E+04</pdfrwt>
<totfact> 0.41454990E-01</totfact>
</mgrwt>
</event>
<event>
 6    1  0.1568961E-005  0.4572667E+04  0.7818608E-02  0.7898037E-01
         -1   -1    0    0    0  501 -0.00000000000E+00  0.00000000000E+00  0.15801614750E+04  0.15801614750E+04  0.00000000000E+00 0.  1.
          1   -1    0    0  501    0  0.00000000000E+00 -0.00000000000E+00 -0.33080924785E+04  0.33080924785E+04  0.00000000000E+00 0. -1.
         23    2    1    2    0    0  0.21566536617E+04 -0.71477347812E+03 -0.60005813594E+03  0.23516906590E+04  0.91230737859E+02 0.  0.
         13    1    3    3    0    0  0.10929269229E+04 -0.33092870429E+03 -0.26568913225E+03  0.11724307148E+04  0.00000000000E+00 0.  1.
        -13    1    3    3    0    0  0.10637267389E+04 -0.38384477383E+03 -0.33436900369E+03  0.11792599442E+04  0.00000000000E+00 0. -1.
         22    1    1    2    0    0 -0.21566536617E+04  0.71477347812E+03 -0.11278728675E+04  0.25365632945E+04  0.00000000000E+00 0.  1.
<mgrwt>
<rscale>  0 0.45726667E+04</rscale>
<asrwt>0</asrwt>
<pdfrwt beam="1">  1        1 0.50893730E+00 0.45726667E+04</pdfrwt>
<pdfrwt beam="2">  1       -1 0.24310177E+00 0.45726667E+04</pdfrwt>
<totfact> 0.20330194E-02</totfact>
</mgrwt>
</event>
<event>
 6    1  0.1568961E-005  0.2319797E+04  0.7818608E-02  0.8470156E-01
          2   -1    0    0  501    0  0.00000000000E+00  0.00000000000E+00  0.81790611482E+03  0.81790611482E+03  0.00000000000E+00 0. -1.
         -2   -1    0    0    0  501 -0.00000000000E+00 -0.00000000000E+00 -0.16448881448E+04  0.16448881448E+04  0.00000000000E+00 0.  1.
         23    2    1    2    0    0  0.43109831520E+03  0.36665609016E+03 -0.14867330213E+04  0.15935682727E+04  0.93820665615E+02 0.  0.
         13    1    3    3    0    0  0.19313094140E+03  0.10668368734E+03 -0.60764430067E+03  0.64646157335E+03  0.00000000000E+00 0. -1.
        -13    1    3    3    0    0  0.23796737380E+03  0.25997240282E+03 -0.87908872059E+03  0.94710669932E+03  0.00000000000E+00 0.  1.
         22    1    1    2    0    0 -0.43109831520E+03 -0.36665609016E+03  0.65975099131E+03  0.86922598693E+03  0.00000000000E+00 0. -1.
<mgrwt>
<rscale>  0 0.23197966E+04</rscale>
<asrwt>0</asrwt>
<pdfrwt beam="1">  1        2 0.12583171E+00 0.23197966E+04</pdfrwt>
<pdfrwt beam="2">  1       -2 0.25305971E+00 0.23197966E+04</pdfrwt>
<totfact> 0.18623223E+00</totfact>
</mgrwt>
</event>
<event>
 6    1  0.1568961E-005  0.2795987E+04  0.7818608E-02  0.8304515E-01
          2   -1    0    0  501    0  0.00000000000E+00  0.00000000000E+00  0.20632448384E+04  0.20632448384E+04  0.00000000000E+00 0. -1.
         -2   -1    0    0    0  501 -0.00000000000E+00 -0.00000000000E+00 -0.94723866585E+03  0.94723866585E+03  0.00000000000E+00 0.  1.
         23    2    1    2    0    0 -0.67852053330E+03  0.92788167857E+03 -0.29583987813E+03  0.11898616890E+04  0.83036629337E+02 0.  0.
         11    1    3    3    0    0 -0.51929019109E+03  0.65677042225E+03 -0.19497269940E+03  0.85966507642E+03  0.00000000000E+00 0.  1.
        -11    1    3    3    0    0 -0.15923034221E+03  0.27111125632E+03 -0.10086717873E+03  0.33019661253E+03  0.00000000000E+00 0. -1.
         22    1    1    2    0    0  0.67852053330E+03 -0.92788167857E+03  0.14118460507E+04  0.18206218153E+04  0.00000000000E+00 0. -1.
<mgrwt>
<rscale>  0 0.27959866E+04</rscale>
<asrwt>0</asrwt>
<pdfrwt beam="1">  1        2 0.31742228E+00 0.27959866E+04</pdfrwt>
<pdfrwt beam="2">  1       -2 0.14572903E+00 0.27959866E+04</pdfrwt>
<totfact> 0.17341247E+00</totfact>
</mgrwt>
</event>
<event>
 6    1  0.1568961E-005  0.4493400E+04  0.7818608E-02  0.7911793E-01
          1   -1    0    0  501    0  0.00000000000E+00  0.00000000000E+00  0.29482359524E+04  0.29482359524E+04  0.00000000000E+00 0. -1.
         -1   -1    0    0    0  501 -0.00000000000E+00 -0.00000000000E+00 -0.17120953755E+04  0.17120953755E+04  0.00000000000E+00 0.  1.
         23    2    1    2    0    0  0.16574541287E+04  0.11618494537E+04  0.16274930702E+04  0.25987287679E+04  0.87230576962E+02 0.  0.
         11    1    3    3    0    0  0.13655966924E+04  0.93189263018E+03  0.12940957446E+04  0.20995147050E+04  0.00000000000E+00 0. -1.
        -11    1    3    3    0    0  0.29185743633E+03  0.22995682348E+03  0.33339732559E+03  0.49921406282E+03  0.00000000000E+00 0.  1.
         22    1    1    2    0    0 -0.16574541287E+04 -0.11618494537E+04 -0.39135249330E+03  0.20616025601E+04  0.00000000000E+00 0.  1.
<mgrwt>
<rscale>  0 0.44934001E+04</rscale>
<asrwt>0</asrwt>
<pdfrwt beam="1">  1        1 0.45357476E+00 0.44934001E+04</pdfrwt>
<pdfrwt beam="2">  1       -1 0.26339929E+00 0.44934001E+04</pdfrwt>
<totfact> 0.27945577E-02</totfact>
</mgrwt>
</event>
<event>
 6    1  0.1568961E-005  0.7858912E+03  0.7818608E-02  0.9580667E-01
          1   -1    0    0  501    0  0.00000000000E+00  0.00000000000E+00  0.12542739601E+04  0.12542739601E+04  0.00000000000E+00 0. -1.
         -1   -1    0    0    0  501 -0.00000000000E+00 -0.00000000000E+00 -0.12310408299E+03  0.12310408299E+03  0.00000000000E+00 0.  1.
         23    2    1    2    0    0 -0.10780014070E+03  0.22137521376E+03  0.48527758767E+02  0.26708897623E+03  0.91398699375E+02 0.  0.
         13    1    3    3    0    0 -0.56668234353E+02  0.18466303322E+03  0.10285163987E+02  0.19343605977E+03  0.00000000000E+00 0.  1.
        -13    1    3    3    0    0 -0.51131906342E+02  0.36712180546E+02  0.38242594781E+02  0.73652916454E+02  0.00000000000E+00 0. -1.
         22    1    1    2    0    0  0.10780014070E+03 -0.22137521376E+03  0.10826421183E+04  0.11102890668E+04  0.00000000000E+00 0. -1.
<mgrwt>
<rscale>  0 0.78589120E+03</rscale>
<asrwt>0</asrwt>
<pdfrwt beam="1">  1        1 0.19296522E+00 0.78589120E+03</pdfrwt>
<pdfrwt beam="2">  1       -1 0.18939091E-01 0.78589120E+03</pdfrwt>
<totfact> 0.22130215E+02</totfact>
</mgrwt>
</event>
<event>
 6    1  0.2257312E-005  0.4069919E+04  0.7818608E-02  0.7990588E-01
          2   -1    0    0  501    0  0.00000000000E+00  0.00000000000E+00  0.28080307572E+04  0.28080307572E+04  0.00000000000E+00 0. -1.
         -2   -1    0    0    0  501 -0.00000000000E+00 -0.00000000000E+00 -0.14747202047E+04  0.14747202047E+04  0.00000000000E+00 0.  1.
         23    2    1    2    0    0 -0.10112844882E+04 -0.14727575804E+04 -0.35604399161E+03  0.18239646795E+04  0.91480169446E+02 0.  0.
         13    1    3    3    0    0 -0.40577448181E+03 -0.63368832974E+03 -0.18884366076E+03  0.77580652069E+03  0.00000000000E+00 0. -1.
        -13    1    3    3    0    0 -0.60551000641E+03 -0.83906925065E+03 -0.16720033085E+03  0.10481581588E+04  0.00000000000E+00 0.  1.
         22    1    1    2    0    0  0.10112844882E+04  0.14727575804E+04  0.16893545441E+04  0.24587862824E+04  0.00000000000E+00 0. -1.
<mgrwt>
<rscale>  0 0.40699188E+04</rscale>
<asrwt>0</asrwt>
<pdfrwt beam="1">  1        2 0.43200473E+00 0.40699188E+04</pdfrwt>
<pdfrwt beam="2">  1       -2 0.22688003E+00 0.40699188E+04</pdfrwt>
<totfact> 0.16038399E-01</totfact>
</mgrwt>
</event>
<event>
 6    1  0.1568961E-005  0.2132530E+04  0.7818608E-02  0.8547048E-01
          1   -1    0    0  501    0  0.00000000000E+00  0.00000000000E+00  0.13751956341E+04  0.13751956341E+04  0.00000000000E+00 0. -1.
         -1   -1    0    0    0  501 -0.00000000000E+00 -0.00000000000E+00 -0.82673395148E+03  0.82673395148E+03  0.00000000000E+00 0.  1.
         23    2    1    2    0    0  0.56814295408E+03  0.75933116513E+03  0.77174112882E+03  0.12276483399E+04  0.11029887563E+03 0.  0.
         13    1    3    3    0    0  0.54160123372E+03  0.74798320555E+03  0.73133472944E+03  0.11779903474E+04  0.00000000000E+00 0.  1.
        -13    1    3    3    0    0  0.26541720359E+02  0.11347959578E+02  0.40406399384E+02  0.49657992483E+02  0.00000000000E+00 0. -1.
         22    1    1    2    0    0 -0.56814295408E+03 -0.75933116513E+03 -0.22327944618E+03  0.97428124569E+03  0.00000000000E+00 0.  1.
<mgrwt>
<rscale>  0 0.21325299E+04</rscale>
<asrwt>0</asrwt>
<pdfrwt beam="1">  1        1 0.21156856E+00 0.21325299E+04</pdfrwt>
<pdfrwt beam="2">  1       -1 0.12718984E+00 0.21325299E+04</pdfrwt>
<totfact> 0.39306997E+00</totfact>
</mgrwt>
</event>
<event>
 6    1  0.1568961E-005  0.1600886E+04  0.7818608E-02  0.8820004E-01
          2   -1    0    0  501    0  0.00000000000E+00  0.00000000000E+00  0.66440560084E+03  0.66440560084E+03  0.00000000000E+00 0. -1.
         -2   -1    0    0    0  501 -0.00000000000E+00 -0.00000000000E+00 -0.96433443945E+03  0.96433443945E+03  0.00000000000E+00 0.  1.
         23    2    1    2    0    0  0.54440115929E+03 -0.44062587695E+03  0.23444125999E+03  0.74778874315E+03  0.11705346779E+03 0.  0.
         13    1    3    3    0    0  0.24126197832E+03 -0.20422665578E+03  0.16700231641E+03  0.35749915077E+03  0.00000000000E+00 0. -1.
        -13    1    3    3    0    0  0.30313918097E+03 -0.23639922117E+03  0.67438943572E+02  0.39028959237E+03  0.00000000000E+00 0.  1.
         22    1    1    2    0    0 -0.54440115929E+03  0.44062587695E+03 -0.53437009859E+03  0.88095129714E+03  0.00000000000E+00 0. -1.
<mgrwt>
<rscale>  0 0.16008863E+04</rscale>
<asrwt>0</asrwt>
<pdfrwt beam="1">  1        2 0.10221625E+00 0.16008863E+04</pdfrwt>
<pdfrwt beam="2">  1       -2 0.14835914E+00 0.16008863E+04</pdfrwt>
<totfact> 0.12934016E+01</totfact>
</mgrwt>
</event>
<event>
 6    1  0.1568961E-005  0.2895493E+04  0.7818608E-02  0.8274220E-01
         -2   -1    0    0    0  501 -0.00000000000E+00  0.00000000000E+00  0.12164210155E+04  0.12164210155E+04  0.00000000000E+00 0.  1.
          2   -1    0    0  501    0  0.00000000000E+00 -0.00000000000E+00 -0.17230632990E+04  0.17230632990E+04  0.00000000000E+00 0. -1.
         23    2    1    2    0    0 -0.32554726456E+03 -0.35793512899E+03 -0.16372484624E+04  0.17097002239E+04  0.91617410581E+02 0.  0.
         13    1    3    3    0    0 -0.12737657293E+03 -0.19426187541E+03 -0.87365217199E+03  0.90400806700E+03  0.00000000000E+00 0.  1.
        -13    1    3    3    0    0 -0.19817069163E+03 -0.16367325358E+03 -0.76359629038E+03  0.80569215687E+03  0.00000000000E+00 0. -1.
         22    1    1    2    0    0  0.32554726456E+03  0.35793512899E+03  0.11306061788E+04  0.12297840907E+04  0.00000000000E+00 0.  1.
<mgrwt>
<rscale>  0 0.28954933E+04</rscale>
<asrwt>0</asrwt>
<pdfrwt beam="1">  1        2 0.26508666E+00 0.28954933E+04</pdfrwt>
<pdfrwt beam="2">  1       -2 0.18714170E+00 0.28954933E+04</pdfrwt>
<totfact> 0.13321896E+00</totfact>
</mgrwt>
</event>
<event>
 6    1  0.1568961E-005  0.3240626E+03  0.7818608E-02  0.1073795E+00
         -2   -1    0    0    0  501 -0.00000000000E+00  0.00000000000E+00  0.13115359113E+02  0.13115359113E+02  0.00000000000E+00 0.  1.
          2   -1    0    0  501    0  0.00000000000E+00 -0.00000000000E+00 -0.20017854487E+04  0.20017854487E+04  0.00000000000E+00 0. -1.
         23    2    1    2    0    0 -0.81302947427E+02  0.51497819993E+02 -0.17762157842E+04  0.17816648187E+04  0.10062216240E+03 0.  0.
         13    1    3    3    0    0 -0.69716976610E+02  0.44034745860E+02 -0.63087645393E+03  0.63624257622E+03  0.00000000000E+00 0. -1.
        -13    1    3    3    0    0 -0.11585970817E+02  0.74630741326E+01 -0.11453393303E+04  0.11454222425E+04  0.00000000000E+00 0.  1.
         22    1    1    2    0    0  0.81302947427E+02 -0.51497819993E+02 -0.21245430543E+03  0.23323598912E+03  0.00000000000E+00 0.  1.
<mgrwt>
<rscale>  0 0.32406256E+03</rscale>
<asrwt>0</asrwt>
<pdfrwt beam="1">  1        2 0.30796695E+00 0.32406256E+03</pdfrwt>
<pdfrwt beam="2">  1       -2 0.20177478E-02 0.32406256E+03</pdfrwt>
<totfact> 0.56578843E+03</totfact>
</mgrwt>
</event>
<event>
 6    1  0.1568961E-005  0.1685026E+04  0.7818608E-02  0.8769951E-01
          2   -1    0    0  501    0  0.00000000000E+00  0.00000000000E+00  0.12466932627E+04  0.12466932627E+04  0.00000000000E+00 0. -1.
         -2   -1    0    0    0  501 -0.00000000000E+00 -0.00000000000E+00 -0.56936885445E+03  0.56936885445E+03  0.00000000000E+00 0.  1.
         23    2    1    2    0    0 -0.11641318140E+03  0.72362440921E+03  0.78223877465E+03  0.10756626718E+04  0.89265718588E+02 0.  0.
         11    1    3    3    0    0  0.67950834478E+01  0.20916915668E+03  0.21549755725E+03  0.30039491748E+03  0.00000000000E+00 0. -1.
        -11    1    3    3    0    0 -0.12320826485E+03  0.51445525253E+03  0.56674121739E+03  0.77526775431E+03  0.00000000000E+00 0.  1.
         22    1    1    2    0    0  0.11641318140E+03 -0.72362440921E+03 -0.10491436640E+03  0.74039944536E+03  0.00000000000E+00 0.  1.
<mgrwt>
<rscale>  0 0.16850262E+04</rscale>
<asrwt>0</asrwt>
<pdfrwt beam="1">  1        2 0.19179896E+00 0.16850262E+04</pdfrwt>
<pdfrwt beam="2">  1       -2 0.87595209E-01 0.16850262E+04</pdfrwt>
<totfact> 0.19041493E+01</totfact>
</mgrwt>
</event>
<event>
 6    1  0.1568961E-005  0.2337051E+04  0.7818608E-02  0.8463454E-01
         -2   -1    0    0    0  501 -0.00000000000E+00  0.00000000000E+00  0.16330243409E+04  0.16330243409E+04  0.00000000000E+00 0.  1.
          2   -1    0    0  501    0  0.00000000000E+00 -0.00000000000E+00 -0.83614880915E+03  0.83614880915E+03  0.00000000000E+00 0. -1.
         23    2    1    2    0    0 -0.23419855029E+02  0.87059592827E+03  0.12193745358E+04  0.15011901087E+04  0.90618563577E+02 0.  0.
         13    1    3    3    0    0 -0.51549873262E+02  0.65944884101E+03  0.88865738717E+03  0.11078096024E+04  0.00000000000E+00 0.  1.
        -13    1    3    3    0    0  0.28130018233E+02  0.21114708727E+03  0.33071714859E+03  0.39338050633E+03  0.00000000000E+00 0. -1.
         22    1    1    2    0    0  0.23419855029E+02 -0.87059592827E+03 -0.42249900402E+03  0.96798304135E+03  0.00000000000E+00 0. -1.
<mgrwt>
<rscale>  0 0.23370506E+04</rscale>
<asrwt>0</asrwt>
<pdfrwt beam="1">  1        2 0.12863828E+00 0.23370506E+04</pdfrwt>
<pdfrwt beam="2">  1       -2 0.25123451E+00 0.23370506E+04</pdfrwt>
<totfact> 0.18522893E+00</totfact>
</mgrwt>
</event>
<event>
 6    1  0.1568961E-005  0.3342288E+04  0.7818608E-02  0.8152218E-01
         -2   -1    0    0    0  501 -0.00000000000E+00  0.00000000000E+00  0.11363061079E+04  0.11363061079E+04  0.00000000000E+00 0.  1.
          2   -1    0    0  501    0  0.00000000000E+00 -0.00000000000E+00 -0.24577200884E+04  0.24577200884E+04  0.00000000000E+00 0. -1.
         23    2    1    2    0    0  0.78628330287E+02 -0.10062789565E+04 -0.20917571068E+04  0.23242985543E+04  0.90201016333E+02 0.  0.
         11    1    3    3    0    0  0.72514772537E+02 -0.66720597066E+03 -0.14733820775E+04  0.16190358074E+04  0.00000000000E+00 0. -1.
        -11    1    3    3    0    0  0.61135577498E+01 -0.33907298586E+03 -0.61837502929E+03  0.70526274691E+03  0.00000000000E+00 0.  1.
         22    1    1    2    0    0 -0.78628330287E+02  0.10062789565E+04  0.77034312624E+03  0.12697276420E+04  0.00000000000E+00 0.  1.
<mgrwt>
<rscale>  0 0.33422880E+04</rscale>
<asrwt>0</asrwt>
<pdfrwt beam="1">  1        2 0.37811078E+00 0.33422880E+04</pdfrwt>
<pdfrwt beam="2">  1       -2 0.17481633E+00 0.33422880E+04</pdfrwt>
<totfact> 0.60399973E-01</totfact>
</mgrwt>
</event>
<event>
 6    1  0.1568961E-005  0.1742981E+04  0.7818608E-02  0.8737223E-01
          1   -1    0    0  501    0  0.00000000000E+00  0.00000000000E+00  0.71161517413E+03  0.71161517413E+03  0.00000000000E+00 0. -1.
         -1   -1    0    0    0  501 -0.00000000000E+00 -0.00000000000E+00 -0.10672846142E+04  0.10672846142E+04  0.00000000000E+00 0.  1.
         23    2    1    2    0    0  0.35931905697E+02 -0.11610707063E+03 -0.10567022075E+04  0.10674091737E+04  0.89279533289E+02 0.  0.
         13    1    3    3    0    0  0.48097651118E+02 -0.96020613427E+02 -0.56314855651E+03  0.57329716461E+03  0.00000000000E+00 0. -1.
        -13    1    3    3    0    0 -0.12165745421E+02 -0.20086457206E+02 -0.49355365100E+03  0.49411200910E+03  0.00000000000E+00 0.  1.
         22    1    1    2    0    0 -0.35931905697E+02  0.11610707063E+03  0.70103276743E+03  0.71149061463E+03  0.00000000000E+00 0. -1.
<mgrwt>
<rscale>  0 0.17429813E+04</rscale>
<asrwt>0</asrwt>
<pdfrwt beam="1">  1        1 0.10947926E+00 0.17429813E+04</pdfrwt>
<pdfrwt beam="2">  1       -1 0.16419763E+00 0.17429813E+04</pdfrwt>
<totfact> 0.68446017E+00</totfact>
</mgrwt>
</event>
<event>
 6    1  0.1568961E-005  0.6215124E+03  0.7818608E-02  0.9861753E-01
          1   -1    0    0  501    0  0.00000000000E+00  0.00000000000E+00  0.58987137783E+03  0.58987137783E+03  0.00000000000E+00 0. -1.
         -1   -1    0    0    0  501 -0.00000000000E+00 -0.00000000000E+00 -0.16371266035E+03  0.16371266035E+03  0.00000000000E+00 0.  1.
         23    2    1    2    0    0 -0.20438359576E+03  0.34568244331E+02 -0.51796738435E+02  0.23261471512E+03  0.91973288776E+02 0.  0.
         13    1    3    3    0    0 -0.15833141391E+03 -0.10889428324E+02 -0.54628332037E+02  0.16784418649E+03  0.00000000000E+00 0. -1.
        -13    1    3    3    0    0 -0.46052181849E+02  0.45457672655E+02  0.28315936020E+01  0.64770528627E+02  0.00000000000E+00 0.  1.
         22    1    1    2    0    0  0.20438359576E+03 -0.34568244331E+02  0.47795545591E+03  0.52096932306E+03  0.00000000000E+00 0. -1.
<mgrwt>
<rscale>  0 0.62151239E+03</rscale>
<asrwt>0</asrwt>
<pdfrwt beam="1">  1        1 0.90749442E-01 0.62151239E+03</pdfrwt>
<pdfrwt beam="2">  1       -1 0.25186563E-01 0.62151239E+03</pdfrwt>
<totfact> 0.49044153E+02</totfact>
</mgrwt>
</event>
<event>
 6    1  0.1568961E-005  0.8281434E+03  0.7818608E-02  0.9520151E-01
          2   -1    0    0  501    0  0.00000000000E+00  0.00000000000E+00  0.21273497666E+04  0.21273497666E+04  0.00000000000E+00 0. -1.
         -2   -1    0    0    0  501 -0.00000000000E+00 -0.00000000000E+00 -0.80595755096E+02  0.80595755096E+02  0.00000000000E+00 0.  1.
         23    2    1    2    0    0  0.77782651201E+02 -0.26254624905E+02  0.21042125030E+04  0.21077411087E+04  0.90127007194E+02 0.  0.
         11    1    3    3    0    0  0.28576996925E+02  0.36377888557E+01  0.15988654806E+04  0.15991249805E+04  0.00000000000E+00 0.  1.
        -11    1    3    3    0    0  0.49205654276E+02 -0.29892413760E+02  0.50534702237E+03  0.50861612817E+03  0.00000000000E+00 0. -1.
         22    1    1    2    0    0 -0.77782651201E+02  0.26254624905E+02 -0.57458491431E+02  0.10020441305E+03  0.00000000000E+00 0.  1.
<mgrwt>
<rscale>  0 0.82814337E+03</rscale>
<asrwt>0</asrwt>
<pdfrwt beam="1">  1        2 0.32728454E+00 0.82814337E+03</pdfrwt>
<pdfrwt beam="2">  1       -2 0.12399349E-01 0.82814337E+03</pdfrwt>
<totfact> 0.27904136E+02</totfact>
</mgrwt>
</event>
<event>
 6    1  0.1568961E-005  0.2966991E+04  0.7818608E-02  0.8253220E-01
         -1   -1    0    0    0  501 -0.00000000000E+00  0.00000000000E+00  0.13093282714E+04  0.13093282714E+04  0.00000000000E+00 0.  1.
          1   -1    0    0  501    0  0.00000000000E+00 -0.00000000000E+00 -0.16808308606E+04  0.16808308606E+04  0.00000000000E+00 0. -1.
         23    2    1    2    0    0  0.73010760642E+03  0.11339430190E+04 -0.80522989865E+03  0.15734717048E+04  0.92380348211E+02 0.  0.
         13    1    3    3    0    0  0.51921784775E+03  0.72579128897E+03 -0.53506849547E+03  0.10405087522E+04  0.00000000000E+00 0.  1.
        -13    1    3    3    0    0  0.21088975867E+03  0.40815173003E+03 -0.27016140317E+03  0.53296295256E+03  0.00000000000E+00 0. -1.
         22    1    1    2    0    0 -0.73010760642E+03 -0.11339430190E+04  0.43372730945E+03  0.14166874272E+04  0.00000000000E+00 0. -1.
<mgrwt>
<rscale>  0 0.29669913E+04</rscale>
<asrwt>0</asrwt>
<pdfrwt beam="1">  1        1 0.25858936E+00 0.29669913E+04</pdfrwt>
<pdfrwt beam="2">  1       -1 0.20143512E+00 0.29669913E+04</pdfrwt>
<totfact> 0.61675060E-01</totfact>
</mgrwt>
</event>
<event>
 6    1  0.1568961E-005  0.2523631E+04  0.7818608E-02  0.8394615E-01
          2   -1    0    0  501    0  0.00000000000E+00  0.00000000000E+00  0.18438472356E+04  0.18438472356E+04  0.00000000000E+00 0.  1.
         -2   -1    0    0    0  501 -0.00000000000E+00 -0.00000000000E+00 -0.86350902942E+03  0.86350902942E+03  0.00000000000E+00 0. -1.
         23    2    1    2    0    0 -0.91794068762E+03 -0.50430447567E+03  0.12428048711E+04  0.16276216400E+04  0.87465108838E+02 0.  0.
         11    1    3    3    0    0 -0.38770064099E+03 -0.22298900724E+03  0.59686557811E+03  0.74584475778E+03  0.00000000000E+00 0. -1.
        -11    1    3    3    0    0 -0.53024004663E+03 -0.28131546843E+03  0.64593929302E+03  0.88177688226E+03  0.00000000000E+00 0.  1.
         22    1    1    2    0    0  0.91794068762E+03  0.50430447567E+03 -0.26246666495E+03  0.10797346250E+04  0.00000000000E+00 0. -1.
<mgrwt>
<rscale>  0 0.25236313E+04</rscale>
<asrwt>0</asrwt>
<pdfrwt beam="1">  1        2 0.28366881E+00 0.25236313E+04</pdfrwt>
<pdfrwt beam="2">  1       -2 0.13284754E+00 0.25236313E+04</pdfrwt>
<totfact> 0.29853407E+00</totfact>
</mgrwt>
</event>
<event>
 6    1  0.1568961E-005  0.3080022E+04  0.7818608E-02  0.8221242E-01
         -2   -1    0    0    0  501 -0.00000000000E+00  0.00000000000E+00  0.96191201765E+03  0.96191201765E+03  0.00000000000E+00 0.  1.
          2   -1    0    0  501    0  0.00000000000E+00 -0.00000000000E+00 -0.24655418873E+04  0.24655418873E+04  0.00000000000E+00 0. -1.
         23    2    1    2    0    0 -0.45724551074E+03 -0.92499301757E+03 -0.20226059574E+04  0.22724553251E+04  0.91830312581E+02 0.  0.
         13    1    3    3    0    0 -0.39769140238E+03 -0.73864896767E+03 -0.16844225487E+04  0.18817651478E+04  0.00000000000E+00 0. -1.
        -13    1    3    3    0    0 -0.59554108358E+02 -0.18634404990E+03 -0.33818340870E+03  0.39069017735E+03  0.00000000000E+00 0.  1.
         22    1    1    2    0    0  0.45724551074E+03  0.92499301757E+03  0.51897608776E+03  0.11549985798E+04  0.00000000000E+00 0.  1.
<mgrwt>
<rscale>  0 0.30800223E+04</rscale>
<asrwt>0</asrwt>
<pdfrwt beam="1">  1        2 0.37931413E+00 0.30800223E+04</pdfrwt>
<pdfrwt beam="2">  1       -2 0.14798647E+00 0.30800223E+04</pdfrwt>
<totfact> 0.96234426E-01</totfact>
</mgrwt>
</event>
<event>
 6    1  0.1568961E-005  0.1716437E+04  0.7818608E-02  0.8752045E-01
          1   -1    0    0  501    0  0.00000000000E+00  0.00000000000E+00  0.48220641964E+03  0.48220641964E+03  0.00000000000E+00 0. -1.
         -1   -1    0    0    0  501 -0.00000000000E+00 -0.00000000000E+00 -0.15274350074E+04  0.15274350074E+04  0.00000000000E+00 0.  1.
         23    2    1    2    0    0  0.82016770315E+03 -0.48436026623E+02 -0.24366568562E+03  0.86180685879E+03  0.91197508432E+02 0.  0.
         13    1    3    3    0    0  0.40092445689E+03 -0.52491452542E+02 -0.15651920131E+03  0.43358278691E+03  0.00000000000E+00 0.  1.
        -13    1    3    3    0    0  0.41924324626E+03  0.40554259188E+01 -0.87146484312E+02  0.42822407188E+03  0.00000000000E+00 0. -1.
         22    1    1    2    0    0 -0.82016770315E+03  0.48436026623E+02 -0.80156290216E+03  0.11478345683E+04  0.00000000000E+00 0. -1.
<mgrwt>
<rscale>  0 0.17164370E+04</rscale>
<asrwt>0</asrwt>
<pdfrwt beam="1">  1        1 0.74185605E-01 0.17164370E+04</pdfrwt>
<pdfrwt beam="2">  1       -1 0.23499000E+00 0.17164370E+04</pdfrwt>
<totfact> 0.38732587E+00</totfact>
</mgrwt>
</event>
<event>
 6    1  0.1568961E-005  0.4147644E+04  0.7818608E-02  0.7975407E-01
          1   -1    0    0  501    0  0.00000000000E+00  0.00000000000E+00  0.31001158124E+04  0.31001158124E+04  0.00000000000E+00 0.  1.
         -1   -1    0    0    0  501 -0.00000000000E+00 -0.00000000000E+00 -0.13872827013E+04  0.13872827013E+04  0.00000000000E+00 0. -1.
         23    2    1    2    0    0 -0.15223790560E+03 -0.41796500474E+03  0.30471112779E+04  0.30809244289E+04  0.96628524380E+02 0.  0.
         13    1    3    3    0    0 -0.44174949155E+02 -0.25925128461E+03  0.18065450236E+04  0.18255869130E+04  0.00000000000E+00 0. -1.
        -13    1    3    3    0    0 -0.10806295644E+03 -0.15871372013E+03  0.12405662543E+04  0.12553375159E+04  0.00000000000E+00 0.  1.
         22    1    1    2    0    0  0.15223790560E+03  0.41796500474E+03 -0.13342781667E+04  0.14064740848E+04  0.00000000000E+00 0. -1.
<mgrwt>
<rscale>  0 0.41476437E+04</rscale>
<asrwt>0</asrwt>
<pdfrwt beam="1">  1        1 0.47694089E+00 0.41476437E+04</pdfrwt>
<pdfrwt beam="2">  1       -1 0.21342811E+00 0.41476437E+04</pdfrwt>
<totfact> 0.47516277E-02</totfact>
</mgrwt>
</event>
<event>
 6    1  0.1568961E-005  0.5081876E+04  0.7818608E-02  0.7816000E-01
          1   -1    0    0  501    0  0.00000000000E+00  0.00000000000E+00  0.27888307692E+04  0.27888307692E+04  0.00000000000E+00 0. -1.
         -1   -1    0    0    0  501 -0.00000000000E+00 -0.00000000000E+00 -0.23150799318E+04  0.23150799318E+04  0.00000000000E+00 0.  1.
         23    2    1    2    0    0  0.11487037630E+04 -0.18935660715E+04  0.14866538049E+04  0.26685287548E+04  0.76114239581E+02 0.  0.
         13    1    3    3    0    0  0.89730097515E+03 -0.15353688363E+04  0.12028983168E+04  0.21469678302E+04  0.00000000000E+00 0. -1.
        -13    1    3    3    0    0  0.25140278783E+03 -0.35819723521E+03  0.28375548811E+03  0.52156092460E+03  0.00000000000E+00 0.  1.
         22    1    1    2    0    0 -0.11487037630E+04  0.18935660715E+04 -0.10129029675E+04  0.24353819462E+04  0.00000000000E+00 0.  1.
<mgrwt>
<rscale>  0 0.50818761E+04</rscale>
<asrwt>0</asrwt>
<pdfrwt beam="1">  1        1 0.42905089E+00 0.50818761E+04</pdfrwt>
<pdfrwt beam="2">  1       -1 0.35616614E+00 0.50818761E+04</pdfrwt>
<totfact> 0.86099043E-03</totfact>
</mgrwt>
</event>
<event>
 6    1  0.1568961E-005  0.1475974E+04  0.7818608E-02  0.8900589E-01
          1   -1    0    0  501    0  0.00000000000E+00  0.00000000000E+00  0.15995622924E+04  0.15995622924E+04  0.00000000000E+00 0. -1.
         -1   -1    0    0    0  501 -0.00000000000E+00 -0.00000000000E+00 -0.34048370627E+03  0.34048370627E+03  0.00000000000E+00 0.  1.
         23    2    1    2    0    0 -0.38059398241E+03  0.40559320704E+03  0.57457320422E+00  0.56411359497E+03  0.94160442100E+02 0.  0.
         11    1    3    3    0    0 -0.11226707874E+03  0.70307053497E+02 -0.21075932974E+02  0.13413118091E+03  0.00000000000E+00 0.  1.
        -11    1    3    3    0    0 -0.26832690367E+03  0.33528615354E+03  0.21650506178E+02  0.42998241406E+03  0.00000000000E+00 0. -1.
         22    1    1    2    0    0  0.38059398241E+03 -0.40559320704E+03  0.12585040130E+04  0.13759324037E+04  0.00000000000E+00 0. -1.
<mgrwt>
<rscale>  0 0.14759741E+04</rscale>
<asrwt>0</asrwt>
<pdfrwt beam="1">  1        1 0.24608650E+00 0.14759741E+04</pdfrwt>
<pdfrwt beam="2">  1       -1 0.52382110E-01 0.14759741E+04</pdfrwt>
<totfact> 0.19870440E+01</totfact>
</mgrwt>
</event>
<event>
 6    1  0.1568961E-005  0.3779163E+04  0.7818608E-02  0.8050641E-01
          2   -1    0    0  501    0  0.00000000000E+00  0.00000000000E+00  0.10087953790E+04  0.10087953790E+04  0.00000000000E+00 0. -1.
         -2   -1    0    0    0  501 -0.00000000000E+00 -0.00000000000E+00 -0.35393888396E+04  0.35393888396E+04  0.00000000000E+00 0.  1.
         23    2    1    2    0    0  0.13102700431E+04  0.13349758873E+04 -0.95348268830E+03  0.21015034887E+04  0.90661295750E+02 0.  0.
         11    1    3    3    0    0  0.40154175591E+03  0.37737045310E+03 -0.32020683933E+03  0.63731990441E+03  0.00000000000E+00 0. -1.
        -11    1    3    3    0    0  0.90872828723E+03  0.95760543423E+03 -0.63327584897E+03  0.14641835843E+04  0.00000000000E+00 0.  1.
         22    1    1    2    0    0 -0.13102700431E+04 -0.13349758873E+04 -0.15771107723E+04  0.24466807298E+04  0.00000000000E+00 0. -1.
<mgrwt>
<rscale>  0 0.37791635E+04</rscale>
<asrwt>0</asrwt>
<pdfrwt beam="1">  1        2 0.15519929E+00 0.37791635E+04</pdfrwt>
<pdfrwt beam="2">  1       -2 0.54452136E+00 0.37791635E+04</pdfrwt>
<totfact> 0.18191511E-02</totfact>
</mgrwt>
</event>
<event>
 6    1  0.1568961E-005  0.1982297E+04  0.7818608E-02  0.8614942E-01
         -2   -1    0    0    0  501 -0.00000000000E+00  0.00000000000E+00  0.57671083401E+03  0.57671083401E+03  0.00000000000E+00 0.  1.
          2   -1    0    0  501    0  0.00000000000E+00 -0.00000000000E+00 -0.17034110032E+04  0.17034110032E+04  0.00000000000E+00 0. -1.
         23    2    1    2    0    0  0.12317993868E+03  0.92125845898E+03 -0.95348478051E+03  0.13346621520E+04  0.91100975800E+02 0.  0.
         13    1    3    3    0    0  0.66645850286E+02  0.64965221151E+03 -0.72004579985E+03  0.97208827745E+03  0.00000000000E+00 0.  1.
        -13    1    3    3    0    0  0.56534088399E+02  0.27160624747E+03 -0.23343898066E+03  0.36257387455E+03  0.00000000000E+00 0. -1.
         22    1    1    2    0    0 -0.12317993868E+03 -0.92125845898E+03 -0.17321538873E+03  0.94545968525E+03  0.00000000000E+00 0.  1.
<mgrwt>
<rscale>  0 0.19822972E+04</rscale>
<asrwt>0</asrwt>
<pdfrwt beam="1">  1        2 0.26206323E+00 0.19822972E+04</pdfrwt>
<pdfrwt beam="2">  1       -2 0.88724744E-01 0.19822972E+04</pdfrwt>
<totfact> 0.99215450E+00</totfact>
</mgrwt>
</event>
<event>
 6    1  0.1568961E-005  0.2619216E+04  0.7818608E-02  0.8361703E-01
         -1   -1    0    0    0  501 -0.00000000000E+00  0.00000000000E+00  0.16717790785E+04  0.16717790785E+04  0.00000000000E+00 0.  1.
          1   -1    0    0  501    0  0.00000000000E+00 -0.00000000000E+00 -0.10258971922E+04  0.10258971922E+04  0.00000000000E+00 0. -1.
         23    2    1    2    0    0  0.88146399901E+02  0.70847154841E+03 -0.80551290529E+03  0.10801941027E+04  0.90920494199E+02 0.  0.
         13    1    3    3    0    0  0.79184288302E+02  0.27715472914E+03 -0.31667944735E+03  0.42821813106E+03  0.00000000000E+00 0.  1.
        -13    1    3    3    0    0  0.89621115986E+01  0.43131681927E+03 -0.48883345794E+03  0.65197597167E+03  0.00000000000E+00 0. -1.
         22    1    1    2    0    0 -0.88146399901E+02 -0.70847154841E+03  0.14513947916E+04  0.16174821680E+04  0.00000000000E+00 0.  1.
<mgrwt>
<rscale>  0 0.26192163E+04</rscale>
<asrwt>0</asrwt>
<pdfrwt beam="1">  1        1 0.15783034E+00 0.26192163E+04</pdfrwt>
<pdfrwt beam="2">  1       -1 0.25719678E+00 0.26192163E+04</pdfrwt>
<totfact> 0.79470004E-01</totfact>
</mgrwt>
</event>
<event>
 6    1  0.1568961E-005  0.2517026E+04  0.7818608E-02  0.8396945E-01
         -2   -1    0    0    0  501 -0.00000000000E+00  0.00000000000E+00  0.15220157575E+04  0.15220157575E+04  0.00000000000E+00 0.  1.
          2   -1    0    0  501    0  0.00000000000E+00 -0.00000000000E+00 -0.10406300164E+04  0.10406300164E+04  0.00000000000E+00 0. -1.
         23    2    1    2    0    0 -0.57737669830E+02  0.12552096299E+04  0.21192922337E+03  0.12775420160E+04  0.91185269485E+02 0.  0.
         13    1    3    3    0    0 -0.27922879653E+02  0.46277889650E+03  0.34216527542E+02  0.46488145264E+03  0.00000000000E+00 0.  1.
        -13    1    3    3    0    0 -0.29814790177E+02  0.79243073344E+03  0.17771269583E+03  0.81266056338E+03  0.00000000000E+00 0. -1.
         22    1    1    2    0    0  0.57737669830E+02 -0.12552096299E+04  0.26945651773E+03  0.12851037579E+04  0.00000000000E+00 0. -1.
<mgrwt>
<rscale>  0 0.25170262E+04</rscale>
<asrwt>0</asrwt>
<pdfrwt beam="1">  1        2 0.16009692E+00 0.25170262E+04</pdfrwt>
<pdfrwt beam="2">  1       -2 0.23415627E+00 0.25170262E+04</pdfrwt>
<totfact> 0.17018285E+00</totfact>
</mgrwt>
</event>
<event>
 6    1  0.1568961E-005  0.4449284E+04  0.7818608E-02  0.7919576E-01
         -2   -1    0    0    0  501 -0.00000000000E+00  0.00000000000E+00  0.33143023060E+04  0.33143023060E+04  0.00000000000E+00 0.  1.
          2   -1    0    0  501    0  0.00000000000E+00 -0.00000000000E+00 -0.14932349528E+04  0.14932349528E+04  0.00000000000E+00 0. -1.
         23    2    1    2    0    0  0.18345072459E+04 -0.10890650076E+04  0.15884633071E+04  0.26614748020E+04  0.93557562970E+02 0.  0.
         11    1    3    3    0    0  0.43602797549E+03 -0.30486933511E+03  0.40627923288E+03  0.66942402255E+03  0.00000000000E+00 0. -1.
        -11    1    3    3    0    0  0.13984792704E+04 -0.78419567245E+03  0.11821840742E+04  0.19920507795E+04  0.00000000000E+00 0.  1.
         22    1    1    2    0    0 -0.18345072459E+04  0.10890650076E+04  0.23260404615E+03  0.21460624568E+04  0.00000000000E+00 0. -1.
<mgrwt>
<rscale>  0 0.44492840E+04</rscale>
<asrwt>0</asrwt>
<pdfrwt beam="1">  1        2 0.22972845E+00 0.44492840E+04</pdfrwt>
<pdfrwt beam="2">  1       -2 0.50989266E+00 0.44492840E+04</pdfrwt>
<totfact> 0.14036568E-02</totfact>
</mgrwt>
</event>
<event>
 6    1  0.1568961E-005  0.7388614E+03  0.7818608E-02  0.9652989E-01
         -1   -1    0    0    0  501 -0.00000000000E+00  0.00000000000E+00  0.14852970364E+03  0.14852970364E+03  0.00000000000E+00 0.  1.
          1   -1    0    0  501    0  0.00000000000E+00 -0.00000000000E+00 -0.91886708783E+03  0.91886708783E+03  0.00000000000E+00 0. -1.
         23    2    1    2    0    0 -0.83439784514E+02  0.17878120105E+03  0.50821321297E+02  0.22286938808E+03  0.90349554254E+02 0.  0.
         11    1    3    3    0    0 -0.12468394014E+02  0.12913895530E+03  0.38880663060E+02  0.13544015868E+03  0.00000000000E+00 0.  1.
        -11    1    3    3    0    0 -0.70971390500E+02  0.49642245758E+02  0.11940658237E+02  0.87429229394E+02  0.00000000000E+00 0. -1.
         22    1    1    2    0    0  0.83439784514E+02 -0.17878120105E+03 -0.82115870548E+03  0.84452740339E+03  0.00000000000E+00 0. -1.
<mgrwt>
<rscale>  0 0.73886144E+03</rscale>
<asrwt>0</asrwt>
<pdfrwt beam="1">  1        1 0.14136417E+00 0.73886144E+03</pdfrwt>
<pdfrwt beam="2">  1       -1 0.22850724E-01 0.73886144E+03</pdfrwt>
<totfact> 0.29000657E+02</totfact>
</mgrwt>
</event>
<event>
 6    1  0.1568961E-005  0.1733635E+04  0.7818608E-02  0.8742410E-01
          1   -1    0    0  501    0  0.00000000000E+00  0.00000000000E+00  0.10846522322E+04  0.10846522322E+04  0.00000000000E+00 0. -1.
         -1   -1    0    0    0  501 -0.00000000000E+00 -0.00000000000E+00 -0.69273109384E+03  0.69273109384E+03  0.00000000000E+00 0.  1.
         23    2    1    2    0    0 -0.45758971013E+01 -0.29135359972E+03 -0.63776606159E+03  0.70726016086E+03  0.92539326269E+02 0.  0.
         13    1    3    3    0    0 -0.39757062360E+02 -0.20026418691E+03 -0.37571851165E+03  0.42761053374E+03  0.00000000000E+00 0. -1.
        -13    1    3    3    0    0  0.35181165259E+02 -0.91089412810E+02 -0.26204754995E+03  0.27964962712E+03  0.00000000000E+00 0.  1.
         22    1    1    2    0    0  0.45758971013E+01  0.29135359972E+03  0.10296871999E+04  0.10701231651E+04  0.00000000000E+00 0. -1.
<mgrwt>
<rscale>  0 0.17336347E+04</rscale>
<asrwt>0</asrwt>
<pdfrwt beam="1">  1        1 0.16686957E+00 0.17336347E+04</pdfrwt>
<pdfrwt beam="2">  1       -1 0.10657402E+00 0.17336347E+04</pdfrwt>
<totfact> 0.10162237E+01</totfact>
</mgrwt>
</event>
<event>
 6    1  0.1568961E-005  0.5654967E+04  0.7818608E-02  0.7734718E-01
         -2   -1    0    0    0  501 -0.00000000000E+00  0.00000000000E+00  0.24481184422E+04  0.24481184422E+04  0.00000000000E+00 0.  1.
          2   -1    0    0  501    0  0.00000000000E+00 -0.00000000000E+00 -0.32656359846E+04  0.32656359846E+04  0.00000000000E+00 0. -1.
         23    2    1    2    0    0  0.37064776451E+03 -0.15829925007E+04 -0.27453730423E+04  0.31918757914E+04  0.88050575525E+02 0.  0.
         11    1    3    3    0    0  0.20790542209E+03 -0.10011646728E+04 -0.16587726927E+04  0.19486103286E+04  0.00000000000E+00 0. -1.
        -11    1    3    3    0    0  0.16274234242E+03 -0.58182782787E+03 -0.10866003497E+04  0.12432654629E+04  0.00000000000E+00 0.  1.
         22    1    1    2    0    0 -0.37064776451E+03  0.15829925007E+04  0.19278555000E+04  0.25218786353E+04  0.00000000000E+00 0.  1.
<mgrwt>
<rscale>  0 0.56549673E+04</rscale>
<asrwt>0</asrwt>
<pdfrwt beam="1">  1        2 0.50240553E+00 0.56549673E+04</pdfrwt>
<pdfrwt beam="2">  1       -2 0.37663361E+00 0.56549673E+04</pdfrwt>
<totfact> 0.85369520E-03</totfact>
</mgrwt>
</event>
<event>
 6    1  0.1568961E-005  0.2194169E+04  0.7818608E-02  0.8520859E-01
         -2   -1    0    0    0  501 -0.00000000000E+00  0.00000000000E+00  0.10285256157E+04  0.10285256157E+04  0.00000000000E+00 0.  1.
          2   -1    0    0  501    0  0.00000000000E+00 -0.00000000000E+00 -0.11702133428E+04  0.11702133428E+04  0.00000000000E+00 0. -1.
         23    2    1    2    0    0  0.20685608363E+03 -0.18637036063E+03 -0.11321582943E+04  0.11698777942E+04  0.96479528492E+02 0.  0.
         11    1    3    3    0    0  0.87976977238E+02 -0.13911893510E+03 -0.56614035630E+03  0.58958369182E+03  0.00000000000E+00 0. -1.
        -11    1    3    3    0    0  0.11887910639E+03 -0.47251425521E+02 -0.56601793801E+03  0.58029410242E+03  0.00000000000E+00 0.  1.
         22    1    1    2    0    0 -0.20685608363E+03  0.18637036063E+03  0.99047056722E+03  0.10288611642E+04  0.00000000000E+00 0.  1.
<mgrwt>
<rscale>  0 0.21941690E+04</rscale>
<asrwt>0</asrwt>
<pdfrwt beam="1">  1        2 0.18003282E+00 0.21941690E+04</pdfrwt>
<pdfrwt beam="2">  1       -2 0.15823471E+00 0.21941690E+04</pdfrwt>
<totfact> 0.46861495E+00</totfact>
</mgrwt>
</event>
<event>
 6    1  0.1568961E-005  0.2764053E+04  0.7818608E-02  0.8314516E-01
          1   -1    0    0  501    0  0.00000000000E+00  0.00000000000E+00  0.43368021747E+04  0.43368021747E+04  0.00000000000E+00 0. -1.
         -1   -1    0    0    0  501 -0.00000000000E+00 -0.00000000000E+00 -0.44041607512E+03  0.44041607512E+03  0.00000000000E+00 0.  1.
         23    2    1    2    0    0 -0.88164157415E+03 -0.24357512142E+02  0.11538612178E+03  0.89471313252E+03  0.96501185172E+02 0.  0.
         11    1    3    3    0    0 -0.78114392292E+03 -0.39176523954E+02  0.12735321602E+03  0.79242631832E+03  0.00000000000E+00 0. -1.
        -11    1    3    3    0    0 -0.10049765123E+03  0.14819011812E+02 -0.11967094240E+02  0.10228681420E+03  0.00000000000E+00 0.  1.
         22    1    1    2    0    0  0.88164157415E+03  0.24357512142E+02  0.37809999778E+04  0.38825051173E+04  0.00000000000E+00 0. -1.
<mgrwt>
<rscale>  0 0.27640531E+04</rscale>
<asrwt>0</asrwt>
<pdfrwt beam="1">  1        1 0.66720031E+00 0.27640531E+04</pdfrwt>
<pdfrwt beam="2">  1       -1 0.67756322E-01 0.27640531E+04</pdfrwt>
<totfact> 0.89919749E-02</totfact>
</mgrwt>
</event>
<event>
 6    1  0.1568961E-005  0.3448869E+04  0.7818608E-02  0.8126015E-01
          2   -1    0    0  501    0  0.00000000000E+00  0.00000000000E+00  0.25159199300E+04  0.25159199300E+04  0.00000000000E+00 0. -1.
         -2   -1    0    0    0  501 -0.00000000000E+00 -0.00000000000E+00 -0.11819430046E+04  0.11819430046E+04  0.00000000000E+00 0.  1.
         23    2    1    2    0    0  0.94339843552E+03  0.50692588899E+03  0.21148594537E+04  0.23724377243E+04  0.94105163682E+02 0.  0.
         13    1    3    3    0    0  0.47371669713E+03  0.29713661330E+03  0.10389043614E+04  0.11798389501E+04  0.00000000000E+00 0. -1.
        -13    1    3    3    0    0  0.46968173839E+03  0.20978927570E+03  0.10759550923E+04  0.11925987742E+04  0.00000000000E+00 0.  1.
         22    1    1    2    0    0 -0.94339843552E+03 -0.50692588899E+03 -0.78088252831E+03  0.13254252103E+04  0.00000000000E+00 0.  1.
<mgrwt>
<rscale>  0 0.34488688E+04</rscale>
<asrwt>0</asrwt>
<pdfrwt beam="1">  1        2 0.38706460E+00 0.34488688E+04</pdfrwt>
<pdfrwt beam="2">  1       -2 0.18183739E+00 0.34488688E+04</pdfrwt>
<totfact> 0.49514922E-01</totfact>
</mgrwt>
</event>
<event>
 6    1  0.1991367E-005  0.4297566E+04  0.7818608E-02  0.7947068E-01
         -2   -1    0    0    0  501 -0.00000000000E+00  0.00000000000E+00  0.20727165990E+04  0.20727165990E+04  0.00000000000E+00 0.  1.
          2   -1    0    0  501    0  0.00000000000E+00 -0.00000000000E+00 -0.22276413021E+04  0.22276413021E+04  0.00000000000E+00 0. -1.
         23    2    1    2    0    0  0.19948029183E+04  0.79098394531E+03  0.12781074566E+02  0.21479128931E+04  0.92044313634E+02 0.  0.
         13    1    3    3    0    0  0.14846056172E+04  0.57242511948E+03  0.46844628283E+02  0.15918287519E+04  0.00000000000E+00 0. -1.
        -13    1    3    3    0    0  0.51019730109E+03  0.21855882583E+03 -0.34063553717E+02  0.55608414119E+03  0.00000000000E+00 0.  1.
         22    1    1    2    0    0 -0.19948029183E+04 -0.79098394531E+03 -0.16770577764E+03  0.21524450080E+04  0.00000000000E+00 0. -1.
<mgrwt>
<rscale>  0 0.42975663E+04</rscale>
<asrwt>0</asrwt>
<pdfrwt beam="1">  1        2 0.34271405E+00 0.42975663E+04</pdfrwt>
<pdfrwt beam="2">  1       -2 0.31887948E+00 0.42975663E+04</pdfrwt>
<totfact> 0.93348805E-02</totfact>
</mgrwt>
</event>
<event>
 6    1  0.1568961E-005  0.7908424E+03  0.7818608E-02  0.9573368E-01
         -2   -1    0    0    0  501 -0.00000000000E+00  0.00000000000E+00  0.16579054816E+03  0.16579054816E+03  0.00000000000E+00 0. -1.
          2   -1    0    0  501    0  0.00000000000E+00 -0.00000000000E+00 -0.94310518018E+03  0.94310518018E+03  0.00000000000E+00 0.  1.
         23    2    1    2    0    0 -0.37583762040E+03 -0.53587241609E+02 -0.26857959309E+03  0.47412265928E+03  0.92367682934E+02 0.  0.
         11    1    3    3    0    0 -0.32814601849E+03 -0.56676704466E+02 -0.19355616804E+03  0.38517015521E+03  0.00000000000E+00 0.  1.
        -11    1    3    3    0    0 -0.47691601901E+02  0.30894628572E+01 -0.75023425057E+02  0.88952504068E+02  0.00000000000E+00 0. -1.
         22    1    1    2    0    0  0.37583762040E+03  0.53587241609E+02 -0.50873503892E+03  0.63477306905E+03  0.00000000000E+00 0. -1.
<mgrwt>
<rscale>  0 0.79084240E+03</rscale>
<asrwt>0</asrwt>
<pdfrwt beam="1">  1        2 0.14509310E+00 0.79084240E+03</pdfrwt>
<pdfrwt beam="2">  1       -2 0.25506238E-01 0.79084240E+03</pdfrwt>
<totfact> 0.38102000E+02</totfact>
</mgrwt>
</event>
<event>
 6    1  0.1568961E-005  0.1716108E+04  0.7818608E-02  0.8752230E-01
          2   -1    0    0  501    0  0.00000000000E+00  0.00000000000E+00  0.42425916247E+04  0.42425916247E+04  0.00000000000E+00 0. -1.
         -2   -1    0    0    0  501 -0.00000000000E+00 -0.00000000000E+00 -0.17353937554E+03  0.17353937554E+03  0.00000000000E+00 0.  1.
         23    2    1    2    0    0  0.52608297067E+03 -0.58575164739E+03  0.11783910750E+04  0.14201686660E+04  0.91680040224E+02 0.  0.
         13    1    3    3    0    0  0.24758006137E+03 -0.34308100779E+03  0.64320866130E+03  0.76988170953E+03  0.00000000000E+00 0.  1.
        -13    1    3    3    0    0  0.27850290930E+03 -0.24267063959E+03  0.53518241368E+03  0.65028695645E+03  0.00000000000E+00 0. -1.
         22    1    1    2    0    0 -0.52608297067E+03  0.58575164739E+03  0.28906611742E+04  0.29959623342E+04  0.00000000000E+00 0.  1.
<mgrwt>
<rscale>  0 0.17161080E+04</rscale>
<asrwt>0</asrwt>
<pdfrwt beam="1">  1        2 0.65270633E+00 0.17161080E+04</pdfrwt>
<pdfrwt beam="2">  1       -2 0.26698369E-01 0.17161080E+04</pdfrwt>
<totfact> 0.26352872E+00</totfact>
</mgrwt>
</event>
<event>
 6    1  0.1568961E-005  0.8559121E+03  0.7818608E-02  0.9482436E-01
         -3   -1    0    0    0  501 -0.00000000000E+00  0.00000000000E+00  0.33737996592E+03  0.33737996592E+03  0.00000000000E+00 0.  1.
          3   -1    0    0  501    0  0.00000000000E+00 -0.00000000000E+00 -0.54284901187E+03  0.54284901187E+03  0.00000000000E+00 0. -1.
         23    2    1    2    0    0  0.33200222315E+03  0.24524155823E+03 -0.20049446906E+03  0.46744132720E+03  0.89075609419E+02 0.  0.
         13    1    3    3    0    0  0.58846474827E+02  0.66872686356E+02 -0.99389035693E+01  0.89630606292E+02  0.00000000000E+00 0.  1.
        -13    1    3    3    0    0  0.27315574832E+03  0.17836887188E+03 -0.19055556550E+03  0.37781072091E+03  0.00000000000E+00 0. -1.
         22    1    1    2    0    0 -0.33200222315E+03 -0.24524155823E+03 -0.49745768874E+01  0.41278765058E+03  0.00000000000E+00 0.  1.
<mgrwt>
<rscale>  0 0.85591210E+03</rscale>
<asrwt>0</asrwt>
<pdfrwt beam="1">  1        3 0.83515231E-01 0.85591210E+03</pdfrwt>
<pdfrwt beam="2">  1       -3 0.51904611E-01 0.85591210E+03</pdfrwt>
<totfact> 0.12777597E+01</totfact>
</mgrwt>
</event>
<event>
 6    1  0.1568961E-005  0.3131342E+04  0.7818608E-02  0.8207189E-01
          2   -1    0    0  501    0  0.00000000000E+00  0.00000000000E+00  0.99650434486E+03  0.99650434486E+03  0.00000000000E+00 0. -1.
         -2   -1    0    0    0  501 -0.00000000000E+00 -0.00000000000E+00 -0.24599254389E+04  0.24599254389E+04  0.00000000000E+00 0.  1.
         23    2    1    2    0    0 -0.43582658802E+02  0.74946185791E+03 -0.22472527898E+04  0.23710797702E+04  0.91003577656E+02 0.  0.
         13    1    3    3    0    0 -0.46638718714E+02  0.15768113842E+03 -0.49031951131E+03  0.51715735968E+03  0.00000000000E+00 0.  1.
        -13    1    3    3    0    0  0.30560599122E+01  0.59178071949E+03 -0.17569332785E+04  0.18539224106E+04  0.00000000000E+00 0. -1.
         22    1    1    2    0    0  0.43582658802E+02 -0.74946185791E+03  0.78383169573E+03  0.10853500135E+04  0.00000000000E+00 0. -1.
<mgrwt>
<rscale>  0 0.31313425E+04</rscale>
<asrwt>0</asrwt>
<pdfrwt beam="1">  1        2 0.15330836E+00 0.31313425E+04</pdfrwt>
<pdfrwt beam="2">  1       -2 0.37845006E+00 0.31313425E+04</pdfrwt>
<totfact> 0.21954171E-01</totfact>
</mgrwt>
</event>
<event>
 6    1  0.1568961E-005  0.1260407E+04  0.7818608E-02  0.9061566E-01
         -1   -1    0    0    0  501 -0.00000000000E+00  0.00000000000E+00  0.30798706043E+03  0.30798706043E+03  0.00000000000E+00 0.  1.
          1   -1    0    0  501    0  0.00000000000E+00 -0.00000000000E+00 -0.12895233330E+04  0.12895233330E+04  0.00000000000E+00 0. -1.
         23    2    1    2    0    0  0.32608033219E+03  0.33502502350E+03  0.33481142354E+02  0.47999954247E+03  0.10348151748E+03 0.  0.
         13    1    3    3    0    0  0.66106708566E+02  0.98711867557E+02  0.48573494467E+02  0.12834918807E+03  0.00000000000E+00 0.  1.
        -13    1    3    3    0    0  0.25997362362E+03  0.23631315595E+03 -0.15092352113E+02  0.35165035440E+03  0.00000000000E+00 0. -1.
         22    1    1    2    0    0 -0.32608033219E+03 -0.33502502350E+03 -0.10150174150E+04  0.11175108510E+04  0.00000000000E+00 0. -1.
<mgrwt>
<rscale>  0 0.12604071E+04</rscale>
<asrwt>0</asrwt>
<pdfrwt beam="1">  1        1 0.19838820E+00 0.12604071E+04</pdfrwt>
<pdfrwt beam="2">  1       -1 0.47382625E-01 0.12604071E+04</pdfrwt>
<totfact> 0.40299796E+01</totfact>
</mgrwt>
</event>
<event>
 6    1  0.1568961E-005  0.7246155E+03  0.7818608E-02  0.9676038E-01
          1   -1    0    0  501    0  0.00000000000E+00  0.00000000000E+00  0.10946135891E+04  0.10946135891E+04  0.00000000000E+00 0. -1.
         -1   -1    0    0    0  501 -0.00000000000E+00 -0.00000000000E+00 -0.11992077912E+03  0.11992077912E+03  0.00000000000E+00 0.  1.
         23    2    1    2    0    0  0.12306804323E+03  0.21930692969E+03  0.91868906106E+03  0.95689568211E+03  0.91752290760E+02 0.  0.
         11    1    3    3    0    0  0.44700652175E+02  0.17431401847E+02  0.23044892347E+03  0.23539054443E+03  0.00000000000E+00 0. -1.
        -11    1    3    3    0    0  0.78367391059E+02  0.20187552784E+03  0.68824013759E+03  0.72150513769E+03  0.00000000000E+00 0.  1.
         22    1    1    2    0    0 -0.12306804323E+03 -0.21930692969E+03  0.56003748884E+02  0.25763868608E+03  0.00000000000E+00 0.  1.
<mgrwt>
<rscale>  0 0.72461552E+03</rscale>
<asrwt>0</asrwt>
<pdfrwt beam="1">  1        1 0.16840208E+00 0.72461552E+03</pdfrwt>
<pdfrwt beam="2">  1       -1 0.18449351E-01 0.72461552E+03</pdfrwt>
<totfact> 0.30337016E+02</totfact>
</mgrwt>
</event>
<event>
 6    1  0.1568961E-005  0.3111376E+04  0.7818608E-02  0.8212623E-01
          2   -1    0    0  501    0  0.00000000000E+00  0.00000000000E+00  0.19746459048E+04  0.19746459048E+04  0.00000000000E+00 0. -1.
         -2   -1    0    0    0  501 -0.00000000000E+00 -0.00000000000E+00 -0.12256200154E+04  0.12256200154E+04  0.00000000000E+00 0.  1.
         23    2    1    2    0    0  0.87558580567E+02  0.68750804585E+03 -0.10562790128E+04  0.12664976796E+04  0.89203146973E+02 0.  0.
         11    1    3    3    0    0  0.89538653215E+02  0.38663792553E+03 -0.63464989947E+03  0.74852291266E+03  0.00000000000E+00 0. -1.
        -11    1    3    3    0    0 -0.19800726478E+01  0.30087012032E+03 -0.42162911336E+03  0.51797476697E+03  0.00000000000E+00 0.  1.
         22    1    1    2    0    0 -0.87558580567E+02 -0.68750804585E+03  0.18053049022E+04  0.19337682405E+04  0.00000000000E+00 0. -1.
<mgrwt>
<rscale>  0 0.31113763E+04</rscale>
<asrwt>0</asrwt>
<pdfrwt beam="1">  1        2 0.30379168E+00 0.31113763E+04</pdfrwt>
<pdfrwt beam="2">  1       -2 0.18855693E+00 0.31113763E+04</pdfrwt>
<totfact> 0.92801536E-01</totfact>
</mgrwt>
</event>
<event>
 6    1  0.1790084E-005  0.3222643E+04  0.7818608E-02  0.8182863E-01
          2   -1    0    0  501    0  0.00000000000E+00  0.00000000000E+00  0.32123127594E+04  0.32123127594E+04  0.00000000000E+00 0. -1.
         -2   -1    0    0    0  501 -0.00000000000E+00 -0.00000000000E+00 -0.80825161625E+03  0.80825161625E+03  0.00000000000E+00 0.  1.
         23    2    1    2    0    0 -0.61423588322E+03  0.46324175933E+03  0.29674999063E+04  0.30669701812E+04  0.91497272847E+02 0.  0.
         11    1    3    3    0    0 -0.31206498995E+03  0.18681320220E+03  0.13005127253E+04  0.13504136696E+04  0.00000000000E+00 0. -1.
        -11    1    3    3    0    0 -0.30217089328E+03  0.27642855713E+03  0.16669871810E+04  0.17165565116E+04  0.00000000000E+00 0.  1.
         22    1    1    2    0    0  0.61423588322E+03 -0.46324175933E+03 -0.56343876314E+03  0.95359419442E+03  0.00000000000E+00 0.  1.
<mgrwt>
<rscale>  0 0.32226430E+04</rscale>
<asrwt>0</asrwt>
<pdfrwt beam="1">  1        2 0.49420196E+00 0.32226430E+04</pdfrwt>
<pdfrwt beam="2">  1       -2 0.12434640E+00 0.32226430E+04</pdfrwt>
<totfact> 0.51928282E-01</totfact>
</mgrwt>
</event>
<event>
 6    1  0.1568961E-005  0.6749888E+04  0.7818608E-02  0.7603794E-01
         -2   -1    0    0    0  501 -0.00000000000E+00  0.00000000000E+00  0.21619587337E+04  0.21619587337E+04  0.00000000000E+00 0. -1.
          2   -1    0    0  501    0  0.00000000000E+00 -0.00000000000E+00 -0.52684844080E+04  0.52684844080E+04  0.00000000000E+00 0.  1.
         23    2    1    2    0    0  0.13783096589E+04  0.30009719715E+04 -0.23159042000E+04  0.40347616777E+04  0.10158367219E+03 0.  0.
         11    1    3    3    0    0  0.93215041994E+03  0.20782572551E+04 -0.15451176750E+04  0.27523528578E+04  0.00000000000E+00 0.  1.
        -11    1    3    3    0    0  0.44615923898E+03  0.92271471635E+03 -0.77078652498E+03  0.12824088199E+04  0.00000000000E+00 0. -1.
         22    1    1    2    0    0 -0.13783096589E+04 -0.30009719715E+04 -0.79062147436E+03  0.33956814640E+04  0.00000000000E+00 0.  1.
<mgrwt>
<rscale>  0 0.67498877E+04</rscale>
<asrwt>0</asrwt>
<pdfrwt beam="1">  1        2 0.81053605E+00 0.67498877E+04</pdfrwt>
<pdfrwt beam="2">  1       -2 0.33260904E+00 0.67498877E+04</pdfrwt>
<totfact> 0.17947085E-04</totfact>
</mgrwt>
</event>
<event>
 6    1  0.1568961E-005  0.2826995E+04  0.7818608E-02  0.8294936E-01
          1   -1    0    0  501    0  0.00000000000E+00  0.00000000000E+00  0.82640290835E+03  0.82640290835E+03  0.00000000000E+00 0. -1.
         -1   -1    0    0    0  501 -0.00000000000E+00 -0.00000000000E+00 -0.24176770520E+04  0.24176770520E+04  0.00000000000E+00 0.  1.
         23    2    1    2    0    0  0.19112556023E+03 -0.12711343526E+04 -0.12751958928E+03  0.12960324975E+04  0.10548680796E+03 0.  0.
         13    1    3    3    0    0  0.36238773846E+02 -0.44077053285E+03 -0.33602389922E+01  0.44227050836E+03  0.00000000000E+00 0.  1.
        -13    1    3    3    0    0  0.15488678638E+03 -0.83036381977E+03 -0.12415935028E+03  0.85376198911E+03  0.00000000000E+00 0. -1.
         22    1    1    2    0    0 -0.19112556023E+03  0.12711343526E+04 -0.14637545544E+04  0.19480474629E+04  0.00000000000E+00 0.  1.
<mgrwt>
<rscale>  0 0.28269951E+04</rscale>
<asrwt>0</asrwt>
<pdfrwt beam="1">  1        1 0.12713891E+00 0.28269951E+04</pdfrwt>
<pdfrwt beam="2">  1       -1 0.37195031E+00 0.28269951E+04</pdfrwt>
<totfact> 0.20080855E-01</totfact>
</mgrwt>
</event>
<event>
 6    1  0.1568961E-005  0.3144225E+04  0.7818608E-02  0.8203704E-01
          2   -1    0    0  501    0  0.00000000000E+00  0.00000000000E+00  0.15533210346E+04  0.15533210346E+04  0.00000000000E+00 0.  1.
         -2   -1    0    0    0  501 -0.00000000000E+00 -0.00000000000E+00 -0.15911316967E+04  0.15911316967E+04  0.00000000000E+00 0. -1.
         23    2    1    2    0    0  0.10819483784E+04 -0.78109834101E+03  0.80971281201E+03  0.15636229014E+04  0.92492313588E+02 0.  0.
         11    1    3    3    0    0  0.91234238205E+03 -0.68913241537E+03  0.66755972818E+03  0.13239743573E+04  0.00000000000E+00 0.  1.
        -11    1    3    3    0    0  0.16960599636E+03 -0.91965925642E+02  0.14215308383E+03  0.23964854417E+03  0.00000000000E+00 0. -1.
         22    1    1    2    0    0 -0.10819483784E+04  0.78109834101E+03 -0.84752347414E+03  0.15808298299E+04  0.00000000000E+00 0. -1.
<mgrwt>
<rscale>  0 0.31442254E+04</rscale>
<asrwt>0</asrwt>
<pdfrwt beam="1">  1        2 0.23897247E+00 0.31442254E+04</pdfrwt>
<pdfrwt beam="2">  1       -2 0.24478949E+00 0.31442254E+04</pdfrwt>
<totfact> 0.69335557E-01</totfact>
</mgrwt>
</event>
<event>
 6    1  0.1568961E-005  0.2323380E+04  0.7818608E-02  0.8468760E-01
          1   -1    0    0  501    0  0.00000000000E+00  0.00000000000E+00  0.10999847654E+04  0.10999847654E+04  0.00000000000E+00 0. -1.
         -1   -1    0    0    0  501 -0.00000000000E+00 -0.00000000000E+00 -0.12268561759E+04  0.12268561759E+04  0.00000000000E+00 0.  1.
         23    2    1    2    0    0  0.82324394483E+03 -0.28313987243E+03 -0.83109888363E+03  0.12070931509E+04  0.91922470211E+02 0.  0.
         11    1    3    3    0    0  0.43654103624E+03 -0.10825548743E+03 -0.39546973220E+03  0.59890202534E+03  0.00000000000E+00 0. -1.
        -11    1    3    3    0    0  0.38670290860E+03 -0.17488438501E+03 -0.43562915144E+03  0.60819112557E+03  0.00000000000E+00 0.  1.
         22    1    1    2    0    0 -0.82324394483E+03  0.28313987243E+03  0.70422747318E+03  0.11197477904E+04  0.00000000000E+00 0. -1.
<mgrwt>
<rscale>  0 0.23233795E+04</rscale>
<asrwt>0</asrwt>
<pdfrwt beam="1">  1        1 0.16922842E+00 0.23233795E+04</pdfrwt>
<pdfrwt beam="2">  1       -1 0.18874710E+00 0.23233795E+04</pdfrwt>
<totfact> 0.20624511E+00</totfact>
</mgrwt>
</event>
<event>
 6    1  0.1568961E-005  0.2408920E+04  0.7818608E-02  0.8436172E-01
         -2   -1    0    0    0  501 -0.00000000000E+00  0.00000000000E+00  0.62482029375E+03  0.62482029375E+03  0.00000000000E+00 0.  1.
          2   -1    0    0  501    0  0.00000000000E+00 -0.00000000000E+00 -0.23218257535E+04  0.23218257535E+04  0.00000000000E+00 0. -1.
         23    2    1    2    0    0  0.76575730839E+03 -0.36932283296E+03 -0.18903774806E+04  0.20747651215E+04  0.91321847079E+02 0.  0.
         13    1    3    3    0    0  0.38092773306E+03 -0.18523289976E+03 -0.83112725541E+03  0.93283957874E+03  0.00000000000E+00 0. -1.
        -13    1    3    3    0    0  0.38482957533E+03 -0.18408993320E+03 -0.10592502252E+04  0.11419255428E+04  0.00000000000E+00 0.  1.
         22    1    1    2    0    0 -0.76575730839E+03  0.36932283296E+03  0.19337202086E+03  0.87188092579E+03  0.00000000000E+00 0.  1.
<mgrwt>
<rscale>  0 0.24089200E+04</rscale>
<asrwt>0</asrwt>
<pdfrwt beam="1">  1        2 0.35720396E+00 0.24089200E+04</pdfrwt>
<pdfrwt beam="2">  1       -2 0.96126200E-01 0.24089200E+04</pdfrwt>
<totfact> 0.35888827E+00</totfact>
</mgrwt>
</event>
<event>
 6    1  0.1568961E-005  0.2974275E+04  0.7818608E-02  0.8251115E-01
          2   -1    0    0  501    0  0.00000000000E+00  0.00000000000E+00  0.19557464885E+04  0.19557464885E+04  0.00000000000E+00 0. -1.
         -2   -1    0    0    0  501 -0.00000000000E+00 -0.00000000000E+00 -0.11308102078E+04  0.11308102078E+04  0.00000000000E+00 0.  1.
         23    2    1    2    0    0 -0.58182174216E+03 -0.12987794646E+04 -0.29836566063E+02  0.14264418639E+04  0.92203758854E+02 0.  0.
         11    1    3    3    0    0 -0.42180648299E+02 -0.10495566913E+03  0.22248618833E+02  0.11528183124E+03  0.00000000000E+00 0. -1.
        -11    1    3    3    0    0 -0.53964109386E+03 -0.11938237954E+04 -0.52085184896E+02  0.13111600326E+04  0.00000000000E+00 0.  1.
         22    1    1    2    0    0  0.58182174216E+03  0.12987794646E+04  0.85477284681E+03  0.16601148324E+04  0.00000000000E+00 0. -1.
<mgrwt>
<rscale>  0 0.29742751E+04</rscale>
<asrwt>0</asrwt>
<pdfrwt beam="1">  1        2 0.30088407E+00 0.29742751E+04</pdfrwt>
<pdfrwt beam="2">  1       -2 0.17397080E+00 0.29742751E+04</pdfrwt>
<totfact> 0.12119116E+00</totfact>
</mgrwt>
</event>
<event>
 6    1  0.1568961E-005  0.8270848E+03  0.7818608E-02  0.9521620E-01
         -1   -1    0    0    0  501 -0.00000000000E+00  0.00000000000E+00  0.26942475050E+03  0.26942475050E+03  0.00000000000E+00 0.  1.
          1   -1    0    0  501    0  0.00000000000E+00 -0.00000000000E+00 -0.63474985600E+03  0.63474985600E+03  0.00000000000E+00 0. -1.
         23    2    1    2    0    0 -0.34675011317E+03 -0.22943610972E+02  0.49586615328E+02  0.36295950476E+03  0.92296908974E+02 0.  0.
         11    1    3    3    0    0 -0.15576172308E+03 -0.27078575675E+02  0.65789931308E+02  0.17124041199E+03  0.00000000000E+00 0. -1.
        -11    1    3    3    0    0 -0.19098839009E+03  0.41349647027E+01 -0.16203315980E+02  0.19171909277E+03  0.00000000000E+00 0.  1.
         22    1    1    2    0    0  0.34675011317E+03  0.22943610972E+02 -0.41491172083E+03  0.54121510174E+03  0.00000000000E+00 0. -1.
<mgrwt>
<rscale>  0 0.82708481E+03</rscale>
<asrwt>0</asrwt>
<pdfrwt beam="1">  1        1 0.97653824E-01 0.82708481E+03</pdfrwt>
<pdfrwt beam="2">  1       -1 0.41449962E-01 0.82708481E+03</pdfrwt>
<totfact> 0.18173424E+02</totfact>
</mgrwt>
</event>
<event>
 6    1  0.1568961E-005  0.2558972E+04  0.7818608E-02  0.8382272E-01
          2   -1    0    0  501    0  0.00000000000E+00  0.00000000000E+00  0.44063457476E+04  0.44063457476E+04  0.00000000000E+00 0. -1.
         -2   -1    0    0    0  501 -0.00000000000E+00 -0.00000000000E+00 -0.37152887047E+03  0.37152887047E+03  0.00000000000E+00 0.  1.
         23    2    1    2    0    0 -0.23737647612E+03  0.72923958760E+03  0.11239925754E+03  0.78118874726E+03  0.97387361673E+02 0.  0.
         13    1    3    3    0    0 -0.10634822281E+03  0.38605651541E+03  0.10411013934E+03  0.41374931867E+03  0.00000000000E+00 0.  1.
        -13    1    3    3    0    0 -0.13102825331E+03  0.34318307219E+03  0.82891181990E+01  0.36743942859E+03  0.00000000000E+00 0. -1.
         22    1    1    2    0    0  0.23737647612E+03 -0.72923958760E+03  0.39224176196E+04  0.39966858708E+04  0.00000000000E+00 0. -1.
<mgrwt>
<rscale>  0 0.25589722E+04</rscale>
<asrwt>0</asrwt>
<pdfrwt beam="1">  1        2 0.67789931E+00 0.25589722E+04</pdfrwt>
<pdfrwt beam="2">  1       -2 0.57158291E-01 0.25589722E+04</pdfrwt>
<totfact> 0.38718397E-01</totfact>
</mgrwt>
</event>
<event>
 6    1  0.1568961E-005  0.3578179E+04  0.7818608E-02  0.8095508E-01
         -2   -1    0    0    0  501 -0.00000000000E+00  0.00000000000E+00  0.91201338660E+03  0.91201338660E+03  0.00000000000E+00 0.  1.
          2   -1    0    0  501    0  0.00000000000E+00 -0.00000000000E+00 -0.35096435332E+04  0.35096435332E+04  0.00000000000E+00 0. -1.
         23    2    1    2    0    0  0.59591429204E+03  0.14847476071E+04 -0.22858832530E+04  0.27916951331E+04  0.93328289458E+02 0.  0.
         13    1    3    3    0    0  0.18082884710E+02  0.76778172028E+02 -0.86289157279E+02  0.11690892645E+03  0.00000000000E+00 0. -1.
        -13    1    3    3    0    0  0.57783140733E+03  0.14079694351E+04 -0.21995940957E+04  0.26747862067E+04  0.00000000000E+00 0.  1.
         22    1    1    2    0    0 -0.59591429204E+03 -0.14847476071E+04 -0.31174689358E+03  0.16299617867E+04  0.00000000000E+00 0.  1.
<mgrwt>
<rscale>  0 0.35781794E+04</rscale>
<asrwt>0</asrwt>
<pdfrwt beam="1">  1        2 0.53994515E+00 0.35781794E+04</pdfrwt>
<pdfrwt beam="2">  1       -2 0.14030975E+00 0.35781794E+04</pdfrwt>
<totfact> 0.23298234E-01</totfact>
</mgrwt>
</event>
<event>
 6    1  0.1568961E-005  0.2100064E+04  0.7818608E-02  0.8561215E-01
          2   -1    0    0  501    0  0.00000000000E+00  0.00000000000E+00  0.22588423894E+04  0.22588423894E+04  0.00000000000E+00 0. -1.
         -2   -1    0    0    0  501 -0.00000000000E+00 -0.00000000000E+00 -0.48811171415E+03  0.48811171415E+03  0.00000000000E+00 0.  1.
         23    2    1    2    0    0  0.88608673652E+03  0.34673548556E+03  0.31189526054E+03  0.10052377177E+04  0.88594660966E+02 0.  0.
         13    1    3    3    0    0  0.18393289957E+03  0.11027863787E+03  0.80019467516E+02  0.22890129903E+03  0.00000000000E+00 0. -1.
        -13    1    3    3    0    0  0.70215383695E+03  0.23645684769E+03  0.23187579303E+03  0.77633641867E+03  0.00000000000E+00 0.  1.
         22    1    1    2    0    0 -0.88608673652E+03 -0.34673548556E+03  0.14588354147E+04  0.17417163859E+04  0.00000000000E+00 0. -1.
<mgrwt>
<rscale>  0 0.21000642E+04</rscale>
<asrwt>0</asrwt>
<pdfrwt beam="1">  1        2 0.34751421E+00 0.21000642E+04</pdfrwt>
<pdfrwt beam="2">  1       -2 0.75094111E-01 0.21000642E+04</pdfrwt>
<totfact> 0.70197292E+00</totfact>
</mgrwt>
</event>
<event>
 6    1  0.1568961E-005  0.1708116E+04  0.7818608E-02  0.8756749E-01
         -1   -1    0    0    0  501 -0.00000000000E+00  0.00000000000E+00  0.11434839142E+04  0.11434839142E+04  0.00000000000E+00 0.  1.
          1   -1    0    0  501    0  0.00000000000E+00 -0.00000000000E+00 -0.63788869620E+03  0.63788869620E+03  0.00000000000E+00 0. -1.
         23    2    1    2    0    0 -0.41371880701E+02  0.69571729173E+03  0.76395022250E+03  0.10380816237E+04  0.90880869704E+02 0.  0.
         11    1    3    3    0    0 -0.63207123726E+02  0.57969662202E+03  0.66083850097E+03  0.88133469150E+03  0.00000000000E+00 0. -1.
        -11    1    3    3    0    0  0.21835243025E+02  0.11602066971E+03  0.10311172153E+03  0.15674693220E+03  0.00000000000E+00 0.  1.
         22    1    1    2    0    0  0.41371880701E+02 -0.69571729173E+03 -0.25835500452E+03  0.74329098669E+03  0.00000000000E+00 0. -1.
<mgrwt>
<rscale>  0 0.17081165E+04</rscale>
<asrwt>0</asrwt>
<pdfrwt beam="1">  1        1 0.98136723E-01 0.17081165E+04</pdfrwt>
<pdfrwt beam="2">  1       -1 0.17592060E+00 0.17081165E+04</pdfrwt>
<totfact> 0.66323265E+00</totfact>
</mgrwt>
</event>
<event>
 6    1  0.1568961E-005  0.2083874E+04  0.7818608E-02  0.8568380E-01
          1   -1    0    0  501    0  0.00000000000E+00  0.00000000000E+00  0.54472852162E+03  0.54472852162E+03  0.00000000000E+00 0. -1.
         -1   -1    0    0    0  501 -0.00000000000E+00 -0.00000000000E+00 -0.19929802414E+04  0.19929802414E+04  0.00000000000E+00 0.  1.
         23    2    1    2    0    0  0.23643915142E+03 -0.72163471609E+03 -0.15906668057E+04  0.17650884213E+04  0.93038230468E+02 0.  0.
         13    1    3    3    0    0  0.52744821448E+02 -0.25715350679E+03 -0.62502018951E+03  0.67790868083E+03  0.00000000000E+00 0.  1.
        -13    1    3    3    0    0  0.18369432997E+03 -0.46448120931E+03 -0.96564661620E+03  0.10871797404E+04  0.00000000000E+00 0. -1.
         22    1    1    2    0    0 -0.23643915142E+03  0.72163471609E+03  0.14241508592E+03  0.77262034175E+03  0.00000000000E+00 0. -1.
<mgrwt>
<rscale>  0 0.20838744E+04</rscale>
<asrwt>0</asrwt>
<pdfrwt beam="1">  1        1 0.83804386E-01 0.20838744E+04</pdfrwt>
<pdfrwt beam="2">  1       -1 0.30661235E+00 0.20838744E+04</pdfrwt>
<totfact> 0.10841054E+00</totfact>
</mgrwt>
</event>
<event>
 6    1  0.1568961E-005  0.3034632E+04  0.7818608E-02  0.8233910E-01
         -2   -1    0    0    0  501 -0.00000000000E+00  0.00000000000E+00  0.95846296874E+03  0.95846296874E+03  0.00000000000E+00 0.  1.
          2   -1    0    0  501    0  0.00000000000E+00 -0.00000000000E+00 -0.24020201655E+04  0.24020201655E+04  0.00000000000E+00 0. -1.
         23    2    1    2    0    0 -0.78175839734E+03 -0.13309531312E+03 -0.21531137772E+04  0.22963726630E+04  0.92563037392E+02 0.  0.
         11    1    3    3    0    0 -0.36103391880E+03 -0.43348360208E+02 -0.11096179481E+04  0.11676799911E+04  0.00000000000E+00 0. -1.
        -11    1    3    3    0    0 -0.42072447854E+03 -0.89746952913E+02 -0.10434958291E+04  0.11286926720E+04  0.00000000000E+00 0.  1.
         22    1    1    2    0    0  0.78175839734E+03  0.13309531312E+03  0.70955658039E+03  0.10641104712E+04  0.00000000000E+00 0.  1.
<mgrwt>
<rscale>  0 0.30346317E+04</rscale>
<asrwt>0</asrwt>
<pdfrwt beam="1">  1        2 0.36954156E+00 0.30346317E+04</pdfrwt>
<pdfrwt beam="2">  1       -2 0.14745584E+00 0.30346317E+04</pdfrwt>
<totfact> 0.10608483E+00</totfact>
</mgrwt>
</event>
<event>
 6    1  0.1568961E-005  0.4021518E+04  0.7818608E-02  0.8000220E-01
          2   -1    0    0  501    0  0.00000000000E+00  0.00000000000E+00  0.21876385383E+04  0.21876385383E+04  0.00000000000E+00 0. -1.
         -2   -1    0    0    0  501 -0.00000000000E+00 -0.00000000000E+00 -0.18481811576E+04  0.18481811576E+04  0.00000000000E+00 0.  1.
         23    2    1    2    0    0 -0.29068400122E+02  0.84686918659E+03  0.19986646719E+04  0.21727573711E+04  0.90452927391E+02 0.  0.
         13    1    3    3    0    0 -0.57090709705E+02  0.47289568468E+03  0.11656333255E+04  0.12592024171E+04  0.00000000000E+00 0. -1.
        -13    1    3    3    0    0  0.28022309583E+02  0.37397350191E+03  0.83303134640E+03  0.91355495404E+03  0.00000000000E+00 0.  1.
         22    1    1    2    0    0  0.29068400122E+02 -0.84686918659E+03 -0.16592072912E+04  0.18630623248E+04  0.00000000000E+00 0.  1.
<mgrwt>
<rscale>  0 0.40215183E+04</rscale>
<asrwt>0</asrwt>
<pdfrwt beam="1">  1        2 0.33655977E+00 0.40215183E+04</pdfrwt>
<pdfrwt beam="2">  1       -2 0.28433556E+00 0.40215183E+04</pdfrwt>
<totfact> 0.16374631E-01</totfact>
</mgrwt>
</event>
<event>
 6    1  0.1568961E-005  0.1289028E+04  0.7818608E-02  0.9038312E-01
         -2   -1    0    0    0  501 -0.00000000000E+00  0.00000000000E+00  0.21608755745E+03  0.21608755745E+03  0.00000000000E+00 0.  1.
          2   -1    0    0  501    0  0.00000000000E+00 -0.00000000000E+00 -0.19223603704E+04  0.19223603704E+04  0.00000000000E+00 0. -1.
         23    2    1    2    0    0 -0.30815947182E+03 -0.15137513648E+03 -0.17559362976E+04  0.17915428201E+04  0.91851527043E+02 0.  0.
         13    1    3    3    0    0 -0.11447989500E+03 -0.10700889647E+03 -0.77874271329E+03  0.79435304731E+03  0.00000000000E+00 0. -1.
        -13    1    3    3    0    0 -0.19367957682E+03 -0.44366240011E+02 -0.97719358435E+03  0.99718977282E+03  0.00000000000E+00 0.  1.
         22    1    1    2    0    0  0.30815947182E+03  0.15137513648E+03  0.49663484725E+02  0.34690510767E+03  0.00000000000E+00 0.  1.
<mgrwt>
<rscale>  0 0.12890278E+04</rscale>
<asrwt>0</asrwt>
<pdfrwt beam="1">  1        2 0.29574776E+00 0.12890278E+04</pdfrwt>
<pdfrwt beam="2">  1       -2 0.33244238E-01 0.12890278E+04</pdfrwt>
<totfact> 0.61207339E+01</totfact>
</mgrwt>
</event>
<event>
 6    1  0.1568961E-005  0.1864503E+04  0.7818608E-02  0.8672730E-01
         -1   -1    0    0    0  501 -0.00000000000E+00  0.00000000000E+00  0.11318854714E+04  0.11318854714E+04  0.00000000000E+00 0.  1.
          1   -1    0    0  501    0  0.00000000000E+00 -0.00000000000E+00 -0.76782722418E+03  0.76782722418E+03  0.00000000000E+00 0. -1.
         23    2    1    2    0    0  0.39599157226E+03 -0.68301606077E+03 -0.31839762297E+03  0.85612931159E+03  0.90885022262E+02 0.  0.
         11    1    3    3    0    0  0.20202528743E+03 -0.26019152375E+03 -0.12486019770E+03  0.35228385538E+03  0.00000000000E+00 0.  1.
        -11    1    3    3    0    0  0.19396628483E+03 -0.42282453702E+03 -0.19353742527E+03  0.50384545620E+03  0.00000000000E+00 0. -1.
         22    1    1    2    0    0 -0.39599157226E+03  0.68301606077E+03  0.68245587017E+03  0.10435833840E+04  0.00000000000E+00 0. -1.
<mgrwt>
<rscale>  0 0.18645026E+04</rscale>
<asrwt>0</asrwt>
<pdfrwt beam="1">  1        1 0.11812727E+00 0.18645026E+04</pdfrwt>
<pdfrwt beam="2">  1       -1 0.17413623E+00 0.18645026E+04</pdfrwt>
<totfact> 0.50834116E+00</totfact>
</mgrwt>
</event>
<event>
 6    1  0.1568961E-005  0.8606387E+03  0.7818608E-02  0.9476168E-01
         -2   -1    0    0    0  501 -0.00000000000E+00  0.00000000000E+00  0.26810742315E+03  0.26810742315E+03  0.00000000000E+00 0.  1.
          2   -1    0    0  501    0  0.00000000000E+00 -0.00000000000E+00 -0.69067374393E+03  0.69067374393E+03  0.00000000000E+00 0. -1.
         23    2    1    2    0    0 -0.30851343213E+03  0.20403373764E+03 -0.44781944456E+03  0.58804133355E+03  0.91869750929E+02 0.  0.
         13    1    3    3    0    0 -0.20030901438E+02  0.35306295525E+02 -0.20269874567E+02  0.45372230837E+02  0.00000000000E+00 0. -1.
        -13    1    3    3    0    0 -0.28848253069E+03  0.16872744212E+03 -0.42754957000E+03  0.54266910272E+03  0.00000000000E+00 0.  1.
         22    1    1    2    0    0  0.30851343213E+03 -0.20403373764E+03  0.25253123783E+02  0.37073983353E+03  0.00000000000E+00 0.  1.
<mgrwt>
<rscale>  0 0.86063873E+03</rscale>
<asrwt>0</asrwt>
<pdfrwt beam="1">  1        2 0.10625750E+00 0.86063873E+03</pdfrwt>
<pdfrwt beam="2">  1       -2 0.41247296E-01 0.86063873E+03</pdfrwt>
<totfact> 0.23297284E+02</totfact>
</mgrwt>
</event>
<event>
 6    1  0.1568961E-005  0.9226163E+03  0.7818608E-02  0.9397743E-01
          2   -1    0    0  501    0  0.00000000000E+00  0.00000000000E+00  0.61291737872E+03  0.61291737872E+03  0.00000000000E+00 0. -1.
         -2   -1    0    0    0  501 -0.00000000000E+00 -0.00000000000E+00 -0.34720044498E+03  0.34720044498E+03  0.00000000000E+00 0.  1.
         23    2    1    2    0    0 -0.73390063059E+02 -0.30689100421E+03 -0.20979098081E+03  0.38943755716E+03  0.89895302841E+02 0.  0.
         11    1    3    3    0    0  0.86477108328E+01 -0.15689391005E+03 -0.10109927716E+03  0.18684631587E+03  0.00000000000E+00 0. -1.
        -11    1    3    3    0    0 -0.82037773892E+02 -0.14999709416E+03 -0.10869170365E+03  0.20259124128E+03  0.00000000000E+00 0.  1.
         22    1    1    2    0    0  0.73390063059E+02  0.30689100421E+03  0.47550791455E+03  0.57068026655E+03  0.00000000000E+00 0. -1.
<mgrwt>
<rscale>  0 0.92261625E+03</rscale>
<asrwt>0</asrwt>
<pdfrwt beam="1">  1        2 0.94294981E-01 0.92261625E+03</pdfrwt>
<pdfrwt beam="2">  1       -2 0.53415453E-01 0.92261625E+03</pdfrwt>
<totfact> 0.16005650E+02</totfact>
</mgrwt>
</event>
<event>
 6    1  0.2896264E-005  0.3065973E+04  0.7818608E-02  0.8225139E-01
          2   -1    0    0  501    0  0.00000000000E+00  0.00000000000E+00  0.11053214352E+04  0.11053214352E+04  0.00000000000E+00 0. -1.
         -2   -1    0    0    0  501 -0.00000000000E+00 -0.00000000000E+00 -0.21261212312E+04  0.21261212312E+04  0.00000000000E+00 0.  1.
         23    2    1    2    0    0 -0.24333100349E+03  0.52525688433E+03  0.98369398019E+03  0.11450342522E+04  0.91349988101E+02 0.  0.
         13    1    3    3    0    0 -0.98830116951E+02  0.23041351732E+03  0.34013224733E+03  0.42254908195E+03  0.00000000000E+00 0. -1.
        -13    1    3    3    0    0 -0.14450088654E+03  0.29484336701E+03  0.64356173286E+03  0.72248517028E+03  0.00000000000E+00 0.  1.
         22    1    1    2    0    0  0.24333100349E+03 -0.52525688433E+03 -0.20044937762E+04  0.20864084141E+04  0.00000000000E+00 0.  1.
<mgrwt>
<rscale>  0 0.30659728E+04</rscale>
<asrwt>0</asrwt>
<pdfrwt beam="1">  1        2 0.17004945E+00 0.30659728E+04</pdfrwt>
<pdfrwt beam="2">  1       -2 0.32709557E+00 0.30659728E+04</pdfrwt>
<totfact> 0.39828061E-01</totfact>
</mgrwt>
</event>
<event>
 6    1  0.1568961E-005  0.2168320E+04  0.7818608E-02  0.8531731E-01
         -2   -1    0    0    0  501 -0.00000000000E+00  0.00000000000E+00  0.48096191978E+03  0.48096191978E+03  0.00000000000E+00 0.  1.
          2   -1    0    0  501    0  0.00000000000E+00 -0.00000000000E+00 -0.24438590827E+04  0.24438590827E+04  0.00000000000E+00 0. -1.
         23    2    1    2    0    0  0.77171650128E+03  0.71184926902E+03 -0.62618406094E+03  0.12250923014E+04  0.80429650635E+02 0.  0.
         13    1    3    3    0    0  0.36013275052E+03  0.37143444380E+03 -0.27551921824E+03  0.58614843142E+03  0.00000000000E+00 0. -1.
        -13    1    3    3    0    0  0.41158375076E+03  0.34041482522E+03 -0.35066484269E+03  0.63894387001E+03  0.00000000000E+00 0.  1.
         22    1    1    2    0    0 -0.77171650128E+03 -0.71184926902E+03 -0.13367131020E+04  0.16997287011E+04  0.00000000000E+00 0.  1.
<mgrwt>
<rscale>  0 0.21683202E+04</rscale>
<asrwt>0</asrwt>
<pdfrwt beam="1">  1        2 0.37597834E+00 0.21683202E+04</pdfrwt>
<pdfrwt beam="2">  1       -2 0.73994139E-01 0.21683202E+04</pdfrwt>
<totfact> 0.56566247E+00</totfact>
</mgrwt>
</event>
<event>
 6    1  0.1568961E-005  0.4165372E+04  0.7818608E-02  0.7971992E-01
         -2   -1    0    0    0  501 -0.00000000000E+00  0.00000000000E+00  0.15414275884E+04  0.15414275884E+04  0.00000000000E+00 0.  1.
          2   -1    0    0  501    0  0.00000000000E+00 -0.00000000000E+00 -0.28140018452E+04  0.28140018452E+04  0.00000000000E+00 0. -1.
         23    2    1    2    0    0 -0.11722772262E+04 -0.96936851198E+03  0.84929522831E+03  0.17446365810E+04  0.92440292295E+02 0.  0.
         13    1    3    3    0    0 -0.46680845835E+03 -0.38443821755E+03  0.28618024764E+03  0.66903065254E+03  0.00000000000E+00 0. -1.
        -13    1    3    3    0    0 -0.70546876787E+03 -0.58493029443E+03  0.56311498067E+03  0.10756059284E+04  0.00000000000E+00 0.  1.
         22    1    1    2    0    0  0.11722772262E+04  0.96936851198E+03 -0.21218694852E+04  0.26107928526E+04  0.00000000000E+00 0.  1.
<mgrwt>
<rscale>  0 0.41653716E+04</rscale>
<asrwt>0</asrwt>
<pdfrwt beam="1">  1        2 0.43292336E+00 0.41653716E+04</pdfrwt>
<pdfrwt beam="2">  1       -2 0.23714271E+00 0.41653716E+04</pdfrwt>
<totfact> 0.13617032E-01</totfact>
</mgrwt>
</event>
<event>
 6    1  0.1568961E-005  0.1518758E+04  0.7818608E-02  0.8872074E-01
          2   -1    0    0  501    0  0.00000000000E+00  0.00000000000E+00  0.22941325779E+04  0.22941325779E+04  0.00000000000E+00 0. -1.
         -2   -1    0    0    0  501 -0.00000000000E+00 -0.00000000000E+00 -0.25136134672E+03  0.25136134672E+03  0.00000000000E+00 0.  1.
         23    2    1    2    0    0  0.22797566832E+03 -0.72100342493E+03  0.10679297338E+04  0.13117456565E+04  0.91563676675E+02 0.  0.
         13    1    3    3    0    0  0.60318419393E+02 -0.19606631784E+03  0.36341154821E+03  0.41731075481E+03  0.00000000000E+00 0. -1.
        -13    1    3    3    0    0  0.16765724892E+03 -0.52493710709E+03  0.70451818561E+03  0.89443490169E+03  0.00000000000E+00 0.  1.
         22    1    1    2    0    0 -0.22797566832E+03  0.72100342493E+03  0.97484149736E+03  0.12337482681E+04  0.00000000000E+00 0. -1.
<mgrwt>
<rscale>  0 0.15187577E+04</rscale>
<asrwt>0</asrwt>
<pdfrwt beam="1">  1        2 0.35294346E+00 0.15187577E+04</pdfrwt>
<pdfrwt beam="2">  1       -2 0.38670978E-01 0.15187577E+04</pdfrwt>
<totfact> 0.27889347E+01</totfact>
</mgrwt>
</event>
<event>
 6    1  0.1592747E-005  0.3104937E+04  0.7818608E-02  0.8214384E-01
          2   -1    0    0  501    0  0.00000000000E+00  0.00000000000E+00  0.13478344378E+04  0.13478344378E+04  0.00000000000E+00 0. -1.
         -2   -1    0    0    0  501 -0.00000000000E+00 -0.00000000000E+00 -0.17881710690E+04  0.17881710690E+04  0.00000000000E+00 0.  1.
         23    2    1    2    0    0  0.65442836523E+03 -0.14009523804E+04 -0.34449265196E+03  0.15867701709E+04  0.90666039463E+02 0.  0.
         11    1    3    3    0    0  0.25149503359E+03 -0.43799891255E+03 -0.11155951313E+03  0.51724106980E+03  0.00000000000E+00 0.  1.
        -11    1    3    3    0    0  0.40293333164E+03 -0.96295346784E+03 -0.23293313883E+03  0.10695291011E+04  0.00000000000E+00 0. -1.
         22    1    1    2    0    0 -0.65442836523E+03  0.14009523804E+04 -0.95843979234E+02  0.15492353358E+04  0.00000000000E+00 0.  1.
<mgrwt>
<rscale>  0 0.31049371E+04</rscale>
<asrwt>0</asrwt>
<pdfrwt beam="1">  1        2 0.20735914E+00 0.31049371E+04</pdfrwt>
<pdfrwt beam="2">  1       -2 0.27510324E+00 0.31049371E+04</pdfrwt>
<totfact> 0.59364846E-01</totfact>
</mgrwt>
</event>
<event>
 6    1  0.1568961E-005  0.3892361E+03  0.7818608E-02  0.1047572E+00
         -1   -1    0    0    0  501 -0.00000000000E+00  0.00000000000E+00  0.10628884033E+03  0.10628884033E+03  0.00000000000E+00 0.  1.
          1   -1    0    0  501    0  0.00000000000E+00 -0.00000000000E+00 -0.35635154724E+03  0.35635154724E+03  0.00000000000E+00 0. -1.
         23    2    1    2    0    0  0.29631490041E+02 -0.16691549814E+03 -0.21627231135E+03  0.28978032986E+03  0.91978900832E+02 0.  0.
         11    1    3    3    0    0  0.43157083972E+02 -0.14938196962E+03 -0.13621635860E+03  0.20671817311E+03  0.00000000000E+00 0.  1.
        -11    1    3    3    0    0 -0.13525593931E+02 -0.17533528517E+02 -0.80055952749E+02  0.83062156750E+02  0.00000000000E+00 0. -1.
         22    1    1    2    0    0 -0.29631490041E+02  0.16691549814E+03 -0.33790395571E+02  0.17286005771E+03  0.00000000000E+00 0.  1.
<mgrwt>
<rscale>  0 0.38923614E+03</rscale>
<asrwt>0</asrwt>
<pdfrwt beam="1">  1        1 0.54823314E-01 0.38923614E+03</pdfrwt>
<pdfrwt beam="2">  1       -1 0.16352129E-01 0.38923614E+03</pdfrwt>
<totfact> 0.19765356E+03</totfact>
</mgrwt>
</event>
<event>
 6    1  0.1568961E-005  0.2556135E+04  0.7818608E-02  0.8383256E-01
          1   -1    0    0  501    0  0.00000000000E+00  0.00000000000E+00  0.12007255499E+04  0.12007255499E+04  0.00000000000E+00 0. -1.
         -1   -1    0    0    0  501 -0.00000000000E+00 -0.00000000000E+00 -0.13603913851E+04  0.13603913851E+04  0.00000000000E+00 0.  1.
         23    2    1    2    0    0 -0.48327799830E+03 -0.11767593943E+04 -0.18385169690E+03  0.12887548593E+04  0.93634103435E+02 0.  0.
         11    1    3    3    0    0 -0.21972980395E+03 -0.44984114242E+03 -0.39662352193E+02  0.50220647381E+03  0.00000000000E+00 0.  1.
        -11    1    3    3    0    0 -0.26354819434E+03 -0.72691825184E+03 -0.14418934471E+03  0.78654838550E+03  0.00000000000E+00 0. -1.
         22    1    1    2    0    0  0.48327799830E+03  0.11767593943E+04  0.24185861718E+02  0.12723620756E+04  0.00000000000E+00 0.  1.
<mgrwt>
<rscale>  0 0.25561351E+04</rscale>
<asrwt>0</asrwt>
<pdfrwt beam="1">  1        1 0.18472701E+00 0.25561351E+04</pdfrwt>
<pdfrwt beam="2">  1       -1 0.20929098E+00 0.25561351E+04</pdfrwt>
<totfact> 0.12265802E+00</totfact>
</mgrwt>
</event>
<event>
 6    1  0.1568961E-005  0.1658009E+04  0.7818608E-02  0.8785682E-01
         -1   -1    0    0    0  501 -0.00000000000E+00  0.00000000000E+00  0.28481037786E+03  0.28481037786E+03  0.00000000000E+00 0.  1.
          1   -1    0    0  501    0  0.00000000000E+00 -0.00000000000E+00 -0.24130036221E+04  0.24130036221E+04  0.00000000000E+00 0. -1.
         23    2    1    2    0    0  0.72856216491E+03 -0.38496411228E+03 -0.11695402730E+04  0.14336875367E+04  0.92926351523E+02 0.  0.
         11    1    3    3    0    0  0.12972440909E+03 -0.39345998434E+02 -0.15460604254E+03  0.20561993652E+03  0.00000000000E+00 0.  1.
        -11    1    3    3    0    0  0.59883775582E+03 -0.34561811384E+03 -0.10149342305E+04  0.12280676002E+04  0.00000000000E+00 0. -1.
         22    1    1    2    0    0 -0.72856216491E+03  0.38496411228E+03 -0.95865297118E+03  0.12641264632E+04  0.00000000000E+00 0.  1.
<mgrwt>
<rscale>  0 0.16580090E+04</rscale>
<asrwt>0</asrwt>
<pdfrwt beam="1">  1        1 0.37123132E+00 0.16580090E+04</pdfrwt>
<pdfrwt beam="2">  1       -1 0.43816982E-01 0.16580090E+04</pdfrwt>
<totfact> 0.76598452E+00</totfact>
</mgrwt>
</event>
<event>
 6    1  0.1568961E-005  0.1901430E+04  0.7818608E-02  0.8654145E-01
         -2   -1    0    0    0  501 -0.00000000000E+00  0.00000000000E+00  0.86887599961E+03  0.86887599961E+03  0.00000000000E+00 0.  1.
          2   -1    0    0  501    0  0.00000000000E+00 -0.00000000000E+00 -0.10402621113E+04  0.10402621113E+04  0.00000000000E+00 0. -1.
         23    2    1    2    0    0  0.42013470734E+03  0.73098923104E+03 -0.52241920718E+03  0.99585684957E+03  0.89166185288E+02 0.  0.
         11    1    3    3    0    0  0.26688816563E+03  0.53282261761E+03 -0.39348783262E+03  0.71411617347E+03  0.00000000000E+00 0. -1.
        -11    1    3    3    0    0  0.15324654171E+03  0.19816661343E+03 -0.12893137456E+03  0.28174067611E+03  0.00000000000E+00 0.  1.
         22    1    1    2    0    0 -0.42013470734E+03 -0.73098923104E+03  0.35103309547E+03  0.91328126135E+03  0.00000000000E+00 0.  1.
<mgrwt>
<rscale>  0 0.19014298E+04</rscale>
<asrwt>0</asrwt>
<pdfrwt beam="1">  1        2 0.16004033E+00 0.19014298E+04</pdfrwt>
<pdfrwt beam="2">  1       -2 0.13367323E+00 0.19014298E+04</pdfrwt>
<totfact> 0.89956654E+00</totfact>
</mgrwt>
</event>
<event>
 6    1  0.1568961E-005  0.1005046E+04  0.7818608E-02  0.9303028E-01
         -2   -1    0    0    0  501 -0.00000000000E+00  0.00000000000E+00  0.12169970478E+03  0.12169970478E+03  0.00000000000E+00 0. -1.
          2   -1    0    0  501    0  0.00000000000E+00 -0.00000000000E+00 -0.20750201016E+04  0.20750201016E+04  0.00000000000E+00 0.  1.
         23    2    1    2    0    0 -0.90744243410E+02  0.45901648304E+03 -0.60775686236E+03  0.77212446920E+03  0.88753269132E+02 0.  0.
         11    1    3    3    0    0 -0.33245550668E+02  0.35875138722E+03 -0.47300147947E+03  0.59459080388E+03  0.00000000000E+00 0.  1.
        -11    1    3    3    0    0 -0.57498692743E+02  0.10026509582E+03 -0.13475538288E+03  0.17753366532E+03  0.00000000000E+00 0. -1.
         22    1    1    2    0    0  0.90744243410E+02 -0.45901648304E+03 -0.13455635345E+04  0.14245953372E+04  0.00000000000E+00 0.  1.
<mgrwt>
<rscale>  0 0.10050459E+04</rscale>
<asrwt>0</asrwt>
<pdfrwt beam="1">  1        2 0.31923384E+00 0.10050459E+04</pdfrwt>
<pdfrwt beam="2">  1       -2 0.18723033E-01 0.10050459E+04</pdfrwt>
<totfact> 0.14598645E+02</totfact>
</mgrwt>
</event>
<event>
 6    1  0.1568961E-005  0.1745426E+04  0.7818608E-02  0.8735872E-01
          2   -1    0    0  501    0  0.00000000000E+00  0.00000000000E+00  0.76648973334E+03  0.76648973334E+03  0.00000000000E+00 0. -1.
         -2   -1    0    0    0  501 -0.00000000000E+00 -0.00000000000E+00 -0.99365708881E+03  0.99365708881E+03  0.00000000000E+00 0.  1.
         23    2    1    2    0    0  0.93071829364E+02  0.83799527072E+03 -0.33158892172E+03  0.91055733148E+03  0.90912054883E+02 0.  0.
         11    1    3    3    0    0  0.38555798860E+02  0.67327298972E+03 -0.27060457956E+03  0.72664290183E+03  0.00000000000E+00 0.  1.
        -11    1    3    3    0    0  0.54516030503E+02  0.16472228101E+03 -0.60984342155E+02  0.18391442964E+03  0.00000000000E+00 0. -1.
         22    1    1    2    0    0 -0.93071829364E+02 -0.83799527072E+03  0.10442156625E+03  0.84958949068E+03  0.00000000000E+00 0. -1.
<mgrwt>
<rscale>  0 0.17454260E+04</rscale>
<asrwt>0</asrwt>
<pdfrwt beam="1">  1        2 0.11792150E+00 0.17454260E+04</pdfrwt>
<pdfrwt beam="2">  1       -2 0.15287032E+00 0.17454260E+04</pdfrwt>
<totfact> 0.98410480E+00</totfact>
</mgrwt>
</event>
<event>
 6    1  0.1568961E-005  0.1792530E+04  0.7818608E-02  0.8710282E-01
         -1   -1    0    0    0  501 -0.00000000000E+00  0.00000000000E+00  0.15785853179E+04  0.15785853179E+04  0.00000000000E+00 0.  1.
          1   -1    0    0  501    0  0.00000000000E+00 -0.00000000000E+00 -0.50886750376E+03  0.50886750376E+03  0.00000000000E+00 0. -1.
         23    2    1    2    0    0  0.81369367818E+03  0.13874630238E+03  0.13663701869E+03  0.84166483440E+03  0.91553701488E+02 0.  0.
         13    1    3    3    0    0  0.39362642007E+03  0.61748505968E+02  0.19924652726E+02  0.39893812597E+03  0.00000000000E+00 0. -1.
        -13    1    3    3    0    0  0.42006725811E+03  0.76997796411E+02  0.11671236597E+03  0.44272670843E+03  0.00000000000E+00 0.  1.
         22    1    1    2    0    0 -0.81369367818E+03 -0.13874630238E+03  0.93308079541E+03  0.12457879872E+04  0.00000000000E+00 0.  1.
<mgrwt>
<rscale>  0 0.17925298E+04</rscale>
<asrwt>0</asrwt>
<pdfrwt beam="1">  1        1 0.78287309E-01 0.17925298E+04</pdfrwt>
<pdfrwt beam="2">  1       -1 0.24285928E+00 0.17925298E+04</pdfrwt>
<totfact> 0.31711969E+00</totfact>
</mgrwt>
</event>
<event>
 6    1  0.2100547E-005  0.2635080E+04  0.7818608E-02  0.8356382E-01
          1   -1    0    0  501    0  0.00000000000E+00  0.00000000000E+00  0.17833448949E+04  0.17833448949E+04  0.00000000000E+00 0. -1.
         -1   -1    0    0    0  501 -0.00000000000E+00 -0.00000000000E+00 -0.97340240301E+03  0.97340240301E+03  0.00000000000E+00 0.  1.
         23    2    1    2    0    0  0.84134590654E+03 -0.24150995183E+03 -0.62214571174E+03  0.10783353657E+04  0.97733734961E+02 0.  0.
         13    1    3    3    0    0  0.51798022451E+03 -0.17078093091E+03 -0.43829496138E+03  0.69969429933E+03  0.00000000000E+00 0. -1.
        -13    1    3    3    0    0  0.32336568204E+03 -0.70729020915E+02 -0.18385075036E+03  0.37864106635E+03  0.00000000000E+00 0.  1.
         22    1    1    2    0    0 -0.84134590654E+03  0.24150995183E+03  0.14320882037E+04  0.16784119323E+04  0.00000000000E+00 0. -1.
<mgrwt>
<rscale>  0 0.26350804E+04</rscale>
<asrwt>0</asrwt>
<pdfrwt beam="1">  1        1 0.27436075E+00 0.26350804E+04</pdfrwt>
<pdfrwt beam="2">  1       -1 0.14975422E+00 0.26350804E+04</pdfrwt>
<totfact> 0.12867407E+00</totfact>
</mgrwt>
</event>
<event>
 6    1  0.1568961E-005  0.3341430E+04  0.7818608E-02  0.8152433E-01
          2   -1    0    0  501    0  0.00000000000E+00  0.00000000000E+00  0.22826357006E+04  0.22826357006E+04  0.00000000000E+00 0. -1.
         -2   -1    0    0    0  501 -0.00000000000E+00 -0.00000000000E+00 -0.12228360233E+04  0.12228360233E+04  0.00000000000E+00 0.  1.
         23    2    1    2    0    0  0.88507438931E+03 -0.18454573676E+02  0.20151585857E+04  0.22030094827E+04  0.93217000953E+02 0.  0.
         13    1    3    3    0    0  0.67459139159E+03 -0.47774611695E+02  0.14796711487E+04  0.16268935637E+04  0.00000000000E+00 0. -1.
        -13    1    3    3    0    0  0.21048299772E+03  0.29320038019E+02  0.53548743703E+03  0.57611591904E+03  0.00000000000E+00 0.  1.
         22    1    1    2    0    0 -0.88507438931E+03  0.18454573676E+02 -0.95535890847E+03  0.13024622413E+04  0.00000000000E+00 0.  1.
<mgrwt>
<rscale>  0 0.33414303E+04</rscale>
<asrwt>0</asrwt>
<pdfrwt beam="1">  1        2 0.35117472E+00 0.33414303E+04</pdfrwt>
<pdfrwt beam="2">  1       -2 0.18812862E+00 0.33414303E+04</pdfrwt>
<totfact> 0.61595813E-01</totfact>
</mgrwt>
</event>
<event>
 6    1  0.1568961E-005  0.2812021E+04  0.7818608E-02  0.8299546E-01
         -2   -1    0    0    0  501 -0.00000000000E+00  0.00000000000E+00  0.13373016424E+04  0.13373016424E+04  0.00000000000E+00 0.  1.
          2   -1    0    0  501    0  0.00000000000E+00 -0.00000000000E+00 -0.14782498407E+04  0.14782498407E+04  0.00000000000E+00 0. -1.
         23    2    1    2    0    0  0.10790092120E+04  0.59515707380E+03  0.60423853460E+03  0.13754903425E+04  0.91633255205E+02 0.  0.
         13    1    3    3    0    0  0.69672550364E+03  0.36955479181E+03  0.33938662133E+03  0.85859213268E+03  0.00000000000E+00 0. -1.
        -13    1    3    3    0    0  0.38228370838E+03  0.22560228199E+03  0.26485191327E+03  0.51689820980E+03  0.00000000000E+00 0.  1.
         22    1    1    2    0    0 -0.10790092120E+04 -0.59515707380E+03 -0.74518673289E+03  0.14400611407E+04  0.00000000000E+00 0. -1.
<mgrwt>
<rscale>  0 0.28120213E+04</rscale>
<asrwt>0</asrwt>
<pdfrwt beam="1">  1        2 0.22742305E+00 0.28120213E+04</pdfrwt>
<pdfrwt beam="2">  1       -2 0.20573871E+00 0.28120213E+04</pdfrwt>
<totfact> 0.13851261E+00</totfact>
</mgrwt>
</event>
<event>
 6    1  0.1568961E-005  0.7386482E+03  0.7818608E-02  0.9653330E-01
          1   -1    0    0  501    0  0.00000000000E+00  0.00000000000E+00  0.43729167535E+03  0.43729167535E+03  0.00000000000E+00 0. -1.
         -1   -1    0    0    0  501 -0.00000000000E+00 -0.00000000000E+00 -0.31192060231E+03  0.31192060231E+03  0.00000000000E+00 0.  1.
         23    2    1    2    0    0 -0.20456513993E+03  0.44729265773E+02 -0.23792677305E+03  0.32988790602E+03  0.91483755454E+02 0.  0.
         13    1    3    3    0    0 -0.16853890113E+03  0.70407477716E+02 -0.20608837082E+03  0.27538153660E+03  0.00000000000E+00 0. -1.
        -13    1    3    3    0    0 -0.36026238800E+02 -0.25678211943E+02 -0.31838402227E+02  0.54506369417E+02  0.00000000000E+00 0.  1.
         22    1    1    2    0    0  0.20456513993E+03 -0.44729265773E+02  0.36329784608E+03  0.41932437165E+03  0.00000000000E+00 0. -1.
<mgrwt>
<rscale>  0 0.73864818E+03</rscale>
<asrwt>0</asrwt>
<pdfrwt beam="1">  1        1 0.67275643E-01 0.73864818E+03</pdfrwt>
<pdfrwt beam="2">  1       -1 0.47987785E-01 0.73864818E+03</pdfrwt>
<totfact> 0.23398422E+02</totfact>
</mgrwt>
</event>
<event>
 6    1  0.1568961E-005  0.1443804E+04  0.7818608E-02  0.8922707E-01
          1   -1    0    0  501    0  0.00000000000E+00  0.00000000000E+00  0.17976648789E+04  0.17976648789E+04  0.00000000000E+00 0. -1.
         -1   -1    0    0    0  501 -0.00000000000E+00 -0.00000000000E+00 -0.28989966975E+03  0.28989966975E+03  0.00000000000E+00 0.  1.
         23    2    1    2    0    0 -0.46575680965E+03  0.12608407186E+03 -0.14115574606E+02  0.49102212239E+03  0.89871443298E+02 0.  0.
         11    1    3    3    0    0 -0.89010862938E+02 -0.78945079119E+01 -0.17944122740E+02  0.91144108515E+02  0.00000000000E+00 0.  1.
        -11    1    3    3    0    0 -0.37674594671E+03  0.13397857977E+03  0.38285481344E+01  0.39987801387E+03  0.00000000000E+00 0. -1.
         22    1    1    2    0    0  0.46575680965E+03 -0.12608407186E+03  0.15218807838E+04  0.15965424263E+04  0.00000000000E+00 0. -1.
<mgrwt>
<rscale>  0 0.14438039E+04</rscale>
<asrwt>0</asrwt>
<pdfrwt beam="1">  1        1 0.27656382E+00 0.14438039E+04</pdfrwt>
<pdfrwt beam="2">  1       -1 0.44599950E-01 0.14438039E+04</pdfrwt>
<totfact> 0.19791652E+01</totfact>
</mgrwt>
</event>
<event>
 6    1  0.1568961E-005  0.1522620E+04  0.7818608E-02  0.8869549E-01
          2   -1    0    0  501    0  0.00000000000E+00  0.00000000000E+00  0.17809828512E+04  0.17809828512E+04  0.00000000000E+00 0. -1.
         -2   -1    0    0    0  501 -0.00000000000E+00 -0.00000000000E+00 -0.32543413934E+03  0.32543413934E+03  0.00000000000E+00 0.  1.
         23    2    1    2    0    0  0.16552068491E+03  0.49968501933E+03 -0.25170950077E+02  0.53491677326E+03  0.91761440207E+02 0.  0.
         11    1    3    3    0    0  0.14504426934E+03  0.48375886329E+03 -0.10562791630E+02  0.50514557352E+03  0.00000000000E+00 0. -1.
        -11    1    3    3    0    0  0.20476415565E+02  0.15926156043E+02 -0.14608158447E+02  0.29771199739E+02  0.00000000000E+00 0.  1.
         22    1    1    2    0    0 -0.16552068491E+03 -0.49968501933E+03  0.14807196619E+04  0.15715002173E+04  0.00000000000E+00 0. -1.
<mgrwt>
<rscale>  0 0.15226196E+04</rscale>
<asrwt>0</asrwt>
<pdfrwt beam="1">  1        2 0.27399736E+00 0.15226196E+04</pdfrwt>
<pdfrwt beam="2">  1       -2 0.50066792E-01 0.15226196E+04</pdfrwt>
<totfact> 0.32181433E+01</totfact>
</mgrwt>
</event>
<event>
 6    1  0.1568961E-005  0.9811573E+03  0.7818608E-02  0.9329456E-01
          2   -1    0    0  501    0  0.00000000000E+00  0.00000000000E+00  0.18586989916E+04  0.18586989916E+04  0.00000000000E+00 0. -1.
         -2   -1    0    0    0  501 -0.00000000000E+00 -0.00000000000E+00 -0.12948164912E+03  0.12948164912E+03  0.00000000000E+00 0.  1.
         23    2    1    2    0    0  0.16875161326E+03 -0.76648356011E+02  0.17832035996E+04  0.17951350672E+04  0.91338680490E+02 0.  0.
         11    1    3    3    0    0  0.15642668927E+03 -0.89883003339E+02  0.14102219609E+04  0.14217152466E+04  0.00000000000E+00 0. -1.
        -11    1    3    3    0    0  0.12324923988E+02  0.13234647328E+02  0.37298163868E+03  0.37341982062E+03  0.00000000000E+00 0.  1.
         22    1    1    2    0    0 -0.16875161326E+03  0.76648356011E+02 -0.53986257175E+02  0.19304557343E+03  0.00000000000E+00 0.  1.
<mgrwt>
<rscale>  0 0.98115730E+03</rscale>
<asrwt>0</asrwt>
<pdfrwt beam="1">  1        2 0.28595367E+00 0.98115730E+03</pdfrwt>
<pdfrwt beam="2">  1       -2 0.19920255E-01 0.98115730E+03</pdfrwt>
<totfact> 0.17259141E+02</totfact>
</mgrwt>
</event>
<event>
 6    1  0.1568961E-005  0.1355489E+04  0.7818608E-02  0.8986684E-01
         -1   -1    0    0    0  501 -0.00000000000E+00  0.00000000000E+00  0.79546272183E+03  0.79546272183E+03  0.00000000000E+00 0.  1.
          1   -1    0    0  501    0  0.00000000000E+00 -0.00000000000E+00 -0.57744680466E+03  0.57744680466E+03  0.00000000000E+00 0. -1.
         23    2    1    2    0    0  0.21638051818E+02  0.48154361356E+03 -0.36868988249E+03  0.61358340919E+03  0.90553373944E+02 0.  0.
         11    1    3    3    0    0  0.51765294715E+02  0.37391487930E+03 -0.26583373578E+03  0.46169205947E+03  0.00000000000E+00 0.  1.
        -11    1    3    3    0    0 -0.30127242897E+02  0.10762873427E+03 -0.10285614672E+03  0.15189134973E+03  0.00000000000E+00 0. -1.
         22    1    1    2    0    0 -0.21638051818E+02 -0.48154361356E+03  0.58670579967E+03  0.75932611730E+03  0.00000000000E+00 0.  1.
<mgrwt>
<rscale>  0 0.13554887E+04</rscale>
<asrwt>0</asrwt>
<pdfrwt beam="1">  1        1 0.88837971E-01 0.13554887E+04</pdfrwt>
<pdfrwt beam="2">  1       -1 0.12237888E+00 0.13554887E+04</pdfrwt>
<totfact> 0.20894747E+01</totfact>
</mgrwt>
</event>
<event>
 6    1  0.1568961E-005  0.1361046E+04  0.7818608E-02  0.8982508E-01
         -2   -1    0    0    0  501 -0.00000000000E+00  0.00000000000E+00  0.15636936343E+04  0.15636936343E+04  0.00000000000E+00 0.  1.
          2   -1    0    0  501    0  0.00000000000E+00 -0.00000000000E+00 -0.29616515649E+03  0.29616515649E+03  0.00000000000E+00 0. -1.
         23    2    1    2    0    0 -0.31660181981E+03 -0.28444086751E+03  0.13567939712E+04  0.14249891002E+04  0.92524245871E+02 0.  0.
         11    1    3    3    0    0 -0.20942623729E+03 -0.24244689851E+03  0.10090570429E+04  0.10586954063E+04  0.00000000000E+00 0. -1.
        -11    1    3    3    0    0 -0.10717558252E+03 -0.41993969000E+02  0.34773692830E+03  0.36629369395E+03  0.00000000000E+00 0.  1.
         22    1    1    2    0    0  0.31660181981E+03  0.28444086751E+03 -0.89265493422E+02  0.43486969052E+03  0.00000000000E+00 0. -1.
<mgrwt>
<rscale>  0 0.13610460E+04</rscale>
<asrwt>0</asrwt>
<pdfrwt beam="1">  1        2 0.45563871E-01 0.13610460E+04</pdfrwt>
<pdfrwt beam="2">  1       -2 0.24056825E+00 0.13610460E+04</pdfrwt>
<totfact> 0.79936746E+00</totfact>
</mgrwt>
</event>
<event>
 6    1  0.1568961E-005  0.2668112E+04  0.7818608E-02  0.8345426E-01
          2   -1    0    0  501    0  0.00000000000E+00  0.00000000000E+00  0.23176623733E+04  0.23176623733E+04  0.00000000000E+00 0. -1.
         -2   -1    0    0    0  501 -0.00000000000E+00 -0.00000000000E+00 -0.76788785125E+03  0.76788785125E+03  0.00000000000E+00 0.  1.
         23    2    1    2    0    0 -0.15010213467E+03  0.96220953380E+03  0.18276180288E+04  0.20728435287E+04  0.90082170345E+02 0.  0.
         13    1    3    3    0    0 -0.51204983367E+02  0.31148802073E+03  0.68437112669E+03  0.75366476396E+03  0.00000000000E+00 0.  1.
        -13    1    3    3    0    0 -0.98897151306E+02  0.65072151307E+03  0.11432469021E+04  0.13191787647E+04  0.00000000000E+00 0. -1.
         22    1    1    2    0    0  0.15010213467E+03 -0.96220953380E+03 -0.27784350669E+03  0.10127066959E+04  0.00000000000E+00 0.  1.
<mgrwt>
<rscale>  0 0.26681115E+04</rscale>
<asrwt>0</asrwt>
<pdfrwt beam="1">  1        2 0.35656344E+00 0.26681115E+04</pdfrwt>
<pdfrwt beam="2">  1       -2 0.11813659E+00 0.26681115E+04</pdfrwt>
<totfact> 0.21507172E+00</totfact>
</mgrwt>
</event>
<event>
 6    1  0.1568961E-005  0.1739885E+04  0.7818608E-02  0.8738938E-01
         -2   -1    0    0    0  501 -0.00000000000E+00  0.00000000000E+00  0.49888129866E+03  0.49888129866E+03  0.00000000000E+00 0.  1.
          2   -1    0    0  501    0  0.00000000000E+00 -0.00000000000E+00 -0.15169948878E+04  0.15169948878E+04  0.00000000000E+00 0. -1.
         23    2    1    2    0    0 -0.81102111434E+03 -0.18937175669E+03 -0.22860058306E+03  0.86829277035E+03  0.89761898038E+02 0.  0.
         13    1    3    3    0    0 -0.36739761345E+03 -0.71354884297E+02 -0.58859828539E+02  0.37886277898E+03  0.00000000000E+00 0.  1.
        -13    1    3    3    0    0 -0.44362350089E+03 -0.11801687239E+03 -0.16974075452E+03  0.48942999137E+03  0.00000000000E+00 0. -1.
         22    1    1    2    0    0  0.81102111434E+03  0.18937175669E+03 -0.78951300609E+03  0.11475834161E+04  0.00000000000E+00 0. -1.
<mgrwt>
<rscale>  0 0.17398855E+04</rscale>
<asrwt>0</asrwt>
<pdfrwt beam="1">  1        2 0.23338382E+00 0.17398855E+04</pdfrwt>
<pdfrwt beam="2">  1       -2 0.76750970E-01 0.17398855E+04</pdfrwt>
<totfact> 0.17865016E+01</totfact>
</mgrwt>
</event>
<event>
 6    1  0.1568961E-005  0.1402775E+04  0.7818608E-02  0.8951812E-01
          1   -1    0    0  501    0  0.00000000000E+00  0.00000000000E+00  0.14437956638E+04  0.14437956638E+04  0.00000000000E+00 0. -1.
         -1   -1    0    0    0  501 -0.00000000000E+00 -0.00000000000E+00 -0.34073008889E+03  0.34073008889E+03  0.00000000000E+00 0.  1.
         23    2    1    2    0    0  0.55665238955E+03 -0.40947231225E+03  0.42175583122E+03  0.81410706772E+03  0.85807221433E+02 0.  0.
         11    1    3    3    0    0  0.18230384484E+03 -0.15400102162E+03  0.10243838063E+03  0.25970103644E+03  0.00000000000E+00 0. -1.
        -11    1    3    3    0    0  0.37434854471E+03 -0.25547129063E+03  0.31931745059E+03  0.55440603128E+03  0.00000000000E+00 0.  1.
         22    1    1    2    0    0 -0.55665238955E+03  0.40947231225E+03  0.68130974367E+03  0.97041868496E+03  0.00000000000E+00 0.  1.
<mgrwt>
<rscale>  0 0.14027753E+04</rscale>
<asrwt>0</asrwt>
<pdfrwt beam="1">  1        1 0.22212241E+00 0.14027753E+04</pdfrwt>
<pdfrwt beam="2">  1       -1 0.52420014E-01 0.14027753E+04</pdfrwt>
<totfact> 0.25583515E+01</totfact>
</mgrwt>
</event>
<event>
 6    1  0.1568961E-005  0.2196100E+04  0.7818608E-02  0.8520053E-01
         -1   -1    0    0    0  501 -0.00000000000E+00  0.00000000000E+00  0.11817944644E+04  0.11817944644E+04  0.00000000000E+00 0.  1.
          1   -1    0    0  501    0  0.00000000000E+00 -0.00000000000E+00 -0.10202398830E+04  0.10202398830E+04  0.00000000000E+00 0. -1.
         23    2    1    2    0    0  0.27595570740E+03  0.10062628279E+04  0.41701673625E+03  0.11278009725E+04  0.96517583630E+02 0.  0.
         13    1    3    3    0    0  0.21033102785E+03  0.73282369239E+03  0.25876955014E+03  0.80512817954E+03  0.00000000000E+00 0. -1.
        -13    1    3    3    0    0  0.65624679552E+02  0.27343913555E+03  0.15824718610E+03  0.32267279297E+03  0.00000000000E+00 0.  1.
         22    1    1    2    0    0 -0.27595570740E+03 -0.10062628279E+04 -0.25546215486E+03  0.10742333750E+04  0.00000000000E+00 0.  1.
<mgrwt>
<rscale>  0 0.21961000E+04</rscale>
<asrwt>0</asrwt>
<pdfrwt beam="1">  1        1 0.15695998E+00 0.21961000E+04</pdfrwt>
<pdfrwt beam="2">  1       -1 0.18181453E+00 0.21961000E+04</pdfrwt>
<totfact> 0.26876878E+00</totfact>
</mgrwt>
</event>
<event>
 6    1  0.1568961E-005  0.2257814E+04  0.7818608E-02  0.8494743E-01
          1   -1    0    0  501    0  0.00000000000E+00  0.00000000000E+00  0.10575125761E+04  0.10575125761E+04  0.00000000000E+00 0. -1.
         -1   -1    0    0    0  501 -0.00000000000E+00 -0.00000000000E+00 -0.12051210847E+04  0.12051210847E+04  0.00000000000E+00 0.  1.
         23    2    1    2    0    0  0.62789689334E+03 -0.85093996598E+03 -0.46483023113E+03  0.11585580494E+04  0.88522741048E+02 0.  0.
         11    1    3    3    0    0  0.23144976004E+03 -0.32821695326E+03 -0.13092391578E+03  0.42241736654E+03  0.00000000000E+00 0.  1.
        -11    1    3    3    0    0  0.39644713330E+03 -0.52272301271E+03 -0.33390631535E+03  0.73614068286E+03  0.00000000000E+00 0. -1.
         22    1    1    2    0    0 -0.62789689334E+03  0.85093996598E+03  0.31722172257E+03  0.11040756114E+04  0.00000000000E+00 0. -1.
<mgrwt>
<rscale>  0 0.22578137E+04</rscale>
<asrwt>0</asrwt>
<pdfrwt beam="1">  1        1 0.16269424E+00 0.22578137E+04</pdfrwt>
<pdfrwt beam="2">  1       -1 0.18540324E+00 0.22578137E+04</pdfrwt>
<totfact> 0.23591017E+00</totfact>
</mgrwt>
</event>
<event>
 6    1  0.1568961E-005  0.1905886E+04  0.7818608E-02  0.8651932E-01
         -1   -1    0    0    0  501 -0.00000000000E+00  0.00000000000E+00  0.17057472190E+04  0.17057472190E+04  0.00000000000E+00 0.  1.
          1   -1    0    0  501    0  0.00000000000E+00 -0.00000000000E+00 -0.53237707101E+03  0.53237707101E+03  0.00000000000E+00 0. -1.
         23    2    1    2    0    0 -0.39662650735E+03 -0.69398209082E+03 -0.13709625757E+02  0.80701209387E+03  0.11025804781E+03 0.  0.
         13    1    3    3    0    0 -0.91040388613E+02 -0.10896119159E+03  0.31499481215E+02  0.14544109099E+03  0.00000000000E+00 0.  1.
        -13    1    3    3    0    0 -0.30558611873E+03 -0.58502089924E+03 -0.45209106972E+02  0.66157100289E+03  0.00000000000E+00 0. -1.
         22    1    1    2    0    0  0.39662650735E+03  0.69398209082E+03  0.11870797738E+04  0.14311121962E+04  0.00000000000E+00 0.  1.
<mgrwt>
<rscale>  0 0.19058864E+04</rscale>
<asrwt>0</asrwt>
<pdfrwt beam="1">  1        1 0.81904166E-01 0.19058864E+04</pdfrwt>
<pdfrwt beam="2">  1       -1 0.26242265E+00 0.19058864E+04</pdfrwt>
<totfact> 0.21980800E+00</totfact>
</mgrwt>
</event>
<event>
 6    1  0.1568961E-005  0.8093230E+03  0.7818608E-02  0.9546620E-01
         -2   -1    0    0    0  501 -0.00000000000E+00  0.00000000000E+00  0.97105560497E+02  0.97105560497E+02  0.00000000000E+00 0.  1.
          2   -1    0    0  501    0  0.00000000000E+00 -0.00000000000E+00 -0.16863189318E+04  0.16863189318E+04  0.00000000000E+00 0. -1.
         23    2    1    2    0    0  0.38448316329E+02  0.27202832278E+02 -0.16789708566E+04  0.16820604292E+04  0.90365274888E+02 0.  0.
         11    1    3    3    0    0  0.34734480097E+02  0.34751279660E+02 -0.39266978434E+03  0.39573184744E+03  0.00000000000E+00 0. -1.
        -11    1    3    3    0    0  0.37138362322E+01 -0.75484473813E+01 -0.12863010723E+04  0.12863285817E+04  0.00000000000E+00 0.  1.
         22    1    1    2    0    0 -0.38448316329E+02 -0.27202832278E+02  0.89757485342E+02  0.10136406310E+03  0.00000000000E+00 0.  1.
<mgrwt>
<rscale>  0 0.80932304E+03</rscale>
<asrwt>0</asrwt>
<pdfrwt beam="1">  1        2 0.25943366E+00 0.80932304E+03</pdfrwt>
<pdfrwt beam="2">  1       -2 0.14939318E-01 0.80932304E+03</pdfrwt>
<totfact> 0.35644492E+02</totfact>
</mgrwt>
</event>
<event>
 6    1  0.1568961E-005  0.3004038E+04  0.7818608E-02  0.8242579E-01
         -2   -1    0    0    0  501 -0.00000000000E+00  0.00000000000E+00  0.22868894217E+04  0.22868894217E+04  0.00000000000E+00 0.  1.
          2   -1    0    0  501    0  0.00000000000E+00 -0.00000000000E+00 -0.98651960678E+03  0.98651960678E+03  0.00000000000E+00 0. -1.
         23    2    1    2    0    0 -0.29050119465E+03 -0.10106977068E+04  0.18172370654E+04  0.21016357769E+04  0.92852506225E+02 0.  0.
         11    1    3    3    0    0 -0.20657381474E+03 -0.58040520447E+03  0.10112080807E+04  0.11840965859E+04  0.00000000000E+00 0. -1.
        -11    1    3    3    0    0 -0.83927379914E+02 -0.43029250236E+03  0.80602898471E+03  0.91753919092E+03  0.00000000000E+00 0.  1.
         22    1    1    2    0    0  0.29050119465E+03  0.10106977068E+04 -0.51686725047E+03  0.11717732517E+04  0.00000000000E+00 0. -1.
<mgrwt>
<rscale>  0 0.30040381E+04</rscale>
<asrwt>0</asrwt>
<pdfrwt beam="1">  1        2 0.15177225E+00 0.30040381E+04</pdfrwt>
<pdfrwt beam="2">  1       -2 0.35182914E+00 0.30040381E+04</pdfrwt>
<totfact> 0.33307165E-01</totfact>
</mgrwt>
</event>
<event>
 6    1  0.1568961E-005  0.1782790E+04  0.7818608E-02  0.8715505E-01
         -2   -1    0    0    0  501 -0.00000000000E+00  0.00000000000E+00  0.33185965865E+03  0.33185965865E+03  0.00000000000E+00 0.  1.
          2   -1    0    0  501    0  0.00000000000E+00 -0.00000000000E+00 -0.23943417799E+04  0.23943417799E+04  0.00000000000E+00 0. -1.
         23    2    1    2    0    0 -0.77375775256E+03  0.42352687760E+03 -0.12028702354E+04  0.14945323799E+04  0.93027714842E+02 0.  0.
         13    1    3    3    0    0 -0.61171750437E+03  0.37590008045E+03 -0.98256712403E+03  0.12169376849E+04  0.00000000000E+00 0. -1.
        -13    1    3    3    0    0 -0.16204024820E+03  0.47626797143E+02 -0.22030311132E+03  0.27759469501E+03  0.00000000000E+00 0.  1.
         22    1    1    2    0    0  0.77375775256E+03 -0.42352687760E+03 -0.85961188588E+03  0.12316690587E+04  0.00000000000E+00 0.  1.
<mgrwt>
<rscale>  0 0.17827904E+04</rscale>
<asrwt>0</asrwt>
<pdfrwt beam="1">  1        2 0.36836028E+00 0.17827904E+04</pdfrwt>
<pdfrwt beam="2">  1       -2 0.51055332E-01 0.17827904E+04</pdfrwt>
<totfact> 0.13740996E+01</totfact>
</mgrwt>
</event>
<event>
 6    1  0.1568961E-005  0.1970723E+04  0.7818608E-02  0.8620432E-01
          2   -1    0    0  501    0  0.00000000000E+00  0.00000000000E+00  0.19104139765E+04  0.19104139765E+04  0.00000000000E+00 0. -1.
         -2   -1    0    0    0  501 -0.00000000000E+00 -0.00000000000E+00 -0.50823422213E+03  0.50823422213E+03  0.00000000000E+00 0.  1.
         23    2    1    2    0    0 -0.11531973620E+03 -0.45101415705E+03  0.17654821952E+04  0.18281390328E+04  0.91937642223E+02 0.  0.
         11    1    3    3    0    0 -0.26099195389E+01 -0.11961362668E+03  0.34475779780E+03  0.36492762366E+03  0.00000000000E+00 0. -1.
        -11    1    3    3    0    0 -0.11270981666E+03 -0.33140053037E+03  0.14207243974E+04  0.14632114091E+04  0.00000000000E+00 0.  1.
         22    1    1    2    0    0  0.11531973620E+03  0.45101415705E+03 -0.36330244087E+03  0.59050916586E+03  0.00000000000E+00 0.  1.
<mgrwt>
<rscale>  0 0.19707235E+04</rscale>
<asrwt>0</asrwt>
<pdfrwt beam="1">  1        2 0.29390984E+00 0.19707235E+04</pdfrwt>
<pdfrwt beam="2">  1       -2 0.78189882E-01 0.19707235E+04</pdfrwt>
<totfact> 0.10153340E+01</totfact>
</mgrwt>
</event>
<event>
 6    1  0.1568961E-005  0.4780801E+04  0.7818608E-02  0.7863240E-01
         -1   -1    0    0    0  501 -0.00000000000E+00  0.00000000000E+00  0.15336948597E+04  0.15336948597E+04  0.00000000000E+00 0.  1.
          1   -1    0    0  501    0  0.00000000000E+00 -0.00000000000E+00 -0.37256534686E+04  0.37256534686E+04  0.00000000000E+00 0. -1.
         23    2    1    2    0    0  0.42772298240E+03 -0.18491965107E+04  0.50061571488E+03  0.19650454926E+04  0.91175705468E+02 0.  0.
         11    1    3    3    0    0  0.23465422784E+03 -0.11014507857E+04  0.33853232612E+03  0.11759509241E+04  0.00000000000E+00 0.  1.
        -11    1    3    3    0    0  0.19306875455E+03 -0.74774572493E+03  0.16208338876E+03  0.78909456851E+03  0.00000000000E+00 0. -1.
         22    1    1    2    0    0 -0.42772298240E+03  0.18491965107E+04 -0.26925743237E+04  0.32943028357E+04  0.00000000000E+00 0. -1.
<mgrwt>
<rscale>  0 0.47808014E+04</rscale>
<asrwt>0</asrwt>
<pdfrwt beam="1">  1        1 0.57317746E+00 0.47808014E+04</pdfrwt>
<pdfrwt beam="2">  1       -1 0.23595305E+00 0.47808014E+04</pdfrwt>
<totfact> 0.10385767E-02</totfact>
</mgrwt>
</event>
<event>
 6    1  0.1568961E-005  0.2642376E+04  0.7818608E-02  0.8353948E-01
         -2   -1    0    0    0  501 -0.00000000000E+00  0.00000000000E+00  0.69208199688E+03  0.69208199688E+03  0.00000000000E+00 0.  1.
          2   -1    0    0  501    0  0.00000000000E+00 -0.00000000000E+00 -0.25221544677E+04  0.25221544677E+04  0.00000000000E+00 0. -1.
         23    2    1    2    0    0 -0.11021342807E+04 -0.10730189043E+03 -0.43265538828E+02  0.11121202260E+04  0.93412107734E+02 0.  0.
         13    1    3    3    0    0 -0.24904860961E+03 -0.21864287174E+02 -0.48922404379E+02  0.25474822600E+03  0.00000000000E+00 0. -1.
        -13    1    3    3    0    0 -0.85308567107E+03 -0.85437603254E+02  0.56568655506E+01  0.85737199999E+03  0.00000000000E+00 0.  1.
         22    1    1    2    0    0  0.11021342807E+04  0.10730189043E+03 -0.17868069319E+04  0.21021162385E+04  0.00000000000E+00 0. -1.
<mgrwt>
<rscale>  0 0.26423760E+04</rscale>
<asrwt>0</asrwt>
<pdfrwt beam="1">  1        2 0.38802376E+00 0.26423760E+04</pdfrwt>
<pdfrwt beam="2">  1       -2 0.10647415E+00 0.26423760E+04</pdfrwt>
<totfact> 0.21170036E+00</totfact>
</mgrwt>
</event>
<event>
 6    1  0.1568961E-005  0.1339262E+04  0.7818608E-02  0.8998997E-01
         -2   -1    0    0    0  501 -0.00000000000E+00  0.00000000000E+00  0.11005426306E+04  0.11005426306E+04  0.00000000000E+00 0.  1.
          2   -1    0    0  501    0  0.00000000000E+00 -0.00000000000E+00 -0.40744039003E+03  0.40744039003E+03  0.00000000000E+00 0. -1.
         23    2    1    2    0    0  0.58248177228E+03  0.15863085759E+03  0.33204702846E+02  0.61360417233E+03  0.10468411530E+03 0.  0.
         13    1    3    3    0    0  0.10217726936E+03  0.21085145728E+02 -0.33461608737E+02  0.10956485296E+03  0.00000000000E+00 0. -1.
        -13    1    3    3    0    0  0.48030450291E+03  0.13754571187E+03  0.66666311583E+02  0.50403931937E+03  0.00000000000E+00 0.  1.
         22    1    1    2    0    0 -0.58248177228E+03 -0.15863085759E+03  0.65989753775E+03  0.89437884833E+03  0.00000000000E+00 0.  1.
<mgrwt>
<rscale>  0 0.13392618E+04</rscale>
<asrwt>0</asrwt>
<pdfrwt beam="1">  1        2 0.62683137E-01 0.13392618E+04</pdfrwt>
<pdfrwt beam="2">  1       -2 0.16931425E+00 0.13392618E+04</pdfrwt>
<totfact> 0.16389485E+01</totfact>
</mgrwt>
</event>
<event>
 6    1  0.1568961E-005  0.2061761E+04  0.7818608E-02  0.8578278E-01
          1   -1    0    0  501    0  0.00000000000E+00  0.00000000000E+00  0.85888762059E+03  0.85888762059E+03  0.00000000000E+00 0. -1.
         -1   -1    0    0    0  501 -0.00000000000E+00 -0.00000000000E+00 -0.12373146089E+04  0.12373146089E+04  0.00000000000E+00 0.  1.
         23    2    1    2    0    0  0.91028990935E+03 -0.34810044500E+03 -0.52501578766E+03  0.11106618117E+04  0.90146790721E+02 0.  0.
         13    1    3    3    0    0  0.18863404426E+03 -0.34147184331E+02 -0.98496573340E+02  0.21552356672E+03  0.00000000000E+00 0. -1.
        -13    1    3    3    0    0  0.72165586509E+03 -0.31395326067E+03 -0.42651921432E+03  0.89513824502E+03  0.00000000000E+00 0.  1.
         22    1    1    2    0    0 -0.91028990935E+03  0.34810044500E+03  0.14658879938E+03  0.98554041773E+03  0.00000000000E+00 0. -1.
<mgrwt>
<rscale>  0 0.20617606E+04</rscale>
<asrwt>0</asrwt>
<pdfrwt beam="1">  1        1 0.13213656E+00 0.20617606E+04</pdfrwt>
<pdfrwt beam="2">  1       -1 0.19035609E+00 0.20617606E+04</pdfrwt>
<totfact> 0.31909523E+00</totfact>
</mgrwt>
</event>
<event>
 6    1  0.1568961E-005  0.4659708E+04  0.7818608E-02  0.7883258E-01
          1   -1    0    0  501    0  0.00000000000E+00  0.00000000000E+00  0.21863097244E+04  0.21863097244E+04  0.00000000000E+00 0.  1.
         -1   -1    0    0    0  501 -0.00000000000E+00 -0.00000000000E+00 -0.24828223488E+04  0.24828223488E+04  0.00000000000E+00 0. -1.
         23    2    1    2    0    0 -0.30211615410E+03 -0.14808480856E+04  0.16272371955E+04  0.22227063963E+04  0.91310518137E+02 0.  0.
         13    1    3    3    0    0 -0.27616973082E+03 -0.12062012485E+04  0.13016925812E+04  0.17959940835E+04  0.00000000000E+00 0. -1.
        -13    1    3    3    0    0 -0.25946423278E+02 -0.27464683707E+03  0.32554461425E+03  0.42671231276E+03  0.00000000000E+00 0.  1.
         22    1    1    2    0    0  0.30211615410E+03  0.14808480856E+04 -0.19237498199E+04  0.24464256769E+04  0.00000000000E+00 0. -1.
<mgrwt>
<rscale>  0 0.46597076E+04</rscale>
<asrwt>0</asrwt>
<pdfrwt beam="1">  1        1 0.33635534E+00 0.46597076E+04</pdfrwt>
<pdfrwt beam="2">  1       -1 0.38197267E+00 0.46597076E+04</pdfrwt>
<totfact> 0.15665071E-02</totfact>
</mgrwt>
</event>
<event>
 6    1  0.1568961E-005  0.4073539E+04  0.7818608E-02  0.7989874E-01
         -2   -1    0    0    0  501 -0.00000000000E+00  0.00000000000E+00  0.15228690162E+04  0.15228690162E+04  0.00000000000E+00 0.  1.
          2   -1    0    0  501    0  0.00000000000E+00 -0.00000000000E+00 -0.27240882119E+04  0.27240882119E+04  0.00000000000E+00 0. -1.
         23    2    1    2    0    0  0.41482358067E+03 -0.13936295296E+04  0.88446730197E+03  0.17044446842E+04  0.92560274156E+02 0.  0.
         11    1    3    3    0    0  0.34478776034E+03 -0.12572239325E+04  0.78861013633E+03  0.15236129966E+04  0.00000000000E+00 0. -1.
        -11    1    3    3    0    0  0.70035820326E+02 -0.13640559707E+03  0.95857165642E+02  0.18083168762E+03  0.00000000000E+00 0.  1.
         22    1    1    2    0    0 -0.41482358067E+03  0.13936295296E+04 -0.20856864977E+04  0.25425125438E+04  0.00000000000E+00 0. -1.
<mgrwt>
<rscale>  0 0.40735388E+04</rscale>
<asrwt>0</asrwt>
<pdfrwt beam="1">  1        2 0.41909050E+00 0.40735388E+04</pdfrwt>
<pdfrwt beam="2">  1       -2 0.23428754E+00 0.40735388E+04</pdfrwt>
<totfact> 0.16191721E-01</totfact>
</mgrwt>
</event>
<event>
 6    1  0.1568961E-005  0.2448412E+04  0.7818608E-02  0.8421598E-01
         -1   -1    0    0    0  501 -0.00000000000E+00  0.00000000000E+00  0.65019771840E+03  0.65019771840E+03  0.00000000000E+00 0. -1.
          1   -1    0    0  501    0  0.00000000000E+00 -0.00000000000E+00 -0.23049603212E+04  0.23049603212E+04  0.00000000000E+00 0.  1.
         23    2    1    2    0    0 -0.12057109031E+04 -0.13855779005E+03 -0.10059384304E+04  0.15789640671E+04  0.90985473928E+02 0.  0.
         13    1    3    3    0    0 -0.10851613433E+04 -0.97672579129E+02 -0.90954258214E+03  0.14192895344E+04  0.00000000000E+00 0.  1.
        -13    1    3    3    0    0 -0.12054955979E+03 -0.40885210924E+02 -0.96395848213E+02  0.15967453269E+03  0.00000000000E+00 0. -1.
         22    1    1    2    0    0  0.12057109031E+04  0.13855779005E+03 -0.64882417247E+03  0.13761939725E+04  0.00000000000E+00 0. -1.
<mgrwt>
<rscale>  0 0.24484117E+04</rscale>
<asrwt>0</asrwt>
<pdfrwt beam="1">  1        1 0.35460929E+00 0.24484117E+04</pdfrwt>
<pdfrwt beam="2">  1       -1 0.10003042E+00 0.24484117E+04</pdfrwt>
<totfact> 0.15691342E+00</totfact>
</mgrwt>
</event>
<event>
 6    1  0.1568961E-005  0.4817283E+04  0.7818608E-02  0.7857328E-01
         -1   -1    0    0    0  501 -0.00000000000E+00  0.00000000000E+00  0.15715998339E+04  0.15715998339E+04  0.00000000000E+00 0.  1.
          1   -1    0    0  501    0  0.00000000000E+00 -0.00000000000E+00 -0.36914955197E+04  0.36914955197E+04  0.00000000000E+00 0. -1.
         23    2    1    2    0    0  0.13990290864E+04  0.10234867092E+04  0.76546335585E+03  0.18970733353E+04  0.90253319986E+02 0.  0.
         13    1    3    3    0    0  0.69123950972E+03  0.45106038911E+03  0.37423900733E+03  0.90626837583E+03  0.00000000000E+00 0. -1.
        -13    1    3    3    0    0  0.70778957671E+03  0.57242632013E+03  0.39122434852E+03  0.99080495949E+03  0.00000000000E+00 0.  1.
         22    1    1    2    0    0 -0.13990290864E+04 -0.10234867092E+04 -0.28853590417E+04  0.33660220183E+04  0.00000000000E+00 0. -1.
<mgrwt>
<rscale>  0 0.48172829E+04</rscale>
<asrwt>0</asrwt>
<pdfrwt beam="1">  1        1 0.56792239E+00 0.48172829E+04</pdfrwt>
<pdfrwt beam="2">  1       -1 0.24178459E+00 0.48172829E+04</pdfrwt>
<totfact> 0.10114727E-02</totfact>
</mgrwt>
</event>
<event>
 6    1  0.1568961E-005  0.2662343E+04  0.7818608E-02  0.8347328E-01
         -2   -1    0    0    0  501 -0.00000000000E+00  0.00000000000E+00  0.75739854506E+03  0.75739854506E+03  0.00000000000E+00 0. -1.
          2   -1    0    0  501    0  0.00000000000E+00 -0.00000000000E+00 -0.23396107732E+04  0.23396107732E+04  0.00000000000E+00 0.  1.
         23    2    1    2    0    0 -0.37267941397E+03  0.10584220760E+03 -0.22716070312E+04  0.23062136980E+04  0.91272110714E+02 0.  0.
         11    1    3    3    0    0 -0.18952426007E+03  0.20096748401E+02 -0.91722152241E+03  0.93681302597E+03  0.00000000000E+00 0.  1.
        -11    1    3    3    0    0 -0.18315515389E+03  0.85745459196E+02 -0.13543855088E+04  0.13694006720E+04  0.00000000000E+00 0. -1.
         22    1    1    2    0    0  0.37267941397E+03 -0.10584220760E+03  0.68939480306E+03  0.79079562024E+03  0.00000000000E+00 0. -1.
<mgrwt>
<rscale>  0 0.26623432E+04</rscale>
<asrwt>0</asrwt>
<pdfrwt beam="1">  1        2 0.35994011E+00 0.26623432E+04</pdfrwt>
<pdfrwt beam="2">  1       -2 0.11652285E+00 0.26623432E+04</pdfrwt>
<totfact> 0.21624520E+00</totfact>
</mgrwt>
</event>
