<event>
 6    1  0.2866116E-002  0.9156157E+02  0.7546771E-02  0.1404930E+00
         -2   -1    0    0    0  501 -0.00000000000E+00  0.00000000000E+00  0.73066238873E+02  0.73066238873E+02  0.00000000000E+00 0.  1.
          2   -1    0    0  501    0  0.00000000000E+00 -0.00000000000E+00 -0.52345079684E+02  0.52345079684E+02  0.00000000000E+00 0. -1.
         23    2    1    2    0    0  0.14999009075E+02  0.16718788858E+01 -0.90758809569E+01  0.92010284835E+02  0.90309221279E+02 0.  0.
         13    1    3    3    0    0  0.44124438591E+02  0.25090712739E+02  0.71622812675E+01  0.51262151922E+02  0.00000000000E+00 0.  1.
        -13    1    3    3    0    0 -0.29125429515E+02 -0.23418833853E+02 -0.16238162224E+02  0.40748132913E+02  0.00000000000E+00 0. -1.
         22    1    1    2    0    0 -0.14999009075E+02 -0.16718788858E+01  0.29797040145E+02  0.33401033722E+02  0.00000000000E+00 0. -1.
<mgrwt>
<rscale>  0 0.58340601E+02</rscale>
<asrwt>0</asrwt>
<pdfrwt beam="1">  1        2 0.80530892E-02 0.91561569E+02</pdfrwt>
<pdfrwt beam="2">  1       -2 0.11240960E-01 0.91561569E+02</pdfrwt>
<totfact> 0.40162821E+04</totfact>
</mgrwt>
</event>
<event>
 6    1  0.2866116E-002  0.9133028E+02  0.7546771E-02  0.1427485E+00
          2   -1    0    0  501    0  0.00000000000E+00  0.00000000000E+00  0.13833658362E+03  0.13833658362E+03  0.00000000000E+00 0. -1.
         -2   -1    0    0    0  501 -0.00000000000E+00 -0.00000000000E+00 -0.23691320911E+02  0.23691320911E+02  0.00000000000E+00 0.  1.
         23    2    1    2    0    0 -0.13487140325E+01 -0.10643422117E+02  0.11937333649E+03  0.15030373523E+03  0.90697948687E+02 0.  0.
         11    1    3    3    0    0 -0.14230558949E+02 -0.63153740387E+01 -0.11102449664E+02  0.19122163732E+02  0.00000000000E+00 0.  1.
        -11    1    3    3    0    0  0.12881844916E+02 -0.43280480787E+01  0.13047578616E+03  0.13118157150E+03  0.00000000000E+00 0. -1.
         22    1    1    2    0    0  0.13487140325E+01  0.10643422117E+02 -0.47280737863E+01  0.11724169294E+02  0.00000000000E+00 0. -1.
<mgrwt>
<rscale>  0 0.53468276E+02</rscale>
<asrwt>0</asrwt>
<pdfrwt beam="1">  1        2 0.21282551E-01 0.91330276E+02</pdfrwt>
<pdfrwt beam="2">  1       -2 0.36448187E-02 0.91330276E+02</pdfrwt>
<totfact> 0.70211153E+04</totfact>
</mgrwt>
</event>
<event>
 6    1  0.2866116E-002  0.9404604E+02  0.7546771E-02  0.1364476E+00
          2   -1    0    0  501    0  0.00000000000E+00  0.00000000000E+00  0.22136933602E+03  0.22136933602E+03  0.00000000000E+00 0. -1.
         -2   -1    0    0    0  501 -0.00000000000E+00 -0.00000000000E+00 -0.16795935881E+02  0.16795935881E+02  0.00000000000E+00 0.  1.
         23    2    1    2    0    0  0.25101412601E+02  0.94521808177E+01  0.17138931105E+03  0.19549668386E+03  0.90140073337E+02 0.  0.
         13    1    3    3    0    0  0.47303489751E+02  0.63989206214E+01  0.16561053965E+03  0.17235259549E+03  0.00000000000E+00 0. -1.
        -13    1    3    3    0    0 -0.22202077151E+02  0.30532601963E+01  0.57787713965E+01  0.23144088370E+02  0.00000000000E+00 0.  1.
         22    1    1    2    0    0 -0.25101412601E+02 -0.94521808177E+01  0.33184089088E+02  0.42668588040E+02  0.00000000000E+00 0.  1.
<mgrwt>
<rscale>  0 0.68727183E+02</rscale>
<asrwt>0</asrwt>
<pdfrwt beam="1">  1        2 0.34056819E-01 0.94046039E+02</pdfrwt>
<pdfrwt beam="2">  1       -2 0.25839903E-02 0.94046039E+02</pdfrwt>
<totfact> 0.69941143E+04</totfact>
</mgrwt>
</event>
<event>
 6    1  0.2866116E-002  0.9302973E+02  0.7546771E-02  0.1393379E+00
          2   -1    0    0  501    0  0.00000000000E+00  0.00000000000E+00  0.12945207958E+04  0.12945207958E+04  0.00000000000E+00 0.  1.
         -2   -1    0    0    0  501 -0.00000000000E+00 -0.00000000000E+00 -0.60583690543E+01  0.60583690543E+01  0.00000000000E+00 0. -1.
         23    2    1    2    0    0 -0.17104650178E+02 -0.24611382840E+01  0.12757220648E+04  0.12791095798E+04  0.91410635229E+02 0.  0.
         11    1    3    3    0    0 -0.22339090405E+02  0.26043483186E+02  0.19477723522E+03  0.19777631136E+03  0.00000000000E+00 0. -1.
        -11    1    3    3    0    0  0.52344402262E+01 -0.28504621470E+02  0.10809448296E+04  0.10813332684E+04  0.00000000000E+00 0.  1.
         22    1    1    2    0    0  0.17104650178E+02  0.24611382840E+01  0.12740361891E+02  0.21469585010E+02  0.00000000000E+00 0. -1.
<mgrwt>
<rscale>  0 0.61074134E+02</rscale>
<asrwt>0</asrwt>
<pdfrwt beam="1">  1        2 0.19915683E+00 0.93029729E+02</pdfrwt>
<pdfrwt beam="2">  1       -2 0.93205781E-03 0.93029729E+02</pdfrwt>
<totfact> 0.38332503E+04</totfact>
</mgrwt>
</event>
<event>
 6    1  0.2866116E-002  0.8821752E+02  0.7546771E-02  0.1384858E+00
          2   -1    0    0  501    0  0.00000000000E+00  0.00000000000E+00  0.71480964528E+03  0.71480964528E+03  0.00000000000E+00 0. -1.
         -2   -1    0    0    0  501 -0.00000000000E+00 -0.00000000000E+00 -0.40574634695E+02  0.40574634695E+02  0.00000000000E+00 0.  1.
         23    2    1    2    0    0 -0.23160205669E+02 -0.19716474110E+01  0.70850456635E+03  0.71397552519E+03  0.85100220433E+02 0.  0.
         11    1    3    3    0    0 -0.10485967262E+02 -0.30533330259E+01  0.69617424027E+03  0.69625990203E+03  0.00000000000E+00 0. -1.
        -11    1    3    3    0    0 -0.12674238407E+02  0.10816856149E+01  0.12330326073E+02  0.17715623163E+02  0.00000000000E+00 0.  1.
         22    1    1    2    0    0  0.23160205669E+02  0.19716474110E+01 -0.34269555765E+02  0.41408754780E+02  0.00000000000E+00 0.  1.
<mgrwt>
<rscale>  0 0.63203879E+02</rscale>
<asrwt>0</asrwt>
<pdfrwt beam="1">  1        2 0.10997071E+00 0.88217515E+02</pdfrwt>
<pdfrwt beam="2">  1       -2 0.62422520E-02 0.88217515E+02</pdfrwt>
<totfact> 0.53861356E+03</totfact>
</mgrwt>
</event>
<event>
 6    1  0.2866116E-002  0.9255857E+02  0.7546771E-02  0.1423089E+00
         -2   -1    0    0    0  501 -0.00000000000E+00  0.00000000000E+00  0.22811088624E+01  0.22811088624E+01  0.00000000000E+00 0.  1.
          2   -1    0    0  501    0  0.00000000000E+00 -0.00000000000E+00 -0.12531649031E+04  0.12531649031E+04  0.00000000000E+00 0. -1.
         23    2    1    2    0    0 -0.60219200636E+01 -0.92319170422E+01 -0.11882737383E+04  0.11918731332E+04  0.91899927219E+02 0.  0.
         11    1    3    3    0    0 -0.42164894670E+02  0.60243575508E+01 -0.89159648962E+03  0.89261328218E+03  0.00000000000E+00 0. -1.
        -11    1    3    3    0    0  0.36142974607E+02 -0.15256274593E+02 -0.29667724868E+03  0.29925985098E+03  0.00000000000E+00 0.  1.
         22    1    1    2    0    0  0.60219200636E+01  0.92319170422E+01 -0.62610055906E+02  0.63572878762E+02  0.00000000000E+00 0.  1.
<mgrwt>
<rscale>  0 0.54372693E+02</rscale>
<asrwt>0</asrwt>
<pdfrwt beam="1">  1        2 0.19279456E+00 0.92558568E+02</pdfrwt>
<pdfrwt beam="2">  1       -2 0.35093990E-03 0.92558568E+02</pdfrwt>
<totfact> 0.15894748E+05</totfact>
</mgrwt>
</event>
<event>
 6    1  0.2866116E-002  0.9010360E+02  0.7546771E-02  0.1418931E+00
         -2   -1    0    0    0  501 -0.00000000000E+00  0.00000000000E+00  0.16022552107E+03  0.16022552107E+03  0.00000000000E+00 0.  1.
          2   -1    0    0  501    0  0.00000000000E+00 -0.00000000000E+00 -0.17135145352E+02  0.17135145352E+02  0.00000000000E+00 0. -1.
         23    2    1    2    0    0 -0.10898172075E+02  0.65905560502E+01  0.11187943988E+03  0.14365120040E+03  0.89198950246E+02 0.  0.
         13    1    3    3    0    0 -0.67660496806E+01 -0.17145915892E+02 -0.89164450802E+01  0.20475957924E+02  0.00000000000E+00 0. -1.
        -13    1    3    3    0    0 -0.41321223946E+01  0.23736471942E+02  0.12079588496E+03  0.12317524248E+03  0.00000000000E+00 0.  1.
         22    1    1    2    0    0  0.10898172075E+02 -0.65905560502E+01  0.31210935838E+02  0.33709466023E+02  0.00000000000E+00 0.  1.
<mgrwt>
<rscale>  0 0.55247779E+02</rscale>
<asrwt>0</asrwt>
<pdfrwt beam="1">  1        2 0.26361763E-02 0.90103598E+02</pdfrwt>
<pdfrwt beam="2">  1       -2 0.24650079E-01 0.90103598E+02</pdfrwt>
<totfact> 0.46828537E+04</totfact>
</mgrwt>
</event>
<event>
 6    1  0.2866116E-002  0.9179019E+02  0.7546771E-02  0.1401745E+00
         -2   -1    0    0    0  501 -0.00000000000E+00  0.00000000000E+00  0.43870295743E+02  0.43870295743E+02  0.00000000000E+00 0.  1.
          2   -1    0    0  501    0  0.00000000000E+00 -0.00000000000E+00 -0.70673898102E+02  0.70673898102E+02  0.00000000000E+00 0. -1.
         23    2    1    2    0    0  0.11834190175E+01  0.15705922816E+02 -0.33108430480E+02  0.97578718616E+02  0.90428765699E+02 0.  0.
         11    1    3    3    0    0  0.10289667613E+02  0.52698268980E+02 -0.19309181375E+02  0.57059874679E+02  0.00000000000E+00 0.  1.
        -11    1    3    3    0    0 -0.91062485952E+01 -0.36992346163E+02 -0.13799249106E+02  0.40518843937E+02  0.00000000000E+00 0. -1.
         22    1    1    2    0    0 -0.11834190175E+01 -0.15705922816E+02  0.63048281218E+01  0.16965475229E+02  0.00000000000E+00 0.  1.
<mgrwt>
<rscale>  0 0.59077266E+02</rscale>
<asrwt>0</asrwt>
<pdfrwt beam="1">  1        2 0.10872907E-01 0.91790186E+02</pdfrwt>
<pdfrwt beam="2">  1       -2 0.67492764E-02 0.91790186E+02</pdfrwt>
<totfact> 0.61075097E+04</totfact>
</mgrwt>
</event>
<event>
 6    1  0.2866116E-002  0.1705606E+03  0.7546771E-02  0.1184669E+00
          2   -1    0    0  501    0  0.00000000000E+00  0.00000000000E+00  0.23359062029E+03  0.23359062029E+03  0.00000000000E+00 0.  1.
         -2   -1    0    0    0  501 -0.00000000000E+00 -0.00000000000E+00 -0.17726700167E+03  0.17726700167E+03  0.00000000000E+00 0. -1.
         23    2    1    2    0    0 -0.46677872695E+01  0.14437170338E+03  0.15936312952E+03  0.23342561305E+03  0.90696928303E+02 0.  0.
         11    1    3    3    0    0 -0.17152155155E+02  0.14710649233E+03  0.16290368266E+03  0.22016386247E+03  0.00000000000E+00 0.  1.
        -11    1    3    3    0    0  0.12484367886E+02 -0.27347889474E+01 -0.35405531402E+01  0.13261750587E+02  0.00000000000E+00 0. -1.
         22    1    1    2    0    0  0.46677872695E+01 -0.14437170338E+03 -0.10303951091E+03  0.17743200890E+03  0.00000000000E+00 0. -1.
<mgrwt>
<rscale>  0 0.16361994E+03</rscale>
<asrwt>0</asrwt>
<pdfrwt beam="1">  1        2 0.35937019E-01 0.17056058E+03</pdfrwt>
<pdfrwt beam="2">  1       -2 0.27271846E-01 0.17056058E+03</pdfrwt>
<totfact> 0.17219418E+03</totfact>
</mgrwt>
</event>
<event>
 6    1  0.2866116E-002  0.9619653E+02  0.7546771E-02  0.1350004E+00
          2   -1    0    0  501    0  0.00000000000E+00  0.00000000000E+00  0.75668970937E+02  0.75668970937E+02  0.00000000000E+00 0. -1.
         -2   -1    0    0    0  501 -0.00000000000E+00 -0.00000000000E+00 -0.79760563402E+02  0.79760563402E+02  0.00000000000E+00 0.  1.
         23    2    1    2    0    0 -0.30755518906E+02 -0.88268656828E+01  0.37245774282E+02  0.10315532090E+03  0.90719110595E+02 0.  0.
         13    1    3    3    0    0  0.26357518063E+01  0.34670267135E+02 -0.33449067480E+01  0.34930831824E+02  0.00000000000E+00 0.  1.
        -13    1    3    3    0    0 -0.33391270713E+02 -0.43497132818E+02  0.40590681030E+02  0.68224489076E+02  0.00000000000E+00 0. -1.
         22    1    1    2    0    0  0.30755518906E+02  0.88268656828E+01 -0.41337366748E+02  0.52274213439E+02  0.00000000000E+00 0.  1.
<mgrwt>
<rscale>  0 0.73054550E+02</rscale>
<asrwt>0</asrwt>
<pdfrwt beam="1">  1        2 0.11641380E-01 0.96196531E+02</pdfrwt>
<pdfrwt beam="2">  1       -2 0.12270856E-01 0.96196531E+02</pdfrwt>
<totfact> 0.22468507E+04</totfact>
</mgrwt>
</event>
<event>
 6    1  0.2866116E-002  0.9365938E+02  0.7546771E-02  0.1372379E+00
         -2   -1    0    0    0  501 -0.00000000000E+00  0.00000000000E+00  0.49635359004E+02  0.49635359004E+02  0.00000000000E+00 0.  1.
          2   -1    0    0  501    0  0.00000000000E+00 -0.00000000000E+00 -0.69918330340E+02  0.69918330340E+02  0.00000000000E+00 0. -1.
         23    2    1    2    0    0 -0.12503282683E+02  0.20271747647E+02 -0.12461436135E+02  0.94484739556E+02  0.90580366460E+02 0.  0.
         13    1    3    3    0    0 -0.18401645400E+02  0.54644047894E+02 -0.64609840538E+00  0.57662899397E+02  0.00000000000E+00 0. -1.
        -13    1    3    3    0    0  0.58983627167E+01 -0.34372300248E+02 -0.11815337729E+02  0.36821840159E+02  0.00000000000E+00 0.  1.
         22    1    1    2    0    0  0.12503282683E+02 -0.20271747647E+02 -0.78215352012E+01  0.25068949787E+02  0.00000000000E+00 0.  1.
<mgrwt>
<rscale>  0 0.66510120E+02</rscale>
<asrwt>0</asrwt>
<pdfrwt beam="1">  1        2 0.10756666E-01 0.93659375E+02</pdfrwt>
<pdfrwt beam="2">  1       -2 0.76362091E-02 0.93659375E+02</pdfrwt>
<totfact> 0.51440167E+04</totfact>
</mgrwt>
</event>
<event>
 6    1  0.2866116E-002  0.9227617E+02  0.7546771E-02  0.1374435E+00
         -2   -1    0    0    0  501 -0.00000000000E+00  0.00000000000E+00  0.27744573751E+02  0.27744573751E+02  0.00000000000E+00 0.  1.
          2   -1    0    0  501    0  0.00000000000E+00 -0.00000000000E+00 -0.12584694076E+03  0.12584694076E+03  0.00000000000E+00 0. -1.
         23    2    1    2    0    0 -0.10273681526E+01  0.24053741146E+02 -0.87906630517E+02  0.12744594144E+03  0.89080044637E+02 0.  0.
         11    1    3    3    0    0 -0.37095490121E+02  0.31624427675E+02 -0.25609296603E+02  0.55063743840E+02  0.00000000000E+00 0.  1.
        -11    1    3    3    0    0  0.36068121969E+02 -0.75706865288E+01 -0.62297333914E+02  0.72382197601E+02  0.00000000000E+00 0. -1.
         22    1    1    2    0    0  0.10273681526E+01 -0.24053741146E+02 -0.10195736488E+02  0.26145573067E+02  0.00000000000E+00 0. -1.
<mgrwt>
<rscale>  0 0.65949542E+02</rscale>
<asrwt>0</asrwt>
<pdfrwt beam="1">  1        2 0.19361067E-01 0.92276174E+02</pdfrwt>
<pdfrwt beam="2">  1       -2 0.42683961E-02 0.92276174E+02</pdfrwt>
<totfact> 0.61950966E+04</totfact>
</mgrwt>
</event>
<event>
 6    1  0.2866116E-002  0.1381134E+03  0.7546771E-02  0.1230471E+00
          2   -1    0    0  501    0  0.00000000000E+00  0.00000000000E+00  0.47359565591E+02  0.47359565591E+02  0.00000000000E+00 0. -1.
         -2   -1    0    0    0  501 -0.00000000000E+00 -0.00000000000E+00 -0.35731061098E+03  0.35731061098E+03  0.00000000000E+00 0.  1.
         23    2    1    2    0    0 -0.86430494001E+02  0.53890834822E+02 -0.25230532473E+03  0.28763393654E+03  0.93278358646E+02 0.  0.
         13    1    3    3    0    0 -0.10647279119E+03  0.48828320117E+02 -0.22091861163E+03  0.25005138087E+03  0.00000000000E+00 0.  1.
        -13    1    3    3    0    0  0.20042297188E+02  0.50625147055E+01 -0.31386713094E+02  0.37582555669E+02  0.00000000000E+00 0. -1.
         22    1    1    2    0    0  0.86430494001E+02 -0.53890834822E+02 -0.57645720665E+02  0.11703624004E+03  0.00000000000E+00 0. -1.
<mgrwt>
<rscale>  0 0.12798894E+03</rscale>
<asrwt>0</asrwt>
<pdfrwt beam="1">  1        2 0.72860870E-02 0.13811338E+03</pdfrwt>
<pdfrwt beam="2">  1       -2 0.54970863E-01 0.13811338E+03</pdfrwt>
<totfact> 0.29158879E+03</totfact>
</mgrwt>
</event>
<event>
 6    1  0.2866116E-002  0.9660861E+02  0.7546771E-02  0.1402456E+00
          2   -1    0    0  501    0  0.00000000000E+00  0.00000000000E+00  0.67012402421E+02  0.67012402421E+02  0.00000000000E+00 0.  1.
         -2   -1    0    0    0  501 -0.00000000000E+00 -0.00000000000E+00 -0.56589596828E+02  0.56589596828E+02  0.00000000000E+00 0. -1.
         23    2    1    2    0    0 -0.45455108774E+01  0.12561521748E+02  0.28866167877E+02  0.10082896454E+03  0.95680567220E+02 0.  0.
         13    1    3    3    0    0 -0.68666983551E+01 -0.32595393527E+02 -0.16154626263E+02  0.37021388078E+02  0.00000000000E+00 0. -1.
        -13    1    3    3    0    0  0.23211874777E+01  0.45156915275E+02  0.45020794140E+02  0.63807576458E+02  0.00000000000E+00 0.  1.
         22    1    1    2    0    0  0.45455108774E+01 -0.12561521748E+02 -0.18443362283E+02  0.22773034714E+02  0.00000000000E+00 0.  1.
<mgrwt>
<rscale>  0 0.58911831E+02</rscale>
<asrwt>0</asrwt>
<pdfrwt beam="1">  1        2 0.10309600E-01 0.96608615E+02</pdfrwt>
<pdfrwt beam="2">  1       -2 0.87060919E-02 0.96608615E+02</pdfrwt>
<totfact> 0.44474346E+04</totfact>
</mgrwt>
</event>
<event>
 6    1  0.2866116E-002  0.1007515E+03  0.7546771E-02  0.1327319E+00
          4   -1    0    0  501    0  0.00000000000E+00  0.00000000000E+00  0.17535307953E+02  0.17535307953E+02  0.00000000000E+00 0. -1.
         -4   -1    0    0    0  501 -0.00000000000E+00 -0.00000000000E+00 -0.33369140611E+03  0.33369140611E+03  0.00000000000E+00 0.  1.
         23    2    1    2    0    0 -0.18973375626E+02 -0.36676480152E+02 -0.15502147055E+03  0.18488513359E+03  0.91900506602E+02 0.  0.
         11    1    3    3    0    0 -0.94936142497E+01 -0.46084020411E+02 -0.23329923867E+02  0.52518101607E+02  0.00000000000E+00 0. -1.
        -11    1    3    3    0    0 -0.94797613759E+01  0.94075402591E+01 -0.13169154668E+03  0.13236703199E+03  0.00000000000E+00 0.  1.
         22    1    1    2    0    0  0.18973375626E+02  0.36676480152E+02 -0.16113462761E+03  0.16634158047E+03  0.00000000000E+00 0.  1.
<mgrwt>
<rscale>  0 0.80613714E+02</rscale>
<asrwt>0</asrwt>
<pdfrwt beam="1">  1        4 0.26977401E-02 0.10075146E+03</pdfrwt>
<pdfrwt beam="2">  1       -4 0.51337131E-01 0.10075146E+03</pdfrwt>
<totfact> 0.35624507E+03</totfact>
</mgrwt>
</event>
<event>
 6    1  0.2866116E-002  0.9187924E+02  0.7546771E-02  0.1387765E+00
         -2   -1    0    0    0  501 -0.00000000000E+00  0.00000000000E+00  0.28118832127E+02  0.28118832127E+02  0.00000000000E+00 0.  1.
          2   -1    0    0  501    0  0.00000000000E+00 -0.00000000000E+00 -0.11065422749E+03  0.11065422749E+03  0.00000000000E+00 0. -1.
         23    2    1    2    0    0 -0.19005053414E+02 -0.49140699085E+01 -0.69591155649E+02  0.11525937254E+03  0.89757751056E+02 0.  0.
         11    1    3    3    0    0  0.42633718987E+01  0.39939853447E+02 -0.21764572106E+02  0.45684404694E+02  0.00000000000E+00 0. -1.
        -11    1    3    3    0    0 -0.23268425313E+02 -0.44853923355E+02 -0.47826583543E+02  0.69574967843E+02  0.00000000000E+00 0.  1.
         22    1    1    2    0    0  0.19005053414E+02  0.49140699085E+01 -0.12944239714E+02  0.23513687080E+02  0.00000000000E+00 0. -1.
<mgrwt>
<rscale>  0 0.62465981E+02</rscale>
<asrwt>0</asrwt>
<pdfrwt beam="1">  1        2 0.17023728E-01 0.91879236E+02</pdfrwt>
<pdfrwt beam="2">  1       -2 0.43259741E-02 0.91879236E+02</pdfrwt>
<totfact> 0.70204839E+04</totfact>
</mgrwt>
</event>
<event>
 6    1  0.2866116E-002  0.9969807E+02  0.7546771E-02  0.1331998E+00
          2   -1    0    0  501    0  0.00000000000E+00  0.00000000000E+00  0.32655620890E+02  0.32655620890E+02  0.00000000000E+00 0. -1.
         -2   -1    0    0    0  501 -0.00000000000E+00 -0.00000000000E+00 -0.17219860318E+03  0.17219860318E+03  0.00000000000E+00 0.  1.
         23    2    1    2    0    0 -0.30227962178E+02  0.25032005423E+02 -0.60539736170E+02  0.11663946402E+03  0.91648098281E+02 0.  0.
         13    1    3    3    0    0 -0.79160255303E+00  0.46049515306E+02  0.71628664512E-01  0.46056374425E+02  0.00000000000E+00 0. -1.
        -13    1    3    3    0    0 -0.29436359625E+02 -0.21017509883E+02 -0.60611364835E+02  0.70583089595E+02  0.00000000000E+00 0.  1.
         22    1    1    2    0    0  0.30227962178E+02 -0.25032005423E+02 -0.79003246119E+02  0.88214760048E+02  0.00000000000E+00 0.  1.
<mgrwt>
<rscale>  0 0.78970851E+02</rscale>
<asrwt>0</asrwt>
<pdfrwt beam="1">  1        2 0.50239417E-02 0.99698069E+02</pdfrwt>
<pdfrwt beam="2">  1       -2 0.26492093E-01 0.99698069E+02</pdfrwt>
<totfact> 0.17919784E+04</totfact>
</mgrwt>
</event>
<event>
 6    1  0.2866116E-002  0.8798728E+02  0.7546771E-02  0.1436867E+00
          2   -1    0    0  501    0  0.00000000000E+00  0.00000000000E+00  0.33725200690E+03  0.33725200690E+03  0.00000000000E+00 0. -1.
         -2   -1    0    0    0  501 -0.00000000000E+00 -0.00000000000E+00 -0.86722117406E+01  0.86722117406E+01  0.00000000000E+00 0.  1.
         23    2    1    2    0    0  0.10411674301E+02 -0.10107428246E+00  0.32152581228E+03  0.33334757949E+03  0.87369031213E+02 0.  0.
         13    1    3    3    0    0  0.18223415859E+02  0.70357866434E+01  0.32215609066E+03  0.32274779926E+03  0.00000000000E+00 0. -1.
        -13    1    3    3    0    0 -0.78117415582E+01 -0.71368609259E+01 -0.63027838446E+00  0.10599780228E+02  0.00000000000E+00 0.  1.
         22    1    1    2    0    0 -0.10411674301E+02  0.10107428246E+00  0.70539828813E+01  0.12576639148E+02  0.00000000000E+00 0. -1.
<mgrwt>
<rscale>  0 0.51605996E+02</rscale>
<asrwt>0</asrwt>
<pdfrwt beam="1">  1        2 0.51884914E-01 0.87987276E+02</pdfrwt>
<pdfrwt beam="2">  1       -2 0.13341867E-02 0.87987276E+02</pdfrwt>
<totfact> 0.11492372E+05</totfact>
</mgrwt>
</event>
<event>
 6    1  0.2866116E-002  0.9471170E+02  0.7546771E-02  0.1404716E+00
          1   -1    0    0  501    0  0.00000000000E+00  0.00000000000E+00  0.69718399790E+03  0.69718399790E+03  0.00000000000E+00 0. -1.
         -1   -1    0    0    0  501 -0.00000000000E+00 -0.00000000000E+00 -0.49013118751E+01  0.49013118751E+01  0.00000000000E+00 0.  1.
         23    2    1    2    0    0  0.41341124864E+01 -0.13041999281E+02  0.66339186194E+03  0.67011869676E+03  0.93718304666E+02 0.  0.
         13    1    3    3    0    0  0.48655289269E+02 -0.49266468417E+01  0.30827913862E+03  0.31213400381E+03  0.00000000000E+00 0.  1.
        -13    1    3    3    0    0 -0.44521176783E+02 -0.81153524394E+01  0.35511272332E+03  0.35798469295E+03  0.00000000000E+00 0. -1.
         22    1    1    2    0    0 -0.41341124864E+01  0.13041999281E+02  0.28890824090E+02  0.31966613019E+02  0.00000000000E+00 0.  1.
<mgrwt>
<rscale>  0 0.58389732E+02</rscale>
<asrwt>0</asrwt>
<pdfrwt beam="1">  1        1 0.10725900E+00 0.94711695E+02</pdfrwt>
<pdfrwt beam="2">  1       -1 0.75404854E-03 0.94711695E+02</pdfrwt>
<totfact> 0.71174546E+04</totfact>
</mgrwt>
</event>
<event>
 6    1  0.2866116E-002  0.9420731E+02  0.7546771E-02  0.1373621E+00
         -2   -1    0    0    0  501 -0.00000000000E+00  0.00000000000E+00  0.29071766650E+01  0.29071766650E+01  0.00000000000E+00 0.  1.
          2   -1    0    0  501    0  0.00000000000E+00 -0.00000000000E+00 -0.14235238805E+04  0.14235238805E+04  0.00000000000E+00 0. -1.
         23    2    1    2    0    0 -0.22683130036E+02 -0.33583636565E+01 -0.13141815463E+04  0.13175538523E+04  0.91374032951E+02 0.  0.
         11    1    3    3    0    0 -0.58320643831E+02 -0.36846519446E+01 -0.78213793287E+03  0.78431793311E+03  0.00000000000E+00 0.  1.
        -11    1    3    3    0    0  0.35637513795E+02  0.32628828807E+00 -0.53204361348E+03  0.53323591917E+03  0.00000000000E+00 0. -1.
         22    1    1    2    0    0  0.22683130036E+02  0.33583636565E+01 -0.10643515750E+03  0.10887720490E+03  0.00000000000E+00 0. -1.
<mgrwt>
<rscale>  0 0.66170791E+02</rscale>
<asrwt>0</asrwt>
<pdfrwt beam="1">  1        2 0.21900383E+00 0.94207308E+02</pdfrwt>
<pdfrwt beam="2">  1       -2 0.44725763E-03 0.94207308E+02</pdfrwt>
<totfact> 0.92340658E+04</totfact>
</mgrwt>
</event>
<event>
 6    1  0.2866116E-002  0.9834750E+02  0.7546771E-02  0.1414111E+00
          2   -1    0    0  501    0  0.00000000000E+00  0.00000000000E+00  0.10248134087E+04  0.10248134087E+04  0.00000000000E+00 0. -1.
         -2   -1    0    0    0  501 -0.00000000000E+00 -0.00000000000E+00 -0.30619511977E+01  0.30619511977E+01  0.00000000000E+00 0.  1.
         23    2    1    2    0    0 -0.34164475970E+00 -0.10546299893E+02  0.97501792878E+03  0.97996540405E+03  0.97779806341E+02 0.  0.
         11    1    3    3    0    0  0.39697132682E+02 -0.10352782243E+02  0.21411799855E+03  0.21801275134E+03  0.00000000000E+00 0.  1.
        -11    1    3    3    0    0 -0.40038777442E+02 -0.19351765031E+00  0.76089993023E+03  0.76195265271E+03  0.00000000000E+00 0. -1.
         22    1    1    2    0    0  0.34164475970E+00  0.10546299893E+02  0.46733528726E+02  0.47909955852E+02  0.00000000000E+00 0.  1.
<mgrwt>
<rscale>  0 0.56286530E+02</rscale>
<asrwt>0</asrwt>
<pdfrwt beam="1">  1        2 0.15766333E+00 0.98347505E+02</pdfrwt>
<pdfrwt beam="2">  1       -2 0.47107023E-03 0.98347505E+02</pdfrwt>
<totfact> 0.14219753E+05</totfact>
</mgrwt>
</event>
<event>
 6    1  0.2866116E-002  0.9273278E+02  0.7546771E-02  0.1408702E+00
          3   -1    0    0  501    0  0.00000000000E+00  0.00000000000E+00  0.70948585612E+03  0.70948585612E+03  0.00000000000E+00 0. -1.
         -3   -1    0    0    0  501 -0.00000000000E+00 -0.00000000000E+00 -0.45384535588E+01  0.45384535588E+01  0.00000000000E+00 0.  1.
         23    2    1    2    0    0  0.67115661612E+01 -0.11935462859E+02  0.67164751135E+03  0.67801898856E+03  0.91716241504E+02 0.  0.
         13    1    3    3    0    0 -0.38305409807E+02 -0.25123650126E+02  0.33780557701E+03  0.34089750670E+03  0.00000000000E+00 0. -1.
        -13    1    3    3    0    0  0.45016975969E+02  0.13188187268E+02  0.33384193434E+03  0.33712148186E+03  0.00000000000E+00 0.  1.
         22    1    1    2    0    0 -0.67115661612E+01  0.11935462859E+02  0.33299891216E+02  0.36005321121E+02  0.00000000000E+00 0.  1.
<mgrwt>
<rscale>  0 0.57484433E+02</rscale>
<asrwt>0</asrwt>
<pdfrwt beam="1">  1        3 0.10915158E+00 0.92732785E+02</pdfrwt>
<pdfrwt beam="2">  1       -3 0.69822419E-03 0.92732785E+02</pdfrwt>
<totfact> 0.72611447E+03</totfact>
</mgrwt>
</event>
<event>
 6    1  0.2866116E-002  0.1002775E+03  0.7546771E-02  0.1331317E+00
          1   -1    0    0  501    0  0.00000000000E+00  0.00000000000E+00  0.73790838095E+03  0.73790838095E+03  0.00000000000E+00 0. -1.
         -1   -1    0    0    0  501 -0.00000000000E+00 -0.00000000000E+00 -0.77250599310E+01  0.77250599310E+01  0.00000000000E+00 0.  1.
         23    2    1    2    0    0 -0.21817320320E+02 -0.32367178055E+02  0.63317625749E+03  0.64106767184E+03  0.92368593930E+02 0.  0.
         13    1    3    3    0    0 -0.57305464752E+02 -0.11466829302E+02  0.40662762397E+03  0.41080582888E+03  0.00000000000E+00 0. -1.
        -13    1    3    3    0    0  0.35488144432E+02 -0.20900348752E+02  0.22654863353E+03  0.23026184296E+03  0.00000000000E+00 0.  1.
         22    1    1    2    0    0  0.21817320320E+02  0.32367178055E+02  0.97007063526E+02  0.10456576904E+03  0.00000000000E+00 0.  1.
<mgrwt>
<rscale>  0 0.79206844E+02</rscale>
<asrwt>0</asrwt>
<pdfrwt beam="1">  1        1 0.11352431E+00 0.10027755E+03</pdfrwt>
<pdfrwt beam="2">  1       -1 0.11884713E-02 0.10027755E+03</pdfrwt>
<totfact> 0.34762539E+04</totfact>
</mgrwt>
</event>
<event>
 6    1  0.2866116E-002  0.9226374E+02  0.7546771E-02  0.1423828E+00
          2   -1    0    0  501    0  0.00000000000E+00  0.00000000000E+00  0.13348289120E+04  0.13348289120E+04  0.00000000000E+00 0. -1.
         -2   -1    0    0    0  501 -0.00000000000E+00 -0.00000000000E+00 -0.64348745255E+01  0.64348745255E+01  0.00000000000E+00 0.  1.
         23    2    1    2    0    0 -0.10724085736E+02  0.24622305700E+01  0.13269645185E+04  0.13301681965E+04  0.91605289189E+02 0.  0.
         11    1    3    3    0    0 -0.33763705978E+02  0.61732451479E+00  0.12308667054E+04  0.12313298564E+04  0.00000000000E+00 0. -1.
        -11    1    3    3    0    0  0.23039620243E+02  0.18449060553E+01  0.96097813136E+02  0.98838340076E+02  0.00000000000E+00 0.  1.
         22    1    1    2    0    0  0.10724085736E+02 -0.24622305700E+01  0.14295190035E+01  0.11095590062E+02  0.00000000000E+00 0.  1.
<mgrwt>
<rscale>  0 0.54219090E+02</rscale>
<asrwt>0</asrwt>
<pdfrwt beam="1">  1        2 0.20535807E+00 0.92263739E+02</pdfrwt>
<pdfrwt beam="2">  1       -2 0.98998176E-03 0.92263739E+02</pdfrwt>
<totfact> 0.33489423E+04</totfact>
</mgrwt>
</event>
<event>
 6    1  0.2866116E-002  0.9739238E+02  0.7546771E-02  0.1352922E+00
         -2   -1    0    0    0  501 -0.00000000000E+00  0.00000000000E+00  0.10903409222E+03  0.10903409222E+03  0.00000000000E+00 0.  1.
          2   -1    0    0  501    0  0.00000000000E+00 -0.00000000000E+00 -0.38108108754E+02  0.38108108754E+02  0.00000000000E+00 0. -1.
         23    2    1    2    0    0  0.17964096059E+01  0.29283055811E+02  0.65332089329E+02  0.11727556245E+03  0.92868461857E+02 0.  0.
         13    1    3    3    0    0 -0.37347743257E+02  0.19382064185E+01  0.13269322882E+01  0.37421535508E+02  0.00000000000E+00 0. -1.
        -13    1    3    3    0    0  0.39144152863E+02  0.27344849393E+02  0.64005157041E+02  0.79854026946E+02  0.00000000000E+00 0.  1.
         22    1    1    2    0    0 -0.17964096059E+01 -0.29283055811E+02  0.55938941414E+01  0.29866638525E+02  0.00000000000E+00 0. -1.
<mgrwt>
<rscale>  0 0.72152561E+02</rscale>
<asrwt>0</asrwt>
<pdfrwt beam="1">  1        2 0.58627860E-02 0.97392380E+02</pdfrwt>
<pdfrwt beam="2">  1       -2 0.16774476E-01 0.97392380E+02</pdfrwt>
<totfact> 0.31758848E+04</totfact>
</mgrwt>
</event>
<event>
 6    1  0.2866116E-002  0.9672060E+02  0.7546771E-02  0.1354506E+00
         -2   -1    0    0    0  501 -0.00000000000E+00  0.00000000000E+00  0.49368103057E+01  0.49368103057E+01  0.00000000000E+00 0.  1.
          2   -1    0    0  501    0  0.00000000000E+00 -0.00000000000E+00 -0.10567450964E+04  0.10567450964E+04  0.00000000000E+00 0. -1.
         23    2    1    2    0    0  0.14142638405E+02 -0.25500450603E+02 -0.97041138431E+03  0.97521952863E+03  0.92220317832E+02 0.  0.
         13    1    3    3    0    0  0.62211643589E+01  0.20445364344E+02 -0.61393305232E+02  0.65006566871E+02  0.00000000000E+00 0.  1.
        -13    1    3    3    0    0  0.79214740465E+01 -0.45945814947E+02 -0.90901807907E+03  0.91021296175E+03  0.00000000000E+00 0. -1.
         22    1    1    2    0    0 -0.14142638405E+02  0.25500450603E+02 -0.81396901747E+02  0.86462378038E+02  0.00000000000E+00 0.  1.
<mgrwt>
<rscale>  0 0.71669593E+02</rscale>
<asrwt>0</asrwt>
<pdfrwt beam="1">  1        2 0.16257615E+00 0.96720599E+02</pdfrwt>
<pdfrwt beam="2">  1       -2 0.75950938E-03 0.96720599E+02</pdfrwt>
<totfact> 0.69439002E+04</totfact>
</mgrwt>
</event>
<event>
 6    1  0.2866116E-002  0.1082041E+03  0.7546771E-02  0.1383773E+00
         -2   -1    0    0    0  501 -0.00000000000E+00  0.00000000000E+00  0.20356900786E+01  0.20356900786E+01  0.00000000000E+00 0.  1.
          2   -1    0    0  501    0  0.00000000000E+00 -0.00000000000E+00 -0.23003533760E+04  0.23003533760E+04  0.00000000000E+00 0. -1.
         23    2    1    2    0    0  0.41574842014E+01 -0.12126961742E+02 -0.22428742766E+04  0.22454828317E+04  0.10744197906E+03 0.  0.
         13    1    3    3    0    0  0.48015354653E+02  0.20654491585E+02 -0.93067148750E+03  0.93213813352E+03  0.00000000000E+00 0. -1.
        -13    1    3    3    0    0 -0.43857870451E+02 -0.32781453327E+02 -0.13122027891E+04  0.13133446982E+04  0.00000000000E+00 0.  1.
         22    1    1    2    0    0 -0.41574842014E+01  0.12126961742E+02 -0.55443409276E+02  0.56906234352E+02  0.00000000000E+00 0.  1.
<mgrwt>
<rscale>  0 0.63482393E+02</rscale>
<asrwt>0</asrwt>
<pdfrwt beam="1">  1        2 0.35389978E+00 0.10820410E+03</pdfrwt>
<pdfrwt beam="2">  1       -2 0.31318374E-03 0.10820410E+03</pdfrwt>
<totfact> 0.55229508E+04</totfact>
</mgrwt>
</event>
<event>
 6    1  0.2866116E-002  0.1001088E+03  0.7546771E-02  0.1400910E+00
          2   -1    0    0  501    0  0.00000000000E+00  0.00000000000E+00  0.13816710870E+04  0.13816710870E+04  0.00000000000E+00 0. -1.
         -2   -1    0    0    0  501 -0.00000000000E+00 -0.00000000000E+00 -0.26471660614E+01  0.26471660614E+01  0.00000000000E+00 0.  1.
         23    2    1    2    0    0 -0.25032344221E+01  0.12045351978E+02  0.13304339547E+04  0.13341949899E+04  0.99349920389E+02 0.  0.
         11    1    3    3    0    0  0.23326972095E+02  0.28662481784E+02  0.11839092850E+04  0.11844859140E+04  0.00000000000E+00 0. -1.
        -11    1    3    3    0    0 -0.25830206517E+02 -0.16617129806E+02  0.14652466967E+03  0.14970907586E+03  0.00000000000E+00 0.  1.
         22    1    1    2    0    0  0.25032344221E+01 -0.12045351978E+02  0.48589966303E+02  0.50123263183E+02  0.00000000000E+00 0. -1.
<mgrwt>
<rscale>  0 0.59272638E+02</rscale>
<asrwt>0</asrwt>
<pdfrwt beam="1">  1        2 0.21256421E+00 0.10010876E+03</pdfrwt>
<pdfrwt beam="2">  1       -2 0.40725742E-03 0.10010876E+03</pdfrwt>
<totfact> 0.11148802E+05</totfact>
</mgrwt>
</event>
<event>
 6    1  0.2866116E-002  0.8793696E+02  0.7546771E-02  0.1432623E+00
         -2   -1    0    0    0  501 -0.00000000000E+00  0.00000000000E+00  0.55258745753E+02  0.55258745753E+02  0.00000000000E+00 0.  1.
          2   -1    0    0  501    0  0.00000000000E+00 -0.00000000000E+00 -0.11042482906E+03  0.11042482906E+03  0.00000000000E+00 0. -1.
         23    2    1    2    0    0 -0.67506117873E+01  0.88343658008E+01 -0.91964958240E+02  0.12724174896E+03  0.87231257911E+02 0.  0.
         11    1    3    3    0    0 -0.21976470216E+01  0.33915520965E+01 -0.10885064069E+03  0.10892563636E+03  0.00000000000E+00 0. -1.
        -11    1    3    3    0    0 -0.45529647657E+01  0.54428137042E+01  0.16885682449E+02  0.18316112604E+02  0.00000000000E+00 0.  1.
         22    1    1    2    0    0  0.67506117873E+01 -0.88343658008E+01  0.36798874931E+02  0.38441825851E+02  0.00000000000E+00 0. -1.
<mgrwt>
<rscale>  0 0.52437052E+02</rscale>
<asrwt>0</asrwt>
<pdfrwt beam="1">  1        2 0.16988435E-01 0.87936961E+02</pdfrwt>
<pdfrwt beam="2">  1       -2 0.85013455E-02 0.87936961E+02</pdfrwt>
<totfact> 0.25358141E+04</totfact>
</mgrwt>
</event>
<event>
 6    1  0.2866116E-002  0.9529194E+02  0.7546771E-02  0.1367923E+00
          2   -1    0    0  501    0  0.00000000000E+00  0.00000000000E+00  0.37046876914E+02  0.37046876914E+02  0.00000000000E+00 0. -1.
         -2   -1    0    0    0  501 -0.00000000000E+00 -0.00000000000E+00 -0.99219377636E+02  0.99219377636E+02  0.00000000000E+00 0.  1.
         23    2    1    2    0    0  0.20041904969E+02 -0.13821224488E+02 -0.40033534629E+02  0.10335975032E+03  0.92129527784E+02 0.  0.
         13    1    3    3    0    0 -0.12024060808E+02  0.10857323705E+02  0.23194929109E+02  0.28292476963E+02  0.00000000000E+00 0. -1.
        -13    1    3    3    0    0  0.32065965778E+02 -0.24678548193E+02 -0.63228463739E+02  0.75067273355E+02  0.00000000000E+00 0.  1.
         22    1    1    2    0    0 -0.20041904969E+02  0.13821224488E+02 -0.22138966092E+02  0.32906504232E+02  0.00000000000E+00 0. -1.
<mgrwt>
<rscale>  0 0.67748063E+02</rscale>
<asrwt>0</asrwt>
<pdfrwt beam="1">  1        2 0.56995196E-02 0.95291941E+02</pdfrwt>
<pdfrwt beam="2">  1       -2 0.15264519E-01 0.95291941E+02</pdfrwt>
<totfact> 0.38296952E+04</totfact>
</mgrwt>
</event>
<event>
 6    1  0.2866116E-002  0.9271811E+02  0.7546771E-02  0.1402523E+00
         -2   -1    0    0    0  501 -0.00000000000E+00  0.00000000000E+00  0.34397937014E+02  0.34397937014E+02  0.00000000000E+00 0.  1.
          2   -1    0    0  501    0  0.00000000000E+00 -0.00000000000E+00 -0.92984503794E+02  0.92984503794E+02  0.00000000000E+00 0. -1.
         23    2    1    2    0    0  0.14753484074E+02  0.31963673185E+01 -0.62464520884E+02  0.11179653100E+03  0.91480959325E+02 0.  0.
         13    1    3    3    0    0 -0.20471995242E+02  0.33728380828E+02 -0.82715219451E+01  0.40312830932E+02  0.00000000000E+00 0.  1.
        -13    1    3    3    0    0  0.35225479316E+02 -0.30532013510E+02 -0.54192998939E+02  0.71483700072E+02  0.00000000000E+00 0. -1.
         22    1    1    2    0    0 -0.14753484074E+02 -0.31963673185E+01  0.38779541039E+01  0.15585909803E+02  0.00000000000E+00 0. -1.
<mgrwt>
<rscale>  0 0.58896189E+02</rscale>
<asrwt>0</asrwt>
<pdfrwt beam="1">  1        2 0.14305308E-01 0.92718110E+02</pdfrwt>
<pdfrwt beam="2">  1       -2 0.52919903E-02 0.92718110E+02</pdfrwt>
<totfact> 0.63695228E+04</totfact>
</mgrwt>
</event>
<event>
 6    1  0.2866116E-002  0.9422070E+02  0.7546771E-02  0.1414259E+00
          2   -1    0    0  501    0  0.00000000000E+00  0.00000000000E+00  0.76436887652E+03  0.76436887652E+03  0.00000000000E+00 0. -1.
         -2   -1    0    0    0  501 -0.00000000000E+00 -0.00000000000E+00 -0.82161850103E+01  0.82161850103E+01  0.00000000000E+00 0.  1.
         23    2    1    2    0    0 -0.10375579163E+02 -0.59738959778E+01  0.75466095162E+03  0.76052001432E+03  0.93456943105E+02 0.  0.
         13    1    3    3    0    0  0.36036623360E+02 -0.25045614775E+02  0.37409876452E+03  0.37666405012E+03  0.00000000000E+00 0. -1.
        -13    1    3    3    0    0 -0.46412202523E+02  0.19071718797E+02  0.38056218710E+03  0.38385596420E+03  0.00000000000E+00 0.  1.
         22    1    1    2    0    0  0.10375579163E+02  0.59738959778E+01  0.14917398886E+01  0.12065047203E+02  0.00000000000E+00 0.  1.
<mgrwt>
<rscale>  0 0.56254297E+02</rscale>
<asrwt>0</asrwt>
<pdfrwt beam="1">  1        2 0.11759516E+00 0.94220700E+02</pdfrwt>
<pdfrwt beam="2">  1       -2 0.12640291E-02 0.94220700E+02</pdfrwt>
<totfact> 0.51075689E+04</totfact>
</mgrwt>
</event>
<event>
 6    1  0.2866116E-002  0.8862414E+02  0.7546771E-02  0.1410464E+00
         -2   -1    0    0    0  501 -0.00000000000E+00  0.00000000000E+00  0.99980175318E+01  0.99980175318E+01  0.00000000000E+00 0. -1.
          2   -1    0    0  501    0  0.00000000000E+00 -0.00000000000E+00 -0.39701801178E+03  0.39701801178E+03  0.00000000000E+00 0.  1.
         23    2    1    2    0    0 -0.14821818849E+02 -0.36364128872E+01 -0.38003559814E+03  0.39023235863E+03  0.87300217956E+02 0.  0.
         11    1    3    3    0    0  0.58006692107E+01  0.97259560050E+01 -0.21229898140E+01  0.11521678231E+02  0.00000000000E+00 0. -1.
        -11    1    3    3    0    0 -0.20622488060E+02 -0.13362368892E+02 -0.37791260832E+03  0.37871068040E+03  0.00000000000E+00 0.  1.
         22    1    1    2    0    0  0.14821818849E+02  0.36364128872E+01 -0.69843961133E+01  0.16783670688E+02  0.00000000000E+00 0. -1.
<mgrwt>
<rscale>  0 0.57090322E+02</rscale>
<asrwt>0</asrwt>
<pdfrwt beam="1">  1        2 0.61079701E-01 0.88624138E+02</pdfrwt>
<pdfrwt beam="2">  1       -2 0.15381564E-02 0.88624138E+02</pdfrwt>
<totfact> 0.79190517E+04</totfact>
</mgrwt>
</event>
<event>
 6    1  0.2866116E-002  0.9177447E+02  0.7546771E-02  0.1389306E+00
          1   -1    0    0  501    0  0.00000000000E+00  0.00000000000E+00  0.69293934226E+02  0.69293934226E+02  0.00000000000E+00 0. -1.
         -1   -1    0    0    0  501 -0.00000000000E+00 -0.00000000000E+00 -0.86429866051E+02  0.86429866051E+02  0.00000000000E+00 0.  1.
         23    2    1    2    0    0 -0.18084233448E+02  0.64927300138E+01  0.36487521979E+02  0.98761796798E+02  0.89740504814E+02 0.  0.
         13    1    3    3    0    0 -0.45662896046E+02 -0.21836877219E+02  0.11231622817E+02  0.51846876792E+02  0.00000000000E+00 0.  1.
        -13    1    3    3    0    0  0.27578662598E+02  0.28329607233E+02  0.25255899162E+02  0.46914920006E+02  0.00000000000E+00 0. -1.
         22    1    1    2    0    0  0.18084233448E+02 -0.64927300138E+01 -0.53623453804E+02  0.56962003479E+02  0.00000000000E+00 0. -1.
<mgrwt>
<rscale>  0 0.62079526E+02</rscale>
<asrwt>0</asrwt>
<pdfrwt beam="1">  1        1 0.10660605E-01 0.91774469E+02</pdfrwt>
<pdfrwt beam="2">  1       -1 0.13296903E-01 0.91774469E+02</pdfrwt>
<totfact> 0.20296022E+04</totfact>
</mgrwt>
</event>
<event>
 6    1  0.2866116E-002  0.9448242E+02  0.7546771E-02  0.1370499E+00
         -2   -1    0    0    0  501 -0.00000000000E+00  0.00000000000E+00  0.41897232814E+02  0.41897232814E+02  0.00000000000E+00 0.  1.
          2   -1    0    0  501    0  0.00000000000E+00 -0.00000000000E+00 -0.94275097575E+02  0.94275097575E+02  0.00000000000E+00 0. -1.
         23    2    1    2    0    0  0.17304735951E+02  0.16532125505E+02 -0.58936675073E+02  0.11135735401E+03  0.91401113576E+02 0.  0.
         13    1    3    3    0    0 -0.33048508380E+02  0.26889221406E+02 -0.32256321166E+02  0.53438791053E+02  0.00000000000E+00 0.  1.
        -13    1    3    3    0    0  0.50353244331E+02 -0.10357095901E+02 -0.26680353907E+02  0.57918562955E+02  0.00000000000E+00 0. -1.
         22    1    1    2    0    0 -0.17304735951E+02 -0.16532125505E+02  0.65588103121E+01  0.24814976381E+02  0.00000000000E+00 0.  1.
<mgrwt>
<rscale>  0 0.67028629E+02</rscale>
<asrwt>0</asrwt>
<pdfrwt beam="1">  1        2 0.14503861E-01 0.94482425E+02</pdfrwt>
<pdfrwt beam="2">  1       -2 0.64457282E-02 0.94482425E+02</pdfrwt>
<totfact> 0.46757113E+04</totfact>
</mgrwt>
</event>
<event>
 6    1  0.2866116E-002  0.9932160E+02  0.7546771E-02  0.1327469E+00
         -2   -1    0    0    0  501 -0.00000000000E+00  0.00000000000E+00  0.26006492377E+02  0.26006492377E+02  0.00000000000E+00 0.  1.
          2   -1    0    0  501    0  0.00000000000E+00 -0.00000000000E+00 -0.20424001272E+03  0.20424001272E+03  0.00000000000E+00 0. -1.
         23    2    1    2    0    0  0.42465826998E+02 -0.66819396208E+01 -0.14571076315E+03  0.17634173244E+03  0.89536502738E+02 0.  0.
         11    1    3    3    0    0  0.45764047063E+02 -0.40157988361E+02 -0.11791150779E+03  0.13270318648E+03  0.00000000000E+00 0.  1.
        -11    1    3    3    0    0 -0.32982200646E+01  0.33476048740E+02 -0.27799255357E+02  0.43638545957E+02  0.00000000000E+00 0. -1.
         22    1    1    2    0    0 -0.42465826998E+02  0.66819396208E+01 -0.32522757195E+02  0.53904772658E+02  0.00000000000E+00 0.  1.
<mgrwt>
<rscale>  0 0.80560169E+02</rscale>
<asrwt>0</asrwt>
<pdfrwt beam="1">  1        2 0.31421542E-01 0.99321599E+02</pdfrwt>
<pdfrwt beam="2">  1       -2 0.40009987E-02 0.99321599E+02</pdfrwt>
<totfact> 0.40529507E+04</totfact>
</mgrwt>
</event>
<event>
 6    1  0.2866116E-002  0.9256595E+02  0.7546771E-02  0.1406575E+00
         -1   -1    0    0    0  501 -0.00000000000E+00  0.00000000000E+00  0.32102582981E+02  0.32102582981E+02  0.00000000000E+00 0.  1.
          1   -1    0    0  501    0  0.00000000000E+00 -0.00000000000E+00 -0.88890990730E+02  0.88890990730E+02  0.00000000000E+00 0. -1.
         23    2    1    2    0    0 -0.58861797094E+01  0.12959515646E+02 -0.50318886993E+02  0.10535864947E+03  0.91465066947E+02 0.  0.
         13    1    3    3    0    0  0.10947191293E+02  0.48010401116E+02 -0.11822226024E+02  0.50641925721E+02  0.00000000000E+00 0.  1.
        -13    1    3    3    0    0 -0.16833371002E+02 -0.35050885471E+02 -0.38496660969E+02  0.54716723744E+02  0.00000000000E+00 0. -1.
         22    1    1    2    0    0  0.58861797094E+01 -0.12959515646E+02 -0.64695207559E+01  0.15634924245E+02  0.00000000000E+00 0. -1.
<mgrwt>
<rscale>  0 0.57965200E+02</rscale>
<asrwt>0</asrwt>
<pdfrwt beam="1">  1        1 0.13675537E-01 0.92565947E+02</pdfrwt>
<pdfrwt beam="2">  1       -1 0.49388590E-02 0.92565947E+02</pdfrwt>
<totfact> 0.64734769E+04</totfact>
</mgrwt>
</event>
<event>
 6    1  0.2866116E-002  0.9331445E+02  0.7546771E-02  0.1375452E+00
         -2   -1    0    0    0  501 -0.00000000000E+00  0.00000000000E+00  0.17124132440E+02  0.17124132440E+02  0.00000000000E+00 0.  1.
          2   -1    0    0  501    0  0.00000000000E+00 -0.00000000000E+00 -0.20675821978E+03  0.20675821978E+03  0.00000000000E+00 0. -1.
         23    2    1    2    0    0 -0.96537285664E+01  0.20760177735E+02 -0.16905057012E+03  0.19309500683E+03  0.90462185200E+02 0.  0.
         11    1    3    3    0    0 -0.38947674462E+02  0.69579834434E-01 -0.14443978289E+03  0.14959872015E+03  0.00000000000E+00 0. -1.
        -11    1    3    3    0    0  0.29293945895E+02  0.20690597901E+02 -0.24610787227E+02  0.43496286687E+02  0.00000000000E+00 0.  1.
         22    1    1    2    0    0  0.96537285664E+01 -0.20760177735E+02 -0.20583517220E+02  0.30787345387E+02  0.00000000000E+00 0. -1.
<mgrwt>
<rscale>  0 0.65674484E+02</rscale>
<asrwt>0</asrwt>
<pdfrwt beam="1">  1        2 0.31808956E-01 0.93314449E+02</pdfrwt>
<pdfrwt beam="2">  1       -2 0.26344820E-02 0.93314449E+02</pdfrwt>
<totfact> 0.73045589E+04</totfact>
</mgrwt>
</event>
<event>
 6    1  0.2866116E-002  0.9330764E+02  0.7546771E-02  0.1371061E+00
          2   -1    0    0  501    0  0.00000000000E+00  0.00000000000E+00  0.17273026455E+03  0.17273026455E+03  0.00000000000E+00 0. -1.
         -2   -1    0    0    0  501 -0.00000000000E+00 -0.00000000000E+00 -0.96142843045E+02  0.96142843045E+02  0.00000000000E+00 0.  1.
         23    2    1    2    0    0  0.23753532446E+02  0.64666200810E+01  0.15817879260E+03  0.18364870195E+03  0.90001487895E+02 0.  0.
         11    1    3    3    0    0  0.10513654092E+02  0.38494978437E+02  0.27526413922E+02  0.48477868669E+02  0.00000000000E+00 0.  1.
        -11    1    3    3    0    0  0.13239878354E+02 -0.32028358356E+02  0.13065237867E+03  0.13517083329E+03  0.00000000000E+00 0. -1.
         22    1    1    2    0    0 -0.23753532446E+02 -0.64666200810E+01 -0.81591371095E+02  0.85224405637E+02  0.00000000000E+00 0.  1.
<mgrwt>
<rscale>  0 0.66873065E+02</rscale>
<asrwt>0</asrwt>
<pdfrwt beam="1">  1        2 0.26573887E-01 0.93307638E+02</pdfrwt>
<pdfrwt beam="2">  1       -2 0.14791207E-01 0.93307638E+02</pdfrwt>
<totfact> 0.65009423E+03</totfact>
</mgrwt>
</event>
<event>
 6    1  0.2866116E-002  0.9476741E+02  0.7546771E-02  0.1362416E+00
         -1   -1    0    0    0  501 -0.00000000000E+00  0.00000000000E+00  0.15087786316E+03  0.15087786316E+03  0.00000000000E+00 0.  1.
          1   -1    0    0  501    0  0.00000000000E+00 -0.00000000000E+00 -0.25151188141E+02  0.25151188141E+02  0.00000000000E+00 0. -1.
         23    2    1    2    0    0  0.22758704749E+02  0.14772143087E+02  0.86336376362E+02  0.12819840755E+03  0.90800258603E+02 0.  0.
         13    1    3    3    0    0 -0.74262977521E+00  0.85362476512E+01  0.99960448115E+02  0.10032701635E+03  0.00000000000E+00 0.  1.
        -13    1    3    3    0    0  0.23501334524E+02  0.62358954358E+01 -0.13624071753E+02  0.27871391200E+02  0.00000000000E+00 0. -1.
         22    1    1    2    0    0 -0.22758704749E+02 -0.14772143087E+02  0.39390298661E+02  0.47830643753E+02  0.00000000000E+00 0.  1.
<mgrwt>
<rscale>  0 0.69321329E+02</rscale>
<asrwt>0</asrwt>
<pdfrwt beam="1">  1        1 0.38694137E-02 0.94767409E+02</pdfrwt>
<pdfrwt beam="2">  1       -1 0.23211978E-01 0.94767409E+02</pdfrwt>
<totfact> 0.32899900E+04</totfact>
</mgrwt>
</event>
<event>
 6    1  0.2866116E-002  0.9984592E+02  0.7546771E-02  0.1361349E+00
         -2   -1    0    0    0  501 -0.00000000000E+00  0.00000000000E+00  0.15951016599E+02  0.15951016599E+02  0.00000000000E+00 0.  1.
          2   -1    0    0  501    0  0.00000000000E+00 -0.00000000000E+00 -0.26697407357E+03  0.26697407357E+03  0.00000000000E+00 0. -1.
         23    2    1    2    0    0  0.12376420346E+02  0.20115394723E+02 -0.23208784479E+03  0.25265386380E+03  0.97012382242E+02 0.  0.
         13    1    3    3    0    0  0.28732141224E+02 -0.30807756748E+02 -0.13956315526E+03  0.14578246850E+03  0.00000000000E+00 0. -1.
        -13    1    3    3    0    0 -0.16355720877E+02  0.50923151471E+02 -0.92524689527E+02  0.10687139530E+03  0.00000000000E+00 0.  1.
         22    1    1    2    0    0 -0.12376420346E+02 -0.20115394723E+02 -0.18935212178E+02  0.30271226366E+02  0.00000000000E+00 0. -1.
<mgrwt>
<rscale>  0 0.69631864E+02</rscale>
<asrwt>0</asrwt>
<pdfrwt beam="1">  1        2 0.41072932E-01 0.99845917E+02</pdfrwt>
<pdfrwt beam="2">  1       -2 0.24540027E-02 0.99845917E+02</pdfrwt>
<totfact> 0.62358511E+04</totfact>
</mgrwt>
</event>
<event>
 6    1  0.2866116E-002  0.9115301E+02  0.7546771E-02  0.1411518E+00
         -2   -1    0    0    0  501 -0.00000000000E+00  0.00000000000E+00  0.23221143682E+02  0.23221143682E+02  0.00000000000E+00 0.  1.
          2   -1    0    0  501    0  0.00000000000E+00 -0.00000000000E+00 -0.13589135800E+03  0.13589135800E+03  0.00000000000E+00 0. -1.
         23    2    1    2    0    0  0.72198111979E+01 -0.11757907232E+02 -0.11315930457E+03  0.14530622537E+03  0.90102701758E+02 0.  0.
         13    1    3    3    0    0  0.32070335395E+02 -0.40773509463E+02 -0.53964032167E+02  0.74853872672E+02  0.00000000000E+00 0. -1.
        -13    1    3    3    0    0 -0.24850524197E+02  0.29015602231E+02 -0.59195272404E+02  0.70452352698E+02  0.00000000000E+00 0.  1.
         22    1    1    2    0    0 -0.72198111979E+01  0.11757907232E+02  0.48909025747E+00  0.13806276308E+02  0.00000000000E+00 0.  1.
<mgrwt>
<rscale>  0 0.56856383E+02</rscale>
<asrwt>0</asrwt>
<pdfrwt beam="1">  1        2 0.20906363E-01 0.91153008E+02</pdfrwt>
<pdfrwt beam="2">  1       -2 0.35724837E-02 0.91153008E+02</pdfrwt>
<totfact> 0.73727318E+04</totfact>
</mgrwt>
</event>
<event>
 6    1  0.2866116E-002  0.9253157E+02  0.7546771E-02  0.1412035E+00
         -2   -1    0    0    0  501 -0.00000000000E+00  0.00000000000E+00  0.59120317287E+01  0.59120317287E+01  0.00000000000E+00 0.  1.
          2   -1    0    0  501    0  0.00000000000E+00 -0.00000000000E+00 -0.10430079885E+04  0.10430079885E+04  0.00000000000E+00 0. -1.
         23    2    1    2    0    0 -0.20565900457E+01  0.12921807584E+02 -0.10297805405E+04  0.10339294236E+04  0.91601793708E+02 0.  0.
         13    1    3    3    0    0  0.18011742487E+02 -0.31352168431E+02 -0.65681245650E+03  0.65780695066E+03  0.00000000000E+00 0. -1.
        -13    1    3    3    0    0 -0.20068332532E+02  0.44273976015E+02 -0.37296808404E+03  0.37612247292E+03  0.00000000000E+00 0.  1.
         22    1    1    2    0    0  0.20565900457E+01 -0.12921807584E+02 -0.73154162848E+01  0.14990596695E+02  0.00000000000E+00 0.  1.
<mgrwt>
<rscale>  0 0.56742212E+02</rscale>
<asrwt>0</asrwt>
<pdfrwt beam="1">  1        2 0.16046274E+00 0.92531569E+02</pdfrwt>
<pdfrwt beam="2">  1       -2 0.90954347E-03 0.92531569E+02</pdfrwt>
<totfact> 0.54539809E+04</totfact>
</mgrwt>
</event>
<event>
 6    1  0.2866116E-002  0.9221704E+02  0.7546771E-02  0.1422615E+00
         -2   -1    0    0    0  501 -0.00000000000E+00  0.00000000000E+00  0.46539545915E+01  0.46539545915E+01  0.00000000000E+00 0.  1.
          2   -1    0    0  501    0  0.00000000000E+00 -0.00000000000E+00 -0.57512035208E+03  0.57512035208E+03  0.00000000000E+00 0. -1.
         23    2    1    2    0    0  0.83229904078E+01 -0.75340489870E+01 -0.50424514061E+03  0.51260817737E+03  0.91531129181E+02 0.  0.
         11    1    3    3    0    0  0.49492904364E+02 -0.74059665395E+01 -0.31364371003E+03  0.31761104005E+03  0.00000000000E+00 0. -1.
        -11    1    3    3    0    0 -0.41169913957E+02 -0.12808244748E+00 -0.19060143058E+03  0.19499713731E+03  0.00000000000E+00 0.  1.
         22    1    1    2    0    0 -0.83229904078E+01  0.75340489870E+01 -0.66221256876E+02  0.67166129304E+02  0.00000000000E+00 0.  1.
<mgrwt>
<rscale>  0 0.54471503E+02</rscale>
<asrwt>0</asrwt>
<pdfrwt beam="1">  1        2 0.88480037E-01 0.92217036E+02</pdfrwt>
<pdfrwt beam="2">  1       -2 0.71599316E-03 0.92217036E+02</pdfrwt>
<totfact> 0.15799284E+05</totfact>
</mgrwt>
</event>
<event>
 6    1  0.2866116E-002  0.9589707E+02  0.7546771E-02  0.1417735E+00
          1   -1    0    0  501    0  0.00000000000E+00  0.00000000000E+00  0.15821259062E+03  0.15821259062E+03  0.00000000000E+00 0. -1.
         -1   -1    0    0    0  501 -0.00000000000E+00 -0.00000000000E+00 -0.25007758379E+02  0.25007758379E+02  0.00000000000E+00 0.  1.
         23    2    1    2    0    0 -0.94297672170E+01  0.51843471857E+01  0.14058088040E+03  0.17017412150E+03  0.95291393782E+02 0.  0.
         13    1    3    3    0    0 -0.16553161253E+02  0.33944537485E+01 -0.98533981883E+01  0.19560647217E+02  0.00000000000E+00 0.  1.
        -13    1    3    3    0    0  0.71233940356E+01  0.17898934372E+01  0.15043427859E+03  0.15061347429E+03  0.00000000000E+00 0. -1.
         22    1    1    2    0    0  0.94297672170E+01 -0.51843471857E+01 -0.73760481596E+01  0.13046227499E+02  0.00000000000E+00 0. -1.
<mgrwt>
<rscale>  0 0.55503020E+02</rscale>
<asrwt>0</asrwt>
<pdfrwt beam="1">  1        1 0.24340398E-01 0.95897068E+02</pdfrwt>
<pdfrwt beam="2">  1       -1 0.38473475E-02 0.95897068E+02</pdfrwt>
<totfact> 0.45160964E+04</totfact>
</mgrwt>
</event>
<event>
 6    1  0.2866116E-002  0.9275184E+02  0.7546771E-02  0.1390348E+00
          2   -1    0    0  501    0  0.00000000000E+00  0.00000000000E+00  0.12471956178E+04  0.12471956178E+04  0.00000000000E+00 0. -1.
         -2   -1    0    0    0  501 -0.00000000000E+00 -0.00000000000E+00 -0.34204412174E+01  0.34204412174E+01  0.00000000000E+00 0.  1.
         23    2    1    2    0    0  0.18174292464E+02  0.21778731583E+01  0.11937389105E+04  0.11973368326E+04  0.90927753556E+02 0.  0.
         11    1    3    3    0    0 -0.41464636863E+00 -0.43053838294E+02  0.48158146537E+03  0.48350233993E+03  0.00000000000E+00 0. -1.
        -11    1    3    3    0    0  0.18588938832E+02  0.45231711453E+02  0.71215744510E+03  0.71383449270E+03  0.00000000000E+00 0.  1.
         22    1    1    2    0    0 -0.18174292464E+02 -0.21778731583E+01  0.50036266147E+02  0.53279226421E+02  0.00000000000E+00 0.  1.
<mgrwt>
<rscale>  0 0.61820184E+02</rscale>
<asrwt>0</asrwt>
<pdfrwt beam="1">  1        2 0.19187589E+00 0.92751843E+02</pdfrwt>
<pdfrwt beam="2">  1       -2 0.52622272E-03 0.92751843E+02</pdfrwt>
<totfact> 0.90860660E+04</totfact>
</mgrwt>
</event>
<event>
 6    1  0.2866116E-002  0.1036677E+03  0.7546771E-02  0.1312594E+00
         -2   -1    0    0    0  501 -0.00000000000E+00  0.00000000000E+00  0.74849546168E+02  0.74849546168E+02  0.00000000000E+00 0.  1.
          2   -1    0    0  501    0  0.00000000000E+00 -0.00000000000E+00 -0.88105822225E+02  0.88105822225E+02  0.00000000000E+00 0. -1.
         23    2    1    2    0    0  0.48383637133E+02 -0.95394037325E+01 -0.34502244050E+02  0.10925836921E+03  0.91186675733E+02 0.  0.
         11    1    3    3    0    0  0.29652793996E+02 -0.24687513768E+02 -0.61797016669E+02  0.72853502297E+02  0.00000000000E+00 0. -1.
        -11    1    3    3    0    0  0.18730843137E+02  0.15148110035E+02  0.27294772619E+02  0.36404866908E+02  0.00000000000E+00 0.  1.
         22    1    1    2    0    0 -0.48383637133E+02  0.95394037325E+01  0.21245967993E+02  0.53696999187E+02  0.00000000000E+00 0.  1.
<mgrwt>
<rscale>  0 0.86094902E+02</rscale>
<asrwt>0</asrwt>
<pdfrwt beam="1">  1        2 0.13554742E-01 0.10366767E+03</pdfrwt>
<pdfrwt beam="2">  1       -2 0.11515315E-01 0.10366767E+03</pdfrwt>
<totfact> 0.20923079E+04</totfact>
</mgrwt>
</event>
<event>
 6    1  0.2866116E-002  0.9148334E+02  0.7546771E-02  0.1413869E+00
         -2   -1    0    0    0  501 -0.00000000000E+00  0.00000000000E+00  0.64586857403E+02  0.64586857403E+02  0.00000000000E+00 0.  1.
          2   -1    0    0  501    0  0.00000000000E+00 -0.00000000000E+00 -0.44144558030E+02  0.44144558030E+02  0.00000000000E+00 0. -1.
         23    2    1    2    0    0 -0.26993454879E+01 -0.12879208317E+02  0.24945081228E+02  0.94823305662E+02  0.90531992943E+02 0.  0.
         11    1    3    3    0    0  0.16965318108E+02  0.16694821231E+02 -0.24360575529E+02  0.34058430888E+02  0.00000000000E+00 0. -1.
        -11    1    3    3    0    0 -0.19664663596E+02 -0.29574029548E+02  0.49305656758E+02  0.60764874774E+02  0.00000000000E+00 0.  1.
         22    1    1    2    0    0  0.26993454879E+01  0.12879208317E+02 -0.45027818558E+01  0.13908109770E+02  0.00000000000E+00 0. -1.
<mgrwt>
<rscale>  0 0.56339452E+02</rscale>
<asrwt>0</asrwt>
<pdfrwt beam="1">  1        2 0.67914705E-02 0.91483344E+02</pdfrwt>
<pdfrwt beam="2">  1       -2 0.99364396E-02 0.91483344E+02</pdfrwt>
<totfact> 0.60249658E+04</totfact>
</mgrwt>
</event>
<event>
 6    1  0.2866116E-002  0.9947378E+02  0.7546771E-02  0.1329441E+00
          2   -1    0    0  501    0  0.00000000000E+00  0.00000000000E+00  0.72759659347E+02  0.72759659347E+02  0.00000000000E+00 0. -1.
         -2   -1    0    0    0  501 -0.00000000000E+00 -0.00000000000E+00 -0.81292728746E+02  0.81292728746E+02  0.00000000000E+00 0.  1.
         23    2    1    2    0    0 -0.40260865388E+02 -0.93335377040E+01  0.22963620680E+02  0.10208996230E+03  0.90481933671E+02 0.  0.
         11    1    3    3    0    0 -0.32087750967E+02  0.14003583678E+02  0.52791510009E+02  0.63345620582E+02  0.00000000000E+00 0. -1.
        -11    1    3    3    0    0 -0.81731144215E+01 -0.23337121382E+02 -0.29827889328E+02  0.38744341723E+02  0.00000000000E+00 0.  1.
         22    1    1    2    0    0  0.40260865388E+02  0.93335377040E+01 -0.31496690080E+02  0.51962425789E+02  0.00000000000E+00 0.  1.
<mgrwt>
<rscale>  0 0.79862721E+02</rscale>
<asrwt>0</asrwt>
<pdfrwt beam="1">  1        2 0.11193794E-01 0.99473778E+02</pdfrwt>
<pdfrwt beam="2">  1       -2 0.12506574E-01 0.99473778E+02</pdfrwt>
<totfact> 0.22934816E+04</totfact>
</mgrwt>
</event>
<event>
 6    1  0.2866116E-002  0.9349013E+02  0.7546771E-02  0.1348966E+00
         -1   -1    0    0    0  501 -0.00000000000E+00  0.00000000000E+00  0.78560558751E+01  0.78560558751E+01  0.00000000000E+00 0.  1.
          1   -1    0    0  501    0  0.00000000000E+00 -0.00000000000E+00 -0.52947332814E+03  0.52947332814E+03  0.00000000000E+00 0. -1.
         23    2    1    2    0    0 -0.17186525989E+02  0.31039913195E+02 -0.37396021439E+03  0.38546938393E+03  0.86495960085E+02 0.  0.
         13    1    3    3    0    0  0.25870979467E+02 -0.15381240683E+02 -0.11331430031E+03  0.11724342539E+03  0.00000000000E+00 0. -1.
        -13    1    3    3    0    0 -0.43057505456E+02  0.46421153878E+02 -0.26064591409E+03  0.26822595854E+03  0.00000000000E+00 0.  1.
         22    1    1    2    0    0  0.17186525989E+02 -0.31039913195E+02 -0.14765705787E+03  0.15186000008E+03  0.00000000000E+00 0. -1.
<mgrwt>
<rscale>  0 0.73378898E+02</rscale>
<asrwt>0</asrwt>
<pdfrwt beam="1">  1        1 0.81457445E-01 0.93490128E+02</pdfrwt>
<pdfrwt beam="2">  1       -1 0.12086238E-02 0.93490128E+02</pdfrwt>
<totfact> 0.52930734E+04</totfact>
</mgrwt>
</event>
<event>
 6    1  0.2866116E-002  0.9241676E+02  0.7546771E-02  0.1395723E+00
          1   -1    0    0  501    0  0.00000000000E+00  0.00000000000E+00  0.28223458601E+03  0.28223458601E+03  0.00000000000E+00 0. -1.
         -1   -1    0    0    0  501 -0.00000000000E+00 -0.00000000000E+00 -0.20394467366E+02  0.20394467366E+02  0.00000000000E+00 0.  1.
         23    2    1    2    0    0  0.33932099018E+01  0.16636958248E+02  0.26882650832E+03  0.28426844625E+03  0.90843578210E+02 0.  0.
         13    1    3    3    0    0  0.28301140173E+02  0.34076072485E+02  0.68012081883E+02  0.81165118943E+02  0.00000000000E+00 0. -1.
        -13    1    3    3    0    0 -0.24907930271E+02 -0.17439114237E+02  0.20081442644E+03  0.20310332731E+03  0.00000000000E+00 0.  1.
         22    1    1    2    0    0 -0.33932099018E+01 -0.16636958248E+02 -0.69863896822E+01  0.18360607124E+02  0.00000000000E+00 0.  1.
<mgrwt>
<rscale>  0 0.60505390E+02</rscale>
<asrwt>0</asrwt>
<pdfrwt beam="1">  1        1 0.43420703E-01 0.92416762E+02</pdfrwt>
<pdfrwt beam="2">  1       -1 0.31376106E-02 0.92416762E+02</pdfrwt>
<totfact> 0.29668733E+04</totfact>
</mgrwt>
</event>
<event>
 6    1  0.2866116E-002  0.9396361E+02  0.7546771E-02  0.1353779E+00
          2   -1    0    0  501    0  0.00000000000E+00  0.00000000000E+00  0.74979317612E+03  0.74979317612E+03  0.00000000000E+00 0. -1.
         -2   -1    0    0    0  501 -0.00000000000E+00 -0.00000000000E+00 -0.53237092833E+01  0.53237092833E+01  0.00000000000E+00 0.  1.
         23    2    1    2    0    0 -0.23351004230E+02  0.22166603816E+02  0.57238994398E+03  0.58005121226E+03  0.88275325897E+02 0.  0.
         13    1    3    3    0    0  0.25012221369E+02 -0.10616214956E+02  0.86662797957E+02  0.90822661201E+02  0.00000000000E+00 0.  1.
        -13    1    3    3    0    0 -0.48363225599E+02  0.32782818773E+02  0.48572714602E+03  0.48922855106E+03  0.00000000000E+00 0. -1.
         22    1    1    2    0    0  0.23351004230E+02 -0.22166603816E+02  0.17207952286E+03  0.17506567313E+03  0.00000000000E+00 0.  1.
<mgrwt>
<rscale>  0 0.71890688E+02</rscale>
<asrwt>0</asrwt>
<pdfrwt beam="1">  1        2 0.11535271E+00 0.93963615E+02</pdfrwt>
<pdfrwt beam="2">  1       -2 0.81903279E-03 0.93963615E+02</pdfrwt>
<totfact> 0.96649217E+04</totfact>
</mgrwt>
</event>
<event>
 6    1  0.2866116E-002  0.8997955E+02  0.7546771E-02  0.1417547E+00
         -2   -1    0    0    0  501 -0.00000000000E+00  0.00000000000E+00  0.27472313910E+02  0.27472313910E+02  0.00000000000E+00 0. -1.
          2   -1    0    0  501    0  0.00000000000E+00 -0.00000000000E+00 -0.96653569408E+02  0.96653569408E+02  0.00000000000E+00 0.  1.
         23    2    1    2    0    0 -0.26049612536E+01  0.12802131856E+02 -0.61110418359E+02  0.10876949001E+03  0.89026054179E+02 0.  0.
         13    1    3    3    0    0 -0.93062619376E+01  0.25885169438E+02 -0.80136750229E+02  0.84726307870E+02  0.00000000000E+00 0.  1.
        -13    1    3    3    0    0  0.67013006839E+01 -0.13083037581E+02  0.19026331869E+02  0.24043182144E+02  0.00000000000E+00 0. -1.
         22    1    1    2    0    0  0.26049612536E+01 -0.12802131856E+02 -0.80708371387E+01  0.15356393305E+02  0.00000000000E+00 0.  1.
<mgrwt>
<rscale>  0 0.55543188E+02</rscale>
<asrwt>0</asrwt>
<pdfrwt beam="1">  1        2 0.14869780E-01 0.89979546E+02</pdfrwt>
<pdfrwt beam="2">  1       -2 0.42265098E-02 0.89979546E+02</pdfrwt>
<totfact> 0.84600231E+04</totfact>
</mgrwt>
</event>
<event>
 6    1  0.2866116E-002  0.9313830E+02  0.7546771E-02  0.1411117E+00
          1   -1    0    0  501    0  0.00000000000E+00  0.00000000000E+00  0.10729244434E+04  0.10729244434E+04  0.00000000000E+00 0. -1.
         -1   -1    0    0    0  501 -0.00000000000E+00 -0.00000000000E+00 -0.54762219749E+01  0.54762219749E+01  0.00000000000E+00 0.  1.
         23    2    1    2    0    0  0.35201395825E+01 -0.12530040393E+02  0.10585382855E+04  0.10626278960E+04  0.92224456160E+02 0.  0.
         11    1    3    3    0    0 -0.37821436793E+02 -0.20834318360E+02  0.74725344006E+03  0.74849998903E+03  0.00000000000E+00 0. -1.
        -11    1    3    3    0    0  0.41341576376E+02  0.83042779665E+01  0.31128484540E+03  0.31412790698E+03  0.00000000000E+00 0.  1.
         22    1    1    2    0    0 -0.35201395825E+01  0.12530040393E+02  0.89099360105E+01  0.15772769403E+02  0.00000000000E+00 0.  1.
<mgrwt>
<rscale>  0 0.56945350E+02</rscale>
<asrwt>0</asrwt>
<pdfrwt beam="1">  1        1 0.16506513E+00 0.93138304E+02</pdfrwt>
<pdfrwt beam="2">  1       -1 0.84249654E-03 0.93138304E+02</pdfrwt>
<totfact> 0.31175962E+04</totfact>
</mgrwt>
</event>
<event>
 6    1  0.2866116E-002  0.9178648E+02  0.7546771E-02  0.1427551E+00
         -2   -1    0    0    0  501 -0.00000000000E+00  0.00000000000E+00  0.22548163824E+01  0.22548163824E+01  0.00000000000E+00 0.  1.
          2   -1    0    0  501    0  0.00000000000E+00 -0.00000000000E+00 -0.14487686569E+04  0.14487686569E+04  0.00000000000E+00 0. -1.
         23    2    1    2    0    0 -0.72569969438E+01  0.76694533426E+01 -0.14107708434E+04  0.14137535610E+04  0.91177157809E+02 0.  0.
         13    1    3    3    0    0  0.23168538482E+02 -0.33405567283E+02 -0.63837516755E+03  0.63966832628E+03  0.00000000000E+00 0. -1.
        -13    1    3    3    0    0 -0.30425535426E+02  0.41075020626E+02 -0.77239567589E+03  0.77408523475E+03  0.00000000000E+00 0.  1.
         22    1    1    2    0    0  0.72569969438E+01 -0.76694533426E+01 -0.35742997086E+02  0.37269912260E+02  0.00000000000E+00 0.  1.
<mgrwt>
<rscale>  0 0.53454697E+02</rscale>
<asrwt>0</asrwt>
<pdfrwt beam="1">  1        2 0.22288720E+00 0.91786484E+02</pdfrwt>
<pdfrwt beam="2">  1       -2 0.34689527E-03 0.91786484E+02</pdfrwt>
<totfact> 0.12743633E+05</totfact>
</mgrwt>
</event>
<event>
 6    1  0.2866116E-002  0.9132288E+02  0.7546771E-02  0.1426202E+00
         -2   -1    0    0    0  501 -0.00000000000E+00  0.00000000000E+00  0.14826593411E+03  0.14826593411E+03  0.00000000000E+00 0.  1.
          2   -1    0    0  501    0  0.00000000000E+00 -0.00000000000E+00 -0.18250939118E+02  0.18250939118E+02  0.00000000000E+00 0. -1.
         23    2    1    2    0    0 -0.10874480861E+02 -0.12209195923E+01  0.10466036163E+03  0.13890161637E+03  0.90664892621E+02 0.  0.
         11    1    3    3    0    0  0.32695278171E+02 -0.21043055234E+02  0.25840024692E+02  0.46685096812E+02  0.00000000000E+00 0. -1.
        -11    1    3    3    0    0 -0.43569759032E+02  0.19822135642E+02  0.78820336942E+02  0.92216519557E+02  0.00000000000E+00 0.  1.
         22    1    1    2    0    0  0.10874480861E+02  0.12209195923E+01  0.25354633359E+02  0.27615256859E+02  0.00000000000E+00 0. -1.
<mgrwt>
<rscale>  0 0.53730001E+02</rscale>
<asrwt>0</asrwt>
<pdfrwt beam="1">  1        2 0.28078369E-02 0.91322876E+02</pdfrwt>
<pdfrwt beam="2">  1       -2 0.22810143E-01 0.91322876E+02</pdfrwt>
<totfact> 0.49281831E+04</totfact>
</mgrwt>
</event>
<event>
 6    1  0.2866116E-002  0.1003800E+03  0.7546771E-02  0.1327154E+00
          1   -1    0    0  501    0  0.00000000000E+00  0.00000000000E+00  0.63565785278E+03  0.63565785278E+03  0.00000000000E+00 0. -1.
         -1   -1    0    0    0  501 -0.00000000000E+00 -0.00000000000E+00 -0.79619803351E+01  0.79619803351E+01  0.00000000000E+00 0.  1.
         23    2    1    2    0    0 -0.20263302331E+02 -0.36646349770E+02  0.44861261695E+03  0.45970580763E+03  0.91228247304E+02 0.  0.
         13    1    3    3    0    0  0.89519938815E+01  0.26405113456E+02  0.18493145060E+03  0.18702141490E+03  0.00000000000E+00 0.  1.
        -13    1    3    3    0    0 -0.29215296212E+02 -0.63051463226E+02  0.26368116635E+03  0.27268439273E+03  0.00000000000E+00 0. -1.
         22    1    1    2    0    0  0.20263302331E+02  0.36646349770E+02  0.17908325550E+03  0.18391402549E+03  0.00000000000E+00 0.  1.
<mgrwt>
<rscale>  0 0.80672486E+02</rscale>
<asrwt>0</asrwt>
<pdfrwt beam="1">  1        1 0.97793476E-01 0.10038003E+03</pdfrwt>
<pdfrwt beam="2">  1       -1 0.12249206E-02 0.10038003E+03</pdfrwt>
<totfact> 0.41058132E+04</totfact>
</mgrwt>
</event>
<event>
 6    1  0.2866116E-002  0.9278737E+02  0.7546771E-02  0.1409290E+00
         -2   -1    0    0    0  501 -0.00000000000E+00  0.00000000000E+00  0.73096330907E+01  0.73096330907E+01  0.00000000000E+00 0.  1.
          2   -1    0    0  501    0  0.00000000000E+00 -0.00000000000E+00 -0.43468074711E+03  0.43468074711E+03  0.00000000000E+00 0. -1.
         23    2    1    2    0    0 -0.43180262769E+01  0.12837247706E+02 -0.40758152685E+03  0.41800980390E+03  0.91793544675E+02 0.  0.
         13    1    3    3    0    0  0.85176790461E+01  0.40530566303E+02 -0.91249034749E+02  0.10020810348E+03  0.00000000000E+00 0.  1.
        -13    1    3    3    0    0 -0.12835705323E+02 -0.27693318597E+02 -0.31633249210E+03  0.31780170041E+03  0.00000000000E+00 0. -1.
         22    1    1    2    0    0  0.43180262769E+01 -0.12837247706E+02 -0.19789587169E+02  0.23980576305E+02  0.00000000000E+00 0. -1.
<mgrwt>
<rscale>  0 0.57352647E+02</rscale>
<asrwt>0</asrwt>
<pdfrwt beam="1">  1        2 0.66873970E-01 0.92787365E+02</pdfrwt>
<pdfrwt beam="2">  1       -2 0.11245588E-02 0.92787365E+02</pdfrwt>
<totfact> 0.11310916E+05</totfact>
</mgrwt>
</event>
<event>
 6    1  0.2866116E-002  0.9419559E+02  0.7546771E-02  0.1420164E+00
          2   -1    0    0  501    0  0.00000000000E+00  0.00000000000E+00  0.20215059584E+03  0.20215059584E+03  0.00000000000E+00 0. -1.
         -2   -1    0    0    0  501 -0.00000000000E+00 -0.00000000000E+00 -0.20832123907E+02  0.20832123907E+02  0.00000000000E+00 0.  1.
         23    2    1    2    0    0  0.10675073662E+01  0.10885436613E+02  0.18792059945E+03  0.21020694619E+03  0.93558410780E+02 0.  0.
         13    1    3    3    0    0 -0.11470679002E+02 -0.36176162254E+02  0.12503107372E+03  0.13066392229E+03  0.00000000000E+00 0. -1.
        -13    1    3    3    0    0  0.12538186368E+02  0.47061598867E+02  0.62889525733E+02  0.79543023907E+02  0.00000000000E+00 0.  1.
         22    1    1    2    0    0 -0.10675073662E+01 -0.10885436613E+02 -0.66021275162E+01  0.12775773556E+02  0.00000000000E+00 0.  1.
<mgrwt>
<rscale>  0 0.54986234E+02</rscale>
<asrwt>0</asrwt>
<pdfrwt beam="1">  1        2 0.31100090E-01 0.94195587E+02</pdfrwt>
<pdfrwt beam="2">  1       -2 0.32049423E-02 0.94195587E+02</pdfrwt>
<totfact> 0.56343037E+04</totfact>
</mgrwt>
</event>
<event>
 6    1  0.2866116E-002  0.9002710E+02  0.7546771E-02  0.1408536E+00
         -2   -1    0    0    0  501 -0.00000000000E+00  0.00000000000E+00  0.30346315712E+02  0.30346315712E+02  0.00000000000E+00 0.  1.
          2   -1    0    0  501    0  0.00000000000E+00 -0.00000000000E+00 -0.10559396945E+03  0.10559396945E+03  0.00000000000E+00 0. -1.
         23    2    1    2    0    0  0.14168848467E+02 -0.49361589072E+01 -0.79755236529E+02  0.12027375286E+03  0.88767989399E+02 0.  0.
         13    1    3    3    0    0  0.50285562189E+02 -0.10030287206E+02 -0.33012380896E+02  0.60984110377E+02  0.00000000000E+00 0. -1.
        -13    1    3    3    0    0 -0.36116713722E+02  0.50941282992E+01 -0.46742855633E+02  0.59289642484E+02  0.00000000000E+00 0.  1.
         22    1    1    2    0    0 -0.14168848467E+02  0.49361589072E+01  0.45075827928E+01  0.15666532299E+02  0.00000000000E+00 0.  1.
<mgrwt>
<rscale>  0 0.57521758E+02</rscale>
<asrwt>0</asrwt>
<pdfrwt beam="1">  1        2 0.16245226E-01 0.90027095E+02</pdfrwt>
<pdfrwt beam="2">  1       -2 0.46686640E-02 0.90027095E+02</pdfrwt>
<totfact> 0.65972449E+04</totfact>
</mgrwt>
</event>
<event>
 6    1  0.2866116E-002  0.9106454E+02  0.7546771E-02  0.1429506E+00
         -3   -1    0    0    0  501 -0.00000000000E+00  0.00000000000E+00  0.15305768503E+03  0.15305768503E+03  0.00000000000E+00 0.  1.
          3   -1    0    0  501    0  0.00000000000E+00 -0.00000000000E+00 -0.18604024710E+02  0.18604024710E+02  0.00000000000E+00 0. -1.
         23    2    1    2    0    0 -0.90363322652E+01  0.53382684326E+01  0.98225931528E+02  0.13394432987E+03  0.90457710946E+02 0.  0.
         11    1    3    3    0    0  0.21056885098E+02  0.37419259599E+02  0.28607653036E+02  0.51594488186E+02  0.00000000000E+00 0. -1.
        -11    1    3    3    0    0 -0.30093217363E+02 -0.32080991166E+02  0.69618278492E+02  0.82349841685E+02  0.00000000000E+00 0.  1.
         22    1    1    2    0    0  0.90363322652E+01 -0.53382684326E+01  0.36227728790E+02  0.37717379866E+02  0.00000000000E+00 0. -1.
<mgrwt>
<rscale>  0 0.53059263E+02</rscale>
<asrwt>0</asrwt>
<pdfrwt beam="1">  1        3 0.28621577E-02 0.91064537E+02</pdfrwt>
<pdfrwt beam="2">  1       -3 0.23547335E-01 0.91064537E+02</pdfrwt>
<totfact> 0.18781186E+04</totfact>
</mgrwt>
</event>
<event>
 6    1  0.2866116E-002  0.9257953E+02  0.7546771E-02  0.1420919E+00
          2   -1    0    0  501    0  0.00000000000E+00  0.00000000000E+00  0.53548723721E+02  0.53548723721E+02  0.00000000000E+00 0. -1.
         -2   -1    0    0    0  501 -0.00000000000E+00 -0.00000000000E+00 -0.50483624204E+02  0.50483624204E+02  0.00000000000E+00 0.  1.
         23    2    1    2    0    0 -0.76342859793E+01 -0.84495844230E+01  0.33668362852E+01  0.92640735027E+02  0.91876506249E+02 0.  0.
         11    1    3    3    0    0  0.47755621731E+01  0.37197524177E+02  0.19994013799E+02  0.42499675138E+02  0.00000000000E+00 0. -1.
        -11    1    3    3    0    0 -0.12409848152E+02 -0.45647108600E+02 -0.16627177514E+02  0.50141059889E+02  0.00000000000E+00 0.  1.
         22    1    1    2    0    0  0.76342859793E+01  0.84495844230E+01 -0.30173676792E+00  0.11391612898E+02  0.00000000000E+00 0.  1.
<mgrwt>
<rscale>  0 0.54826996E+02</rscale>
<asrwt>0</asrwt>
<pdfrwt beam="1">  1        2 0.82382652E-02 0.92579534E+02</pdfrwt>
<pdfrwt beam="2">  1       -2 0.77667114E-02 0.92579534E+02</pdfrwt>
<totfact> 0.69303010E+04</totfact>
</mgrwt>
</event>
<event>
 6    1  0.2866116E-002  0.3068507E+03  0.7546771E-02  0.1083602E+00
          2   -1    0    0  501    0  0.00000000000E+00  0.00000000000E+00  0.16536287168E+04  0.16536287168E+04  0.00000000000E+00 0. -1.
         -2   -1    0    0    0  501 -0.00000000000E+00 -0.00000000000E+00 -0.11949650956E+03  0.11949650956E+03  0.00000000000E+00 0.  1.
         23    2    1    2    0    0  0.21030859903E+03  0.20385520669E+03  0.12081570552E+03  0.32977835671E+03  0.91491407970E+02 0.  0.
         11    1    3    3    0    0  0.12655979972E+03  0.59342385654E+02  0.52306955358E+02  0.14924784494E+03  0.00000000000E+00 0.  1.
        -11    1    3    3    0    0  0.83748799303E+02  0.14451282104E+03  0.68508750163E+02  0.18053051177E+03  0.00000000000E+00 0. -1.
         22    1    1    2    0    0 -0.21030859903E+03 -0.20385520669E+03  0.14133165017E+04  0.14433468696E+04  0.00000000000E+00 0.  1.
<mgrwt>
<rscale>  0 0.30330025E+03</rscale>
<asrwt>0</asrwt>
<pdfrwt beam="1">  1        2 0.25440440E+00 0.30685066E+03</pdfrwt>
<pdfrwt beam="2">  1       -2 0.18384080E-01 0.30685066E+03</pdfrwt>
<totfact> 0.27447454E+02</totfact>
</mgrwt>
</event>
<event>
 6    1  0.2866116E-002  0.9317654E+02  0.7546771E-02  0.1373437E+00
          2   -1    0    0  501    0  0.00000000000E+00  0.00000000000E+00  0.22070804020E+03  0.22070804020E+03  0.00000000000E+00 0. -1.
         -2   -1    0    0    0  501 -0.00000000000E+00 -0.00000000000E+00 -0.79397598672E+02  0.79397598672E+02  0.00000000000E+00 0.  1.
         23    2    1    2    0    0 -0.73623992876E+01 -0.22602833595E+02  0.20874895294E+03  0.22860007384E+03  0.90093148451E+02 0.  0.
         11    1    3    3    0    0 -0.92745911973E+01  0.25879676133E+02  0.20756676431E+02  0.34447282840E+02  0.00000000000E+00 0.  1.
        -11    1    3    3    0    0  0.19121919097E+01 -0.48482509728E+02  0.18799227651E+03  0.19415279100E+03  0.00000000000E+00 0. -1.
         22    1    1    2    0    0  0.73623992876E+01  0.22602833595E+02 -0.67438511407E+02  0.71505565033E+02  0.00000000000E+00 0.  1.
<mgrwt>
<rscale>  0 0.66220879E+02</rscale>
<asrwt>0</asrwt>
<pdfrwt beam="1">  1        2 0.33955083E-01 0.93176544E+02</pdfrwt>
<pdfrwt beam="2">  1       -2 0.12215015E-01 0.93176544E+02</pdfrwt>
<totfact> 0.67913564E+03</totfact>
</mgrwt>
</event>
<event>
 6    1  0.2866116E-002  0.1050809E+03  0.7546771E-02  0.1390950E+00
          2   -1    0    0  501    0  0.00000000000E+00  0.00000000000E+00  0.35624582229E+04  0.35624582229E+04  0.00000000000E+00 0. -1.
         -2   -1    0    0    0  501 -0.00000000000E+00 -0.00000000000E+00 -0.17662552532E+01  0.17662552532E+01  0.00000000000E+00 0.  1.
         23    2    1    2    0    0  0.10143295410E+02  0.72478624949E+01  0.35221350137E+04  0.35237021800E+04  0.10433877714E+03 0.  0.
         13    1    3    3    0    0  0.47434604157E+02  0.29966646502E+02  0.14101018293E+04  0.14112176340E+04  0.00000000000E+00 0.  1.
        -13    1    3    3    0    0 -0.37291308748E+02 -0.22718784007E+02  0.21120331845E+04  0.21124845460E+04  0.00000000000E+00 0. -1.
         22    1    1    2    0    0 -0.10143295410E+02 -0.72478624949E+01  0.38556953904E+02  0.40522298144E+02  0.00000000000E+00 0.  1.
<mgrwt>
<rscale>  0 0.61670934E+02</rscale>
<asrwt>0</asrwt>
<pdfrwt beam="1">  1        2 0.54806474E+00 0.10508091E+03</pdfrwt>
<pdfrwt beam="2">  1       -2 0.27173443E-03 0.10508091E+03</pdfrwt>
<totfact> 0.12767621E+04</totfact>
</mgrwt>
</event>
<event>
 6    1  0.2866116E-002  0.1003068E+03  0.7546771E-02  0.1323288E+00
         -2   -1    0    0    0  501 -0.00000000000E+00  0.00000000000E+00  0.43164377028E+02  0.43164377028E+02  0.00000000000E+00 0.  1.
          2   -1    0    0  501    0  0.00000000000E+00 -0.00000000000E+00 -0.12724166513E+03  0.12724166513E+03  0.00000000000E+00 0. -1.
         23    2    1    2    0    0  0.42033395016E+02  0.15908876737E+02 -0.41683232227E+02  0.10862291639E+03  0.89674675697E+02 0.  0.
         11    1    3    3    0    0 -0.55681060604E+01 -0.46581066118E+00  0.24692967317E+02  0.25317255373E+02  0.00000000000E+00 0.  1.
        -11    1    3    3    0    0  0.47601501077E+02  0.16374687398E+02 -0.66376199544E+02  0.83305661021E+02  0.00000000000E+00 0. -1.
         22    1    1    2    0    0 -0.42033395016E+02 -0.15908876737E+02 -0.42394055872E+02  0.61783125762E+02  0.00000000000E+00 0.  1.
<mgrwt>
<rscale>  0 0.82066110E+02</rscale>
<asrwt>0</asrwt>
<pdfrwt beam="1">  1        2 0.19575641E-01 0.10030676E+03</pdfrwt>
<pdfrwt beam="2">  1       -2 0.66406735E-02 0.10030676E+03</pdfrwt>
<totfact> 0.31969808E+04</totfact>
</mgrwt>
</event>
<event>
 6    1  0.2866116E-002  0.9546476E+02  0.7546771E-02  0.1346606E+00
         -2   -1    0    0    0  501 -0.00000000000E+00  0.00000000000E+00  0.93400414604E+01  0.93400414604E+01  0.00000000000E+00 0.  1.
          2   -1    0    0  501    0  0.00000000000E+00 -0.00000000000E+00 -0.45693037100E+03  0.45693037100E+03  0.00000000000E+00 0. -1.
         23    2    1    2    0    0  0.22404144574E+02 -0.26494969151E+02 -0.34540971389E+03  0.35835930414E+03  0.88935883252E+02 0.  0.
         13    1    3    3    0    0 -0.34765175936E+01 -0.45830261777E+02 -0.91422893768E+02  0.10232616759E+03  0.00000000000E+00 0.  1.
        -13    1    3    3    0    0  0.25880662167E+02  0.19335292625E+02 -0.25398682012E+03  0.25603313655E+03  0.00000000000E+00 0. -1.
         22    1    1    2    0    0 -0.22404144574E+02  0.26494969151E+02 -0.10218061565E+03  0.10791110832E+03  0.00000000000E+00 0. -1.
<mgrwt>
<rscale>  0 0.74123758E+02</rscale>
<asrwt>0</asrwt>
<pdfrwt beam="1">  1        2 0.70296996E-01 0.95464760E+02</pdfrwt>
<pdfrwt beam="2">  1       -2 0.14369291E-02 0.95464760E+02</pdfrwt>
<totfact> 0.75971619E+04</totfact>
</mgrwt>
</event>
<event>
 6    1  0.2866116E-002  0.9216718E+02  0.7546771E-02  0.1386514E+00
         -4   -1    0    0    0  501 -0.00000000000E+00  0.00000000000E+00  0.12138422863E+03  0.12138422863E+03  0.00000000000E+00 0. -1.
          4   -1    0    0  501    0  0.00000000000E+00 -0.00000000000E+00 -0.26307024882E+02  0.26307024882E+02  0.00000000000E+00 0.  1.
         23    2    1    2    0    0  0.18937783308E+02 -0.59257000725E+01  0.85248755042E+02  0.12554736131E+03  0.90005756132E+02 0.  0.
         13    1    3    3    0    0 -0.13588606645E+01 -0.11456595852E+02  0.99481500428E+02  0.10014823522E+03  0.00000000000E+00 0. -1.
        -13    1    3    3    0    0  0.20296643972E+02  0.55308957791E+01 -0.14232745386E+02  0.25399126084E+02  0.00000000000E+00 0.  1.
         22    1    1    2    0    0 -0.18937783308E+02  0.59257000725E+01  0.98284487021E+01  0.22143892202E+02  0.00000000000E+00 0.  1.
<mgrwt>
<rscale>  0 0.62782022E+02</rscale>
<asrwt>0</asrwt>
<pdfrwt beam="1">  1        4 0.40472347E-02 0.92167183E+02</pdfrwt>
<pdfrwt beam="2">  1       -4 0.18674496E-01 0.92167183E+02</pdfrwt>
<totfact> 0.12459925E+04</totfact>
</mgrwt>
</event>
<event>
 6    1  0.2866116E-002  0.9395334E+02  0.7546771E-02  0.1385713E+00
          4   -1    0    0  501    0  0.00000000000E+00  0.00000000000E+00  0.14017476973E+02  0.14017476973E+02  0.00000000000E+00 0. -1.
         -4   -1    0    0    0  501 -0.00000000000E+00 -0.00000000000E+00 -0.24016260092E+03  0.24016260092E+03  0.00000000000E+00 0.  1.
         23    2    1    2    0    0 -0.18810693232E+02 -0.25079988133E+01 -0.16185628166E+03  0.18714883533E+03  0.92016837657E+02 0.  0.
         13    1    3    3    0    0 -0.28312056301E+02  0.36910006673E+02 -0.50595877051E+02  0.68730371010E+02  0.00000000000E+00 0. -1.
        -13    1    3    3    0    0  0.95013630690E+01 -0.39418005486E+02 -0.11126040461E+03  0.11841846432E+03  0.00000000000E+00 0.  1.
         22    1    1    2    0    0  0.18810693232E+02  0.25079988133E+01 -0.64288842286E+02  0.67031242569E+02  0.00000000000E+00 0. -1.
<mgrwt>
<rscale>  0 0.62985695E+02</rscale>
<asrwt>0</asrwt>
<pdfrwt beam="1">  1        4 0.21565352E-02 0.93953343E+02</pdfrwt>
<pdfrwt beam="2">  1       -4 0.36948088E-01 0.93953343E+02</pdfrwt>
<totfact> 0.94601813E+03</totfact>
</mgrwt>
</event>
<event>
 6    1  0.2866116E-002  0.9377298E+02  0.7546771E-02  0.1380752E+00
         -1   -1    0    0    0  501 -0.00000000000E+00  0.00000000000E+00  0.24342720531E+03  0.24342720531E+03  0.00000000000E+00 0.  1.
          1   -1    0    0  501    0  0.00000000000E+00 -0.00000000000E+00 -0.17364244598E+02  0.17364244598E+02  0.00000000000E+00 0. -1.
         23    2    1    2    0    0  0.19251986248E+02  0.75720381538E+01  0.11778323057E+03  0.15055318660E+03  0.91462548931E+02 0.  0.
         13    1    3    3    0    0 -0.23481824859E+01 -0.38395557632E+02  0.74404768312E+02  0.83760386546E+02  0.00000000000E+00 0. -1.
        -13    1    3    3    0    0  0.21600168734E+02  0.45967595786E+02  0.43378462255E+02  0.66792800055E+02  0.00000000000E+00 0.  1.
         22    1    1    2    0    0 -0.19251986248E+02 -0.75720381538E+01  0.10827973015E+03  0.11023826331E+03  0.00000000000E+00 0.  1.
<mgrwt>
<rscale>  0 0.64266636E+02</rscale>
<asrwt>0</asrwt>
<pdfrwt beam="1">  1        1 0.26714224E-02 0.93772984E+02</pdfrwt>
<pdfrwt beam="2">  1       -1 0.37450337E-01 0.93772984E+02</pdfrwt>
<totfact> 0.24637458E+04</totfact>
</mgrwt>
</event>
<event>
 6    1  0.2866116E-002  0.9196824E+02  0.7546771E-02  0.1423579E+00
          3   -1    0    0  501    0  0.00000000000E+00  0.00000000000E+00  0.20630263954E+03  0.20630263954E+03  0.00000000000E+00 0. -1.
         -3   -1    0    0    0  501 -0.00000000000E+00 -0.00000000000E+00 -0.12896666118E+02  0.12896666118E+02  0.00000000000E+00 0.  1.
         23    2    1    2    0    0 -0.11029677213E+02 -0.16475599658E+01  0.17048366027E+03  0.19370811750E+03  0.91289583932E+02 0.  0.
         11    1    3    3    0    0  0.23822601989E+02 -0.25357531020E+02  0.13241495938E+03  0.13690961329E+03  0.00000000000E+00 0. -1.
        -11    1    3    3    0    0 -0.34852279202E+02  0.23709971054E+02  0.38068700893E+02  0.56798504211E+02  0.00000000000E+00 0.  1.
         22    1    1    2    0    0  0.11029677213E+02  0.16475599658E+01  0.22922313147E+02  0.25491188150E+02  0.00000000000E+00 0. -1.
<mgrwt>
<rscale>  0 0.54270906E+02</rscale>
<asrwt>0</asrwt>
<pdfrwt beam="1">  1        3 0.31738865E-01 0.91968236E+02</pdfrwt>
<pdfrwt beam="2">  1       -3 0.19841026E-02 0.91968236E+02</pdfrwt>
<totfact> 0.19131499E+04</totfact>
</mgrwt>
</event>
<event>
 6    1  0.2866116E-002  0.9583125E+02  0.7546771E-02  0.1359605E+00
         -2   -1    0    0    0  501 -0.00000000000E+00  0.00000000000E+00  0.13118568554E+03  0.13118568554E+03  0.00000000000E+00 0.  1.
          2   -1    0    0  501    0  0.00000000000E+00 -0.00000000000E+00 -0.67408308612E+02  0.67408308612E+02  0.00000000000E+00 0. -1.
         23    2    1    2    0    0 -0.17619771274E+02 -0.21121973228E+02 -0.30355988759E+02  0.10052419947E+03  0.91798880894E+02 0.  0.
         11    1    3    3    0    0 -0.18059423856E+02 -0.44066349084E+02 -0.50913065845E+02  0.69714605251E+02  0.00000000000E+00 0. -1.
        -11    1    3    3    0    0  0.43965258127E+00  0.22944375856E+02  0.20557077086E+02  0.30809594222E+02  0.00000000000E+00 0.  1.
         22    1    1    2    0    0  0.17619771274E+02  0.21121973228E+02  0.94133365687E+02  0.98069794679E+02  0.00000000000E+00 0.  1.
<mgrwt>
<rscale>  0 0.70143630E+02</rscale>
<asrwt>0</asrwt>
<pdfrwt beam="1">  1        2 0.10370509E-01 0.95831251E+02</pdfrwt>
<pdfrwt beam="2">  1       -2 0.20182413E-01 0.95831251E+02</pdfrwt>
<totfact> 0.11466084E+04</totfact>
</mgrwt>
</event>
<event>
 6    1  0.2866116E-002  0.9229679E+02  0.7546771E-02  0.1387284E+00
          2   -1    0    0  501    0  0.00000000000E+00  0.00000000000E+00  0.95829712622E+03  0.95829712622E+03  0.00000000000E+00 0. -1.
         -2   -1    0    0    0  501 -0.00000000000E+00 -0.00000000000E+00 -0.40548116046E+01  0.40548116046E+01  0.00000000000E+00 0.  1.
         23    2    1    2    0    0 -0.10808010588E+02 -0.16249452826E+02  0.89972905905E+03  0.90445070431E+03  0.90209971847E+02 0.  0.
         11    1    3    3    0    0 -0.41632521098E+02  0.16435544100E+02  0.34228085710E+03  0.34519498702E+03  0.00000000000E+00 0.  1.
        -11    1    3    3    0    0  0.30824510510E+02 -0.32684996926E+02  0.55744820195E+03  0.55925571729E+03  0.00000000000E+00 0. -1.
         22    1    1    2    0    0  0.10808010588E+02  0.16249452826E+02  0.54513255566E+02  0.57901233513E+02  0.00000000000E+00 0.  1.
<mgrwt>
<rscale>  0 0.62587167E+02</rscale>
<asrwt>0</asrwt>
<pdfrwt beam="1">  1        2 0.14743015E+00 0.92296787E+02</pdfrwt>
<pdfrwt beam="2">  1       -2 0.62381793E-03 0.92296787E+02</pdfrwt>
<totfact> 0.10403271E+05</totfact>
</mgrwt>
</event>
<event>
 6    1  0.2866116E-002  0.9885407E+02  0.7546771E-02  0.1333688E+00
          4   -1    0    0  501    0  0.00000000000E+00  0.00000000000E+00  0.33681398545E+03  0.33681398545E+03  0.00000000000E+00 0. -1.
         -4   -1    0    0    0  501 -0.00000000000E+00 -0.00000000000E+00 -0.18387745523E+02  0.18387745523E+02  0.00000000000E+00 0.  1.
         23    2    1    2    0    0  0.35508787043E+02  0.16335682766E+02  0.29132250336E+03  0.30763765814E+03  0.90798674286E+02 0.  0.
         13    1    3    3    0    0  0.37573898970E+02  0.51414911401E+02  0.18390094855E+03  0.19461461887E+03  0.00000000000E+00 0. -1.
        -13    1    3    3    0    0 -0.20651119262E+01 -0.35079228635E+02  0.10742155481E+03  0.11302303927E+03  0.00000000000E+00 0.  1.
         22    1    1    2    0    0 -0.35508787043E+02 -0.16335682766E+02  0.27103736567E+02  0.47564072835E+02  0.00000000000E+00 0.  1.
<mgrwt>
<rscale>  0 0.78388382E+02</rscale>
<asrwt>0</asrwt>
<pdfrwt beam="1">  1        4 0.51817531E-01 0.98854073E+02</pdfrwt>
<pdfrwt beam="2">  1       -4 0.28288842E-02 0.98854073E+02</pdfrwt>
<totfact> 0.32312932E+03</totfact>
</mgrwt>
</event>
<event>
 6    1  0.2866116E-002  0.9359467E+02  0.7546771E-02  0.1392664E+00
         -2   -1    0    0    0  501 -0.00000000000E+00  0.00000000000E+00  0.50756886008E+02  0.50756886008E+02  0.00000000000E+00 0.  1.
          2   -1    0    0  501    0  0.00000000000E+00 -0.00000000000E+00 -0.21056612416E+03  0.21056612416E+03  0.00000000000E+00 0. -1.
         23    2    1    2    0    0 -0.25567392915E+01  0.16973323201E+02 -0.19824517908E+03  0.21922844791E+03  0.92007231916E+02 0.  0.
         11    1    3    3    0    0  0.15397783698E+02 -0.14561531660E+02 -0.17467877602E+03  0.17595966793E+03  0.00000000000E+00 0. -1.
        -11    1    3    3    0    0 -0.17954522990E+02  0.31534854861E+02 -0.23566403062E+02  0.43268779971E+02  0.00000000000E+00 0.  1.
         22    1    1    2    0    0  0.25567392915E+01 -0.16973323201E+02  0.38435940934E+02  0.42094562259E+02  0.00000000000E+00 0.  1.
<mgrwt>
<rscale>  0 0.61248866E+02</rscale>
<asrwt>0</asrwt>
<pdfrwt beam="1">  1        2 0.32394788E-01 0.93594665E+02</pdfrwt>
<pdfrwt beam="2">  1       -2 0.78087518E-02 0.93594665E+02</pdfrwt>
<totfact> 0.14314488E+04</totfact>
</mgrwt>
</event>
<event>
 6    1  0.2866116E-002  0.8943211E+02  0.7546771E-02  0.1409911E+00
          2   -1    0    0  501    0  0.00000000000E+00  0.00000000000E+00  0.59714393515E+02  0.59714393515E+02  0.00000000000E+00 0. -1.
         -2   -1    0    0    0  501 -0.00000000000E+00 -0.00000000000E+00 -0.47472536161E+02  0.47472536161E+02  0.00000000000E+00 0.  1.
         23    2    1    2    0    0  0.10483329701E+02 -0.10701017824E+02  0.17841077093E+02  0.91194329957E+02  0.88168530670E+02 0.  0.
         13    1    3    3    0    0  0.22118377253E+02  0.27101781647E+02  0.33706313376E+02  0.48578233213E+02  0.00000000000E+00 0. -1.
        -13    1    3    3    0    0 -0.11635047552E+02 -0.37802799471E+02 -0.15865236283E+02  0.42616096744E+02  0.00000000000E+00 0.  1.
         22    1    1    2    0    0 -0.10483329701E+02  0.10701017824E+02 -0.55992197385E+01  0.15992599719E+02  0.00000000000E+00 0.  1.
<mgrwt>
<rscale>  0 0.57213808E+02</rscale>
<asrwt>0</asrwt>
<pdfrwt beam="1">  1        2 0.91868297E-02 0.89432107E+02</pdfrwt>
<pdfrwt beam="2">  1       -2 0.73034671E-02 0.89432107E+02</pdfrwt>
<totfact> 0.66216033E+04</totfact>
</mgrwt>
</event>
<event>
 6    1  0.2866116E-002  0.9198797E+02  0.7546771E-02  0.1397820E+00
         -1   -1    0    0    0  501 -0.00000000000E+00  0.00000000000E+00  0.16912845787E+02  0.16912845787E+02  0.00000000000E+00 0.  1.
          1   -1    0    0  501    0  0.00000000000E+00 -0.00000000000E+00 -0.28648103202E+03  0.28648103202E+03  0.00000000000E+00 0. -1.
         23    2    1    2    0    0 -0.11960810843E+02  0.11587213005E+02 -0.27147079635E+03  0.28663248090E+03  0.90468012747E+02 0.  0.
         13    1    3    3    0    0 -0.35829510154E+01  0.16450654323E+00  0.69662175127E+01  0.78353549260E+01  0.00000000000E+00 0.  1.
        -13    1    3    3    0    0 -0.83778598277E+01  0.11422706462E+02 -0.27843701387E+03  0.27879712597E+03  0.00000000000E+00 0. -1.
         22    1    1    2    0    0  0.11960810843E+02 -0.11587213005E+02  0.19026101179E+01  0.16761396914E+02  0.00000000000E+00 0.  1.
<mgrwt>
<rscale>  0 0.60002838E+02</rscale>
<asrwt>0</asrwt>
<pdfrwt beam="1">  1        1 0.44074004E-01 0.91987966E+02</pdfrwt>
<pdfrwt beam="2">  1       -1 0.26019764E-02 0.91987966E+02</pdfrwt>
<totfact> 0.38118577E+04</totfact>
</mgrwt>
</event>
<event>
 6    1  0.2866116E-002  0.9648708E+02  0.7546771E-02  0.1353849E+00
         -3   -1    0    0    0  501 -0.00000000000E+00  0.00000000000E+00  0.51511257177E+02  0.51511257177E+02  0.00000000000E+00 0. -1.
          3   -1    0    0  501    0  0.00000000000E+00 -0.00000000000E+00 -0.77642751783E+02  0.77642751783E+02  0.00000000000E+00 0.  1.
         23    2    1    2    0    0  0.95544516824E+01  0.28122318002E+02 -0.16207366205E+02  0.97838826680E+02  0.91801987833E+02 0.  0.
         13    1    3    3    0    0  0.17392682698E+02  0.17030653356E+02  0.36242772165E+02  0.43658757419E+02  0.00000000000E+00 0. -1.
        -13    1    3    3    0    0 -0.78382310159E+01  0.11091664645E+02 -0.52450138370E+02  0.54180069260E+02  0.00000000000E+00 0.  1.
         22    1    1    2    0    0 -0.95544516824E+01 -0.28122318002E+02 -0.99241284009E+01  0.31315182280E+02  0.00000000000E+00 0.  1.
<mgrwt>
<rscale>  0 0.71869534E+02</rscale>
<asrwt>0</asrwt>
<pdfrwt beam="1">  1        3 0.11945039E-01 0.96487084E+02</pdfrwt>
<pdfrwt beam="2">  1       -3 0.79248088E-02 0.96487084E+02</pdfrwt>
<totfact> 0.12380824E+04</totfact>
</mgrwt>
</event>
<event>
 6    1  0.2866116E-002  0.9428459E+02  0.7546771E-02  0.1374910E+00
         -2   -1    0    0    0  501 -0.00000000000E+00  0.00000000000E+00  0.49961014547E+01  0.49961014547E+01  0.00000000000E+00 0.  1.
          2   -1    0    0  501    0  0.00000000000E+00 -0.00000000000E+00 -0.72191528438E+03  0.72191528438E+03  0.00000000000E+00 0. -1.
         23    2    1    2    0    0 -0.61490071581E+00 -0.22385744168E+02 -0.63599655815E+03  0.64294728133E+03  0.91586488882E+02 0.  0.
         13    1    3    3    0    0 -0.25124459441E+02  0.61771221769E+00 -0.55060146928E+03  0.55117474362E+03  0.00000000000E+00 0. -1.
        -13    1    3    3    0    0  0.24509558725E+02 -0.23003456386E+02 -0.85395088863E+02  0.91772537703E+02  0.00000000000E+00 0.  1.
         22    1    1    2    0    0  0.61490071581E+00  0.22385744168E+02 -0.80922624780E+02  0.83964104510E+02  0.00000000000E+00 0.  1.
<mgrwt>
<rscale>  0 0.65820985E+02</rscale>
<asrwt>0</asrwt>
<pdfrwt beam="1">  1        2 0.11106396E+00 0.94284594E+02</pdfrwt>
<pdfrwt beam="2">  1       -2 0.76863049E-03 0.94284594E+02</pdfrwt>
<totfact> 0.11063023E+05</totfact>
</mgrwt>
</event>
<event>
 6    1  0.2866116E-002  0.9378150E+02  0.7546771E-02  0.1384905E+00
          2   -1    0    0  501    0  0.00000000000E+00  0.00000000000E+00  0.66796287409E+02  0.66796287409E+02  0.00000000000E+00 0. -1.
         -2   -1    0    0    0  501 -0.00000000000E+00 -0.00000000000E+00 -0.48809930436E+02  0.48809930436E+02  0.00000000000E+00 0.  1.
         23    2    1    2    0    0 -0.17864397937E+02  0.73900354882E+01  0.87745111205E+01  0.94191096033E+02  0.91767211946E+02 0.  0.
         11    1    3    3    0    0 -0.26801196644E+02 -0.35212212034E+02  0.20993857282E+02  0.48979036959E+02  0.00000000000E+00 0. -1.
        -11    1    3    3    0    0  0.89367987068E+01  0.42602247522E+02 -0.12219346162E+02  0.45212059074E+02  0.00000000000E+00 0.  1.
         22    1    1    2    0    0  0.17864397937E+02 -0.73900354882E+01  0.92118458526E+01  0.21415121811E+02  0.00000000000E+00 0.  1.
<mgrwt>
<rscale>  0 0.63191760E+02</rscale>
<asrwt>0</asrwt>
<pdfrwt beam="1">  1        2 0.10276352E-01 0.93781504E+02</pdfrwt>
<pdfrwt beam="2">  1       -2 0.75092201E-02 0.93781504E+02</pdfrwt>
<totfact> 0.55771524E+04</totfact>
</mgrwt>
</event>
<event>
 6    1  0.2866116E-002  0.9340737E+02  0.7546771E-02  0.1388985E+00
         -3   -1    0    0    0  501 -0.00000000000E+00  0.00000000000E+00  0.87099545265E+02  0.87099545265E+02  0.00000000000E+00 0.  1.
          3   -1    0    0  501    0  0.00000000000E+00 -0.00000000000E+00 -0.38254482852E+02  0.38254482852E+02  0.00000000000E+00 0. -1.
         23    2    1    2    0    0 -0.10528028515E+02 -0.14991329565E+02  0.27807794891E+02  0.97458760215E+02  0.91593433932E+02 0.  0.
         11    1    3    3    0    0 -0.49553269034E+02 -0.19370559260E+02  0.22748676783E+02  0.57864041800E+02  0.00000000000E+00 0. -1.
        -11    1    3    3    0    0  0.39025240520E+02  0.43792296946E+01  0.50591181082E+01  0.39594718415E+02  0.00000000000E+00 0.  1.
         22    1    1    2    0    0  0.10528028515E+02  0.14991329565E+02  0.21037267522E+02  0.27895267902E+02  0.00000000000E+00 0.  1.
<mgrwt>
<rscale>  0 0.62159893E+02</rscale>
<asrwt>0</asrwt>
<pdfrwt beam="1">  1        3 0.58853051E-02 0.93407368E+02</pdfrwt>
<pdfrwt beam="2">  1       -3 0.13399930E-01 0.93407368E+02</pdfrwt>
<totfact> 0.16305017E+04</totfact>
</mgrwt>
</event>
<event>
 6    1  0.2866116E-002  0.9623093E+02  0.7546771E-02  0.1379089E+00
          4   -1    0    0  501    0  0.00000000000E+00  0.00000000000E+00  0.94237331460E+03  0.94237331460E+03  0.00000000000E+00 0. -1.
         -4   -1    0    0    0  501 -0.00000000000E+00 -0.00000000000E+00 -0.36293403523E+01  0.36293403523E+01  0.00000000000E+00 0.  1.
         23    2    1    2    0    0  0.17189514137E+02 -0.95591953349E+01  0.82196306154E+03  0.82757698550E+03  0.94199441538E+02 0.  0.
         11    1    3    3    0    0  0.12802443437E+02  0.42162805523E+02  0.40784194576E+03  0.41021537934E+03  0.00000000000E+00 0. -1.
        -11    1    3    3    0    0  0.43870706999E+01 -0.51722000858E+02  0.41412111577E+03  0.41736160615E+03  0.00000000000E+00 0.  1.
         22    1    1    2    0    0 -0.17189514137E+02  0.95591953349E+01  0.11678091271E+03  0.11842566945E+03  0.00000000000E+00 0.  1.
<mgrwt>
<rscale>  0 0.64703819E+02</rscale>
<asrwt>0</asrwt>
<pdfrwt beam="1">  1        4 0.14498031E+00 0.96230933E+02</pdfrwt>
<pdfrwt beam="2">  1       -4 0.55836081E-03 0.96230933E+02</pdfrwt>
<totfact> 0.37019727E+03</totfact>
</mgrwt>
</event>
<event>
 6    1  0.2866116E-002  0.9659325E+02  0.7546771E-02  0.1353408E+00
          2   -1    0    0  501    0  0.00000000000E+00  0.00000000000E+00  0.13462138577E+03  0.13462138577E+03  0.00000000000E+00 0.  1.
         -2   -1    0    0    0  501 -0.00000000000E+00 -0.00000000000E+00 -0.33647298269E+02  0.33647298269E+02  0.00000000000E+00 0. -1.
         23    2    1    2    0    0  0.61241223873E+01  0.29189714588E+02  0.99095800166E+02  0.13838436916E+03  0.91873345996E+02 0.  0.
         11    1    3    3    0    0 -0.78052974135E+01  0.38736258302E+02  0.17168826463E+01  0.39552093004E+02  0.00000000000E+00 0. -1.
        -11    1    3    3    0    0  0.13929419801E+02 -0.95465437137E+01  0.97378917520E+02  0.98832276156E+02  0.00000000000E+00 0.  1.
         22    1    1    2    0    0 -0.61241223873E+01 -0.29189714588E+02  0.18782873400E+01  0.29884314884E+02  0.00000000000E+00 0. -1.
<mgrwt>
<rscale>  0 0.72003902E+02</rscale>
<asrwt>0</asrwt>
<pdfrwt beam="1">  1        2 0.20710982E-01 0.96593250E+02</pdfrwt>
<pdfrwt beam="2">  1       -2 0.51765075E-02 0.96593250E+02</pdfrwt>
<totfact> 0.43427897E+04</totfact>
</mgrwt>
</event>
<event>
 6    1  0.2866116E-002  0.8799928E+02  0.7546771E-02  0.1436656E+00
         -1   -1    0    0    0  501 -0.00000000000E+00  0.00000000000E+00  0.87250028561E+02  0.87250028561E+02  0.00000000000E+00 0.  1.
          1   -1    0    0  501    0  0.00000000000E+00 -0.00000000000E+00 -0.31327009657E+02  0.31327009657E+02  0.00000000000E+00 0. -1.
         23    2    1    2    0    0  0.10399846533E+02 -0.92496087866E+00  0.34081997704E+02  0.94368722134E+02  0.87377690454E+02 0.  0.
         11    1    3    3    0    0  0.11295279440E+02  0.15302380215E+02  0.60462755598E+02  0.63383680805E+02  0.00000000000E+00 0.  1.
        -11    1    3    3    0    0 -0.89543290685E+00 -0.16227341094E+02 -0.26380757894E+02  0.30985041329E+02  0.00000000000E+00 0. -1.
         22    1    1    2    0    0 -0.10399846533E+02  0.92496087866E+00  0.21841021201E+02  0.24208316084E+02  0.00000000000E+00 0. -1.
<mgrwt>
<rscale>  0 0.51646846E+02</rscale>
<asrwt>0</asrwt>
<pdfrwt beam="1">  1        1 0.48195400E-02 0.87999279E+02</pdfrwt>
<pdfrwt beam="2">  1       -1 0.13423081E-01 0.87999279E+02</pdfrwt>
<totfact> 0.57183186E+04</totfact>
</mgrwt>
</event>
<event>
 6    1  0.2866116E-002  0.1013317E+03  0.7546771E-02  0.1397536E+00
          1   -1    0    0  501    0  0.00000000000E+00  0.00000000000E+00  0.51260005977E+02  0.51260005977E+02  0.00000000000E+00 0. -1.
         -1   -1    0    0    0  501 -0.00000000000E+00 -0.00000000000E+00 -0.64895382777E+02  0.64895382777E+02  0.00000000000E+00 0.  1.
         23    2    1    2    0    0  0.43080925676E+01  0.11749546907E+02 -0.60294533626E+01  0.10151088175E+03  0.10055592122E+03 0.  0.
         11    1    3    3    0    0  0.75876296233E+01 -0.43664737428E+02 -0.11338006652E+02  0.45746385789E+02  0.00000000000E+00 0.  1.
        -11    1    3    3    0    0 -0.32795370557E+01  0.55414284334E+02  0.53085532895E+01  0.55764495959E+02  0.00000000000E+00 0. -1.
         22    1    1    2    0    0 -0.43080925676E+01 -0.11749546907E+02 -0.76059234373E+01  0.14644507005E+02  0.00000000000E+00 0.  1.
<mgrwt>
<rscale>  0 0.60070579E+02</rscale>
<asrwt>0</asrwt>
<pdfrwt beam="1">  1        1 0.78861547E-02 0.10133166E+03</pdfrwt>
<pdfrwt beam="2">  1       -1 0.99839051E-02 0.10133166E+03</pdfrwt>
<totfact> 0.47331794E+04</totfact>
</mgrwt>
</event>
<event>
 6    1  0.2866116E-002  0.9083304E+02  0.7546771E-02  0.1417317E+00
          1   -1    0    0  501    0  0.00000000000E+00  0.00000000000E+00  0.80050030495E+02  0.80050030495E+02  0.00000000000E+00 0. -1.
         -1   -1    0    0    0  501 -0.00000000000E+00 -0.00000000000E+00 -0.47313385628E+02  0.47313385628E+02  0.00000000000E+00 0.  1.
         23    2    1    2    0    0  0.90620159603E+01  0.89617284025E+01  0.51699614280E+02  0.10451550772E+03  0.89934467968E+02 0.  0.
         13    1    3    3    0    0 -0.16997721452E+02  0.21243574861E+00  0.69643451192E+02  0.71688060076E+02  0.00000000000E+00 0. -1.
        -13    1    3    3    0    0  0.26059737413E+02  0.87492926539E+01 -0.17943836911E+02  0.32827447648E+02  0.00000000000E+00 0.  1.
         22    1    1    2    0    0 -0.90620159603E+01 -0.89617284025E+01 -0.18962969414E+02  0.22847908399E+02  0.00000000000E+00 0.  1.
<mgrwt>
<rscale>  0 0.55592611E+02</rscale>
<asrwt>0</asrwt>
<pdfrwt beam="1">  1        1 0.12315389E-01 0.90833040E+02</pdfrwt>
<pdfrwt beam="2">  1       -1 0.72789824E-02 0.90833040E+02</pdfrwt>
<totfact> 0.41726593E+04</totfact>
</mgrwt>
</event>
<event>
 6    1  0.2866116E-002  0.1422108E+03  0.7546771E-02  0.1223405E+00
          2   -1    0    0  501    0  0.00000000000E+00  0.00000000000E+00  0.53783388474E+03  0.53783388474E+03  0.00000000000E+00 0. -1.
         -2   -1    0    0    0  501 -0.00000000000E+00 -0.00000000000E+00 -0.55998068730E+02  0.55998068730E+02  0.00000000000E+00 0.  1.
         23    2    1    2    0    0 -0.10803892774E+03  0.22881403416E+00  0.46276402389E+03  0.48412235719E+03  0.92474064777E+02 0.  0.
         13    1    3    3    0    0 -0.11275085969E+03 -0.22773803980E+02  0.33446105315E+03  0.35368856156E+03  0.00000000000E+00 0.  1.
        -13    1    3    3    0    0  0.47119319567E+01  0.23002618015E+02  0.12830297075E+03  0.13043379562E+03  0.00000000000E+00 0. -1.
         22    1    1    2    0    0  0.10803892774E+03 -0.22881403416E+00  0.19071792119E+02  0.10970959629E+03  0.00000000000E+00 0.  1.
<mgrwt>
<rscale>  0 0.13276842E+03</rscale>
<asrwt>0</asrwt>
<pdfrwt beam="1">  1        2 0.82743671E-01 0.14221081E+03</pdfrwt>
<pdfrwt beam="2">  1       -2 0.86150879E-02 0.14221081E+03</pdfrwt>
<totfact> 0.46683874E+03</totfact>
</mgrwt>
</event>
<event>
 6    1  0.2866116E-002  0.1032126E+03  0.7546771E-02  0.1320381E+00
          2   -1    0    0  501    0  0.00000000000E+00  0.00000000000E+00  0.11216555085E+03  0.11216555085E+03  0.00000000000E+00 0.  1.
         -2   -1    0    0    0  501 -0.00000000000E+00 -0.00000000000E+00 -0.48505892908E+02  0.48505892908E+02  0.00000000000E+00 0. -1.
         23    2    1    2    0    0  0.38728935735E+02  0.19689145683E+02  0.52582729759E+02  0.11583517207E+03  0.93622917590E+02 0.  0.
         13    1    3    3    0    0  0.62309303503E+02  0.13739768098E+02  0.62735469361E+02  0.89481672125E+02  0.00000000000E+00 0.  1.
        -13    1    3    3    0    0 -0.23580367768E+02  0.59493775849E+01 -0.10152739602E+02  0.26353499941E+02  0.00000000000E+00 0. -1.
         22    1    1    2    0    0 -0.38728935735E+02 -0.19689145683E+02  0.11076928179E+02  0.44836271687E+02  0.00000000000E+00 0. -1.
<mgrwt>
<rscale>  0 0.83135808E+02</rscale>
<asrwt>0</asrwt>
<pdfrwt beam="1">  1        2 0.17256238E-01 0.10321261E+03</pdfrwt>
<pdfrwt beam="2">  1       -2 0.74624451E-02 0.10321261E+03</pdfrwt>
<totfact> 0.30991305E+04</totfact>
</mgrwt>
</event>
<event>
 6    1  0.2866116E-002  0.1051091E+03  0.7546771E-02  0.1305559E+00
          2   -1    0    0  501    0  0.00000000000E+00  0.00000000000E+00  0.91743480873E+03  0.91743480873E+03  0.00000000000E+00 0.  1.
         -2   -1    0    0    0  501 -0.00000000000E+00 -0.00000000000E+00 -0.83173181018E+01  0.83173181018E+01  0.00000000000E+00 0. -1.
         23    2    1    2    0    0  0.50956493546E+02 -0.17157397654E+02  0.76006621926E+03  0.76729954078E+03  0.90316040095E+02 0.  0.
         11    1    3    3    0    0  0.46647082925E+02 -0.34626413793E+02  0.24032341336E+03  0.24724538800E+03  0.00000000000E+00 0. -1.
        -11    1    3    3    0    0  0.43094106209E+01  0.17469016139E+02  0.51974280590E+03  0.52005415278E+03  0.00000000000E+00 0.  1.
         22    1    1    2    0    0 -0.50956493546E+02  0.17157397654E+02  0.14905127137E+03  0.15845258605E+03  0.00000000000E+00 0. -1.
<mgrwt>
<rscale>  0 0.88891493E+02</rscale>
<asrwt>0</asrwt>
<pdfrwt beam="1">  1        2 0.14114374E+00 0.10510912E+03</pdfrwt>
<pdfrwt beam="2">  1       -2 0.12795881E-02 0.10510912E+03</pdfrwt>
<totfact> 0.40429214E+04</totfact>
</mgrwt>
</event>
<event>
 6    1  0.2866116E-002  0.9384415E+02  0.7546771E-02  0.1404527E+00
         -4   -1    0    0    0  501 -0.00000000000E+00  0.00000000000E+00  0.14559128426E+02  0.14559128426E+02  0.00000000000E+00 0.  1.
          4   -1    0    0  501    0  0.00000000000E+00 -0.00000000000E+00 -0.20131253927E+03  0.20131253927E+03  0.00000000000E+00 0. -1.
         23    2    1    2    0    0 -0.13210571787E+02 -0.49471326898E+01 -0.16759352689E+03  0.19207892759E+03  0.92777857480E+02 0.  0.
         11    1    3    3    0    0  0.38845631481E+02 -0.68089375245E+00 -0.49309813601E+02  0.62776623188E+02  0.00000000000E+00 0.  1.
        -11    1    3    3    0    0 -0.52056203269E+02 -0.42662389374E+01 -0.11828371329E+03  0.12930230440E+03  0.00000000000E+00 0. -1.
         22    1    1    2    0    0  0.13210571787E+02  0.49471326898E+01 -0.19159883950E+02  0.23792740106E+02  0.00000000000E+00 0.  1.
<mgrwt>
<rscale>  0 0.58433273E+02</rscale>
<asrwt>0</asrwt>
<pdfrwt beam="1">  1        4 0.30971156E-01 0.93844148E+02</pdfrwt>
<pdfrwt beam="2">  1       -4 0.22398662E-02 0.93844148E+02</pdfrwt>
<totfact> 0.12489078E+04</totfact>
</mgrwt>
</event>
<event>
 6    1  0.2866116E-002  0.1561681E+03  0.7546771E-02  0.1202267E+00
         -2   -1    0    0    0  501 -0.00000000000E+00  0.00000000000E+00  0.56922646360E+03  0.56922646360E+03  0.00000000000E+00 0.  1.
          2   -1    0    0  501    0  0.00000000000E+00 -0.00000000000E+00 -0.36860677220E+02  0.36860677220E+02  0.00000000000E+00 0. -1.
         23    2    1    2    0    0  0.60960528746E+02 -0.11238231487E+03  0.23223954547E+03  0.27986370322E+03  0.89680071010E+02 0.  0.
         11    1    3    3    0    0 -0.74955156911E+01 -0.40814589677E+02  0.20884727727E+02  0.46456273400E+02  0.00000000000E+00 0.  1.
        -11    1    3    3    0    0  0.68456044437E+02 -0.71567725193E+02  0.21135481775E+03  0.23340742982E+03  0.00000000000E+00 0. -1.
         22    1    1    2    0    0 -0.60960528746E+02  0.11238231487E+03  0.30012624091E+03  0.32622343760E+03  0.00000000000E+00 0.  1.
<mgrwt>
<rscale>  0 0.14854932E+03</rscale>
<asrwt>0</asrwt>
<pdfrwt beam="1">  1        2 0.56708738E-02 0.15616813E+03</pdfrwt>
<pdfrwt beam="2">  1       -2 0.87573296E-01 0.15616813E+03</pdfrwt>
<totfact> 0.15062593E+03</totfact>
</mgrwt>
</event>
<event>
 6    1  0.2866116E-002  0.9266231E+02  0.7546771E-02  0.1389481E+00
          2   -1    0    0  501    0  0.00000000000E+00  0.00000000000E+00  0.10732446421E+02  0.10732446421E+02  0.00000000000E+00 0.  1.
         -2   -1    0    0    0  501 -0.00000000000E+00 -0.00000000000E+00 -0.30502075260E+03  0.30502075260E+03  0.00000000000E+00 0. -1.
         23    2    1    2    0    0  0.11352007981E+02 -0.14753073433E+02 -0.21167160268E+03  0.23106529577E+03  0.90773246414E+02 0.  0.
         11    1    3    3    0    0 -0.10564642606E+02 -0.19820163965E+02 -0.47909501759E+01  0.22965273275E+02  0.00000000000E+00 0.  1.
        -11    1    3    3    0    0  0.21916650588E+02  0.50670905322E+01 -0.20688065251E+03  0.20810002249E+03  0.00000000000E+00 0. -1.
         22    1    1    2    0    0 -0.11352007981E+02  0.14753073433E+02 -0.82616703491E+02  0.84687903248E+02  0.00000000000E+00 0.  1.
<mgrwt>
<rscale>  0 0.62035970E+02</rscale>
<asrwt>0</asrwt>
<pdfrwt beam="1">  1        2 0.16511453E-02 0.92662309E+02</pdfrwt>
<pdfrwt beam="2">  1       -2 0.46926278E-01 0.92662309E+02</pdfrwt>
<totfact> 0.27266576E+04</totfact>
</mgrwt>
</event>
<event>
 6    1  0.2866116E-002  0.9522770E+02  0.7546771E-02  0.1351346E+00
          2   -1    0    0  501    0  0.00000000000E+00  0.00000000000E+00  0.18433098374E+04  0.18433098374E+04  0.00000000000E+00 0. -1.
         -2   -1    0    0    0  501 -0.00000000000E+00 -0.00000000000E+00 -0.28673151489E+01  0.28673151489E+01  0.00000000000E+00 0.  1.
         23    2    1    2    0    0 -0.32073538526E+02 -0.32474420393E+01  0.16699907662E+04  0.16727036419E+04  0.89605003788E+02 0.  0.
         13    1    3    3    0    0 -0.34136272472E+02 -0.39681491800E+02  0.12616905108E+04  0.12627758514E+04  0.00000000000E+00 0. -1.
        -13    1    3    3    0    0  0.20627339460E+01  0.36434049761E+02  0.40830025543E+03  0.40992779051E+03  0.00000000000E+00 0.  1.
         22    1    1    2    0    0  0.32073538526E+02  0.32474420393E+01  0.17045175605E+03  0.17347351064E+03  0.00000000000E+00 0.  1.
<mgrwt>
<rscale>  0 0.72637832E+02</rscale>
<asrwt>0</asrwt>
<pdfrwt beam="1">  1        2 0.28358518E+00 0.95227698E+02</pdfrwt>
<pdfrwt beam="2">  1       -2 0.44112688E-03 0.95227698E+02</pdfrwt>
<totfact> 0.57732777E+04</totfact>
</mgrwt>
</event>
<event>
 6    1  0.2866116E-002  0.1025643E+03  0.7546771E-02  0.1383994E+00
          2   -1    0    0  501    0  0.00000000000E+00  0.00000000000E+00  0.18060708245E+03  0.18060708245E+03  0.00000000000E+00 0. -1.
         -2   -1    0    0    0  501 -0.00000000000E+00 -0.00000000000E+00 -0.20436830999E+02  0.20436830999E+02  0.00000000000E+00 0.  1.
         23    2    1    2    0    0  0.10923377207E+02  0.10278758901E+02  0.15353808667E+03  0.18464395418E+03  0.10146168096E+03 0.  0.
         11    1    3    3    0    0 -0.42433363958E+02  0.91713823415E+01  0.39319845937E+02  0.58572646477E+02  0.00000000000E+00 0.  1.
        -11    1    3    3    0    0  0.53356741165E+02  0.11073765598E+01  0.11421824073E+03  0.12607130771E+03  0.00000000000E+00 0. -1.
         22    1    1    2    0    0 -0.10923377207E+02 -0.10278758901E+02  0.66321647776E+01  0.16399959262E+02  0.00000000000E+00 0. -1.
<mgrwt>
<rscale>  0 0.63425461E+02</rscale>
<asrwt>0</asrwt>
<pdfrwt beam="1">  1        2 0.27785704E-01 0.10256435E+03</pdfrwt>
<pdfrwt beam="2">  1       -2 0.31441280E-02 0.10256435E+03</pdfrwt>
<totfact> 0.66154669E+04</totfact>
</mgrwt>
</event>
<event>
 6    1  0.2866116E-002  0.9279463E+02  0.7546771E-02  0.1416056E+00
         -2   -1    0    0    0  501 -0.00000000000E+00  0.00000000000E+00  0.25233753061E+03  0.25233753061E+03  0.00000000000E+00 0.  1.
          2   -1    0    0  501    0  0.00000000000E+00 -0.00000000000E+00 -0.11645242056E+02  0.11645242056E+02  0.00000000000E+00 0. -1.
         23    2    1    2    0    0 -0.67119383112E+01  0.10174486597E+02  0.18495163495E+03  0.20692498830E+03  0.91990614826E+02 0.  0.
         11    1    3    3    0    0  0.51033515651E+01  0.22624547975E+02  0.21202469047E+01  0.23289693325E+02  0.00000000000E+00 0. -1.
        -11    1    3    3    0    0 -0.11815289876E+02 -0.12450061378E+02  0.18283138805E+03  0.18363529497E+03  0.00000000000E+00 0.  1.
         22    1    1    2    0    0  0.67119383112E+01 -0.10174486597E+02  0.55740653604E+02  0.57057784373E+02  0.00000000000E+00 0. -1.
<mgrwt>
<rscale>  0 0.55864206E+02</rscale>
<asrwt>0</asrwt>
<pdfrwt beam="1">  1        2 0.17915759E-02 0.92794631E+02</pdfrwt>
<pdfrwt beam="2">  1       -2 0.38821155E-01 0.92794631E+02</pdfrwt>
<totfact> 0.35015314E+04</totfact>
</mgrwt>
</event>
<event>
 6    1  0.2866116E-002  0.1189627E+03  0.7546771E-02  0.1268792E+00
         -4   -1    0    0    0  501 -0.00000000000E+00  0.00000000000E+00  0.45084252091E+03  0.45084252091E+03  0.00000000000E+00 0.  1.
          4   -1    0    0  501    0  0.00000000000E+00 -0.00000000000E+00 -0.14879032689E+03  0.14879032689E+03  0.00000000000E+00 0. -1.
         23    2    1    2    0    0  0.66741441808E+02  0.32139808788E+02 -0.12127012795E+03  0.16987806231E+03  0.93084503324E+02 0.  0.
         11    1    3    3    0    0  0.85512988485E+02  0.59894232795E+01 -0.77624204056E+02  0.11564541256E+03  0.00000000000E+00 0. -1.
        -11    1    3    3    0    0 -0.18771546676E+02  0.26150385508E+02 -0.43645923894E+02  0.54232649755E+02  0.00000000000E+00 0.  1.
         22    1    1    2    0    0 -0.66741441808E+02 -0.32139808788E+02  0.42332232197E+03  0.42975478548E+03  0.00000000000E+00 0.  1.
<mgrwt>
<rscale>  0 0.10567656E+03</rscale>
<asrwt>0</asrwt>
<pdfrwt beam="1">  1        4 0.22890820E-01 0.11896265E+03</pdfrwt>
<pdfrwt beam="2">  1       -4 0.69360387E-01 0.11896265E+03</pdfrwt>
<totfact> 0.56609258E+01</totfact>
</mgrwt>
</event>
<event>
 6    1  0.2866116E-002  0.9325155E+02  0.7546771E-02  0.1405898E+00
          2   -1    0    0  501    0  0.00000000000E+00  0.00000000000E+00  0.61128996418E+02  0.61128996418E+02  0.00000000000E+00 0. -1.
         -2   -1    0    0    0  501 -0.00000000000E+00 -0.00000000000E+00 -0.50024767747E+02  0.50024767747E+02  0.00000000000E+00 0.  1.
         23    2    1    2    0    0 -0.21290642324E+01 -0.13908716228E+02  0.18782604223E+02  0.95124330214E+02  0.92183874271E+02 0.  0.
         11    1    3    3    0    0  0.29362646964E+02 -0.26635034549E+02 -0.19302938660E+02  0.44093010138E+02  0.00000000000E+00 0.  1.
        -11    1    3    3    0    0 -0.31491711196E+02  0.12726318320E+02  0.38085542883E+02  0.51031320076E+02  0.00000000000E+00 0. -1.
         22    1    1    2    0    0  0.21290642324E+01  0.13908716228E+02 -0.76783755525E+01  0.16029433950E+02  0.00000000000E+00 0. -1.
<mgrwt>
<rscale>  0 0.58119406E+02</rscale>
<asrwt>0</asrwt>
<pdfrwt beam="1">  1        2 0.94044610E-02 0.93251552E+02</pdfrwt>
<pdfrwt beam="2">  1       -2 0.76961181E-02 0.93251552E+02</pdfrwt>
<totfact> 0.59783998E+04</totfact>
</mgrwt>
</event>
<event>
 6    1  0.2866116E-002  0.9422494E+02  0.7546771E-02  0.1389465E+00
          2   -1    0    0  501    0  0.00000000000E+00  0.00000000000E+00  0.33494421796E+03  0.33494421796E+03  0.00000000000E+00 0. -1.
         -2   -1    0    0    0  501 -0.00000000000E+00 -0.00000000000E+00 -0.98799134132E+01  0.98799134132E+01  0.00000000000E+00 0.  1.
         23    2    1    2    0    0  0.10706089825E+02 -0.14106102235E+02  0.29746790317E+03  0.31203444018E+03  0.92545858701E+02 0.  0.
         11    1    3    3    0    0 -0.35674531695E+01 -0.18739116572E+02  0.29637480209E+03  0.29698805452E+03  0.00000000000E+00 0. -1.
        -11    1    3    3    0    0  0.14273542994E+02  0.46330143366E+01  0.10931010763E+01  0.15046385660E+02  0.00000000000E+00 0.  1.
         22    1    1    2    0    0 -0.10706089825E+02  0.14106102235E+02  0.27596401381E+02  0.32789691197E+02  0.00000000000E+00 0.  1.
<mgrwt>
<rscale>  0 0.62040005E+02</rscale>
<asrwt>0</asrwt>
<pdfrwt beam="1">  1        2 0.51529871E-01 0.94224935E+02</pdfrwt>
<pdfrwt beam="2">  1       -2 0.15199869E-02 0.94224935E+02</pdfrwt>
<totfact> 0.97120861E+04</totfact>
</mgrwt>
</event>
<event>
 6    1  0.2866116E-002  0.1199101E+03  0.7546771E-02  0.1264874E+00
         -1   -1    0    0    0  501 -0.00000000000E+00  0.00000000000E+00  0.10934516848E+03  0.10934516848E+03  0.00000000000E+00 0. -1.
          1   -1    0    0  501    0  0.00000000000E+00 -0.00000000000E+00 -0.10979037448E+03  0.10979037448E+03  0.00000000000E+00 0.  1.
         23    2    1    2    0    0  0.11415356199E+02  0.77220701564E+02  0.45853313952E+02  0.12837817379E+03  0.91022425803E+02 0.  0.
         11    1    3    3    0    0 -0.27110818613E+02  0.36486637219E+02 -0.12813945761E+02  0.47227834880E+02  0.00000000000E+00 0.  1.
        -11    1    3    3    0    0  0.38526174813E+02  0.40734064345E+02  0.58667259713E+02  0.81150338914E+02  0.00000000000E+00 0. -1.
         22    1    1    2    0    0 -0.11415356199E+02 -0.77220701564E+02 -0.46298519952E+02  0.90757369160E+02  0.00000000000E+00 0. -1.
<mgrwt>
<rscale>  0 0.10770820E+03</rscale>
<asrwt>0</asrwt>
<pdfrwt beam="1">  1        1 0.16890827E-01 0.11991009E+03</pdfrwt>
<pdfrwt beam="2">  1       -1 0.16822334E-01 0.11991009E+03</pdfrwt>
<totfact> 0.79648470E+03</totfact>
</mgrwt>
</event>
<event>
 6    1  0.2866116E-002  0.1824066E+03  0.7546771E-02  0.1171580E+00
         -1   -1    0    0    0  501 -0.00000000000E+00  0.00000000000E+00  0.28978380302E+02  0.28978380302E+02  0.00000000000E+00 0.  1.
          1   -1    0    0  501    0  0.00000000000E+00 -0.00000000000E+00 -0.10183803202E+04  0.10183803202E+04  0.00000000000E+00 0. -1.
         23    2    1    2    0    0  0.15123897485E+03 -0.47913672923E+02 -0.46548239543E+03  0.49994602560E+03  0.90017889857E+02 0.  0.
         11    1    3    3    0    0  0.43908973078E+02  0.16315754831E+02 -0.21410202177E+03  0.21916632382E+03  0.00000000000E+00 0. -1.
        -11    1    3    3    0    0  0.10733000177E+03 -0.64229427754E+02 -0.25138037366E+03  0.28077970178E+03  0.00000000000E+00 0.  1.
         22    1    1    2    0    0 -0.15123897485E+03  0.47913672923E+02 -0.52391954449E+03  0.54741267492E+03  0.00000000000E+00 0. -1.
<mgrwt>
<rscale>  0 0.17615239E+03</rscale>
<asrwt>0</asrwt>
<pdfrwt beam="1">  1        1 0.15667390E+00 0.18240660E+03</pdfrwt>
<pdfrwt beam="2">  1       -1 0.44582124E-02 0.18240660E+03</pdfrwt>
<totfact> 0.32109553E+03</totfact>
</mgrwt>
</event>
<event>
 6    1  0.2866116E-002  0.1062303E+03  0.7546771E-02  0.1400433E+00
         -1   -1    0    0    0  501 -0.00000000000E+00  0.00000000000E+00  0.38869691024E+01  0.38869691024E+01  0.00000000000E+00 0.  1.
          1   -1    0    0  501    0  0.00000000000E+00 -0.00000000000E+00 -0.93795825522E+03  0.93795825522E+03  0.00000000000E+00 0. -1.
         23    2    1    2    0    0 -0.17349029362E+01  0.10227942680E+02 -0.89949559941E+03  0.90574676437E+03  0.10572250048E+03 0.  0.
         11    1    3    3    0    0  0.96740312580E+01 -0.40222782837E+02 -0.19422685356E+03  0.19858381048E+03  0.00000000000E+00 0.  1.
        -11    1    3    3    0    0 -0.11408934194E+02  0.50450725517E+02 -0.70526874585E+03  0.70716295389E+03  0.00000000000E+00 0. -1.
         22    1    1    2    0    0  0.17349029362E+01 -0.10227942680E+02 -0.34575686706E+02  0.36098459952E+02  0.00000000000E+00 0.  1.
<mgrwt>
<rscale>  0 0.59384507E+02</rscale>
<asrwt>0</asrwt>
<pdfrwt beam="1">  1        1 0.14430108E+00 0.10623026E+03</pdfrwt>
<pdfrwt beam="2">  1       -1 0.59799604E-03 0.10623026E+03</pdfrwt>
<totfact> 0.64111545E+04</totfact>
</mgrwt>
</event>
<event>
 6    1  0.2866116E-002  0.9457196E+02  0.7546771E-02  0.1382514E+00
         -1   -1    0    0    0  501 -0.00000000000E+00  0.00000000000E+00  0.41557785979E+02  0.41557785979E+02  0.00000000000E+00 0.  1.
          1   -1    0    0  501    0  0.00000000000E+00 -0.00000000000E+00 -0.10357033793E+03  0.10357033793E+03  0.00000000000E+00 0. -1.
         23    2    1    2    0    0 -0.15637883036E+02  0.11811673849E+02 -0.75772018251E+02  0.12118272898E+03  0.92519165740E+02 0.  0.
         13    1    3    3    0    0 -0.42427352757E+02  0.18178633523E+02 -0.80930456915E+02  0.93168030113E+02  0.00000000000E+00 0. -1.
        -13    1    3    3    0    0  0.26789469721E+02 -0.63669596736E+01  0.51584386636E+01  0.28014698871E+02  0.00000000000E+00 0.  1.
         22    1    1    2    0    0  0.15637883036E+02 -0.11811673849E+02  0.13759466303E+02  0.23945394921E+02  0.00000000000E+00 0.  1.
<mgrwt>
<rscale>  0 0.63807471E+02</rscale>
<asrwt>0</asrwt>
<pdfrwt beam="1">  1        1 0.15933898E-01 0.94571957E+02</pdfrwt>
<pdfrwt beam="2">  1       -1 0.63935056E-02 0.94571957E+02</pdfrwt>
<totfact> 0.36513349E+04</totfact>
</mgrwt>
</event>
<event>
 6    1  0.2866116E-002  0.9484011E+02  0.7546771E-02  0.1364031E+00
          2   -1    0    0  501    0  0.00000000000E+00  0.00000000000E+00  0.15144560686E+04  0.15144560686E+04  0.00000000000E+00 0. -1.
         -2   -1    0    0    0  501 -0.00000000000E+00 -0.00000000000E+00 -0.28122647945E+01  0.28122647945E+01  0.00000000000E+00 0.  1.
         23    2    1    2    0    0 -0.26061641241E+02 -0.38809782291E+01  0.13638938929E+04  0.13671873309E+04  0.91106396896E+02 0.  0.
         13    1    3    3    0    0 -0.54457925260E+02  0.16853893510E+02  0.99141703822E+03  0.99305461231E+03  0.00000000000E+00 0. -1.
        -13    1    3    3    0    0  0.28396284019E+02 -0.20734871739E+02  0.37247685464E+03  0.37413271855E+03  0.00000000000E+00 0.  1.
         22    1    1    2    0    0  0.26061641241E+02  0.38809782291E+01  0.14774991090E+03  0.15008100248E+03  0.00000000000E+00 0. -1.
<mgrwt>
<rscale>  0 0.68854952E+02</rscale>
<asrwt>0</asrwt>
<pdfrwt beam="1">  1        2 0.23299259E+00 0.94840111E+02</pdfrwt>
<pdfrwt beam="2">  1       -2 0.43265733E-03 0.94840111E+02</pdfrwt>
<totfact> 0.86927513E+04</totfact>
</mgrwt>
</event>
<event>
 6    1  0.2866116E-002  0.1196038E+03  0.7546771E-02  0.1362022E+00
          1   -1    0    0  501    0  0.00000000000E+00  0.00000000000E+00  0.59776828789E+02  0.59776828789E+02  0.00000000000E+00 0. -1.
         -1   -1    0    0    0  501 -0.00000000000E+00 -0.00000000000E+00 -0.74193820906E+02  0.74193820906E+02  0.00000000000E+00 0.  1.
         23    2    1    2    0    0  0.12504820177E+01 -0.13528646569E+02 -0.12697014514E+02  0.12027589500E+03  0.11882966278E+03 0.  0.
         13    1    3    3    0    0  0.19203392506E+02  0.67535474349E+01  0.48910140184E+02  0.52977188482E+02  0.00000000000E+00 0. -1.
        -13    1    3    3    0    0 -0.17952910488E+02 -0.20282194004E+02 -0.61607154698E+02  0.67298706515E+02  0.00000000000E+00 0.  1.
         22    1    1    2    0    0 -0.12504820177E+01  0.13528646569E+02 -0.17199776033E+01  0.13694754697E+02  0.00000000000E+00 0.  1.
<mgrwt>
<rscale>  0 0.69435929E+02</rscale>
<asrwt>0</asrwt>
<pdfrwt beam="1">  1        1 0.91964352E-02 0.11960383E+03</pdfrwt>
<pdfrwt beam="2">  1       -1 0.11414434E-01 0.11960383E+03</pdfrwt>
<totfact> 0.32137582E+04</totfact>
</mgrwt>
</event>
<event>
 6    1  0.2866116E-002  0.1048202E+03  0.7546771E-02  0.1314643E+00
         -2   -1    0    0    0  501 -0.00000000000E+00  0.00000000000E+00  0.60796324216E+01  0.60796324216E+01  0.00000000000E+00 0.  1.
          2   -1    0    0  501    0  0.00000000000E+00 -0.00000000000E+00 -0.20631543559E+04  0.20631543559E+04  0.00000000000E+00 0. -1.
         23    2    1    2    0    0 -0.45962052528E+02  0.10691311527E+01 -0.19486200200E+04  0.19514372311E+04  0.94199952766E+02 0.  0.
         11    1    3    3    0    0 -0.22552065078E+02  0.23118098998E+02 -0.17445447182E+04  0.17448436365E+04  0.00000000000E+00 0. -1.
        -11    1    3    3    0    0 -0.23409987450E+02 -0.22048967846E+02 -0.20407530186E+03  0.20659359459E+03  0.00000000000E+00 0.  1.
         22    1    1    2    0    0  0.45962052528E+02 -0.10691311527E+01 -0.10845470341E+03  0.11779675720E+03  0.00000000000E+00 0.  1.
<mgrwt>
<rscale>  0 0.85302765E+02</rscale>
<asrwt>0</asrwt>
<pdfrwt beam="1">  1        2 0.31740917E+00 0.10482025E+03</pdfrwt>
<pdfrwt beam="2">  1       -2 0.93532569E-03 0.10482025E+03</pdfrwt>
<totfact> 0.15605435E+04</totfact>
</mgrwt>
</event>
<event>
 6    1  0.2866116E-002  0.9287512E+02  0.7546771E-02  0.1396511E+00
          2   -1    0    0  501    0  0.00000000000E+00  0.00000000000E+00  0.13290332151E+03  0.13290332151E+03  0.00000000000E+00 0. -1.
         -2   -1    0    0    0  501 -0.00000000000E+00 -0.00000000000E+00 -0.22554542646E+02  0.22554542646E+02  0.00000000000E+00 0.  1.
         23    2    1    2    0    0 -0.14310537068E+02 -0.82546272319E+01  0.91177551665E+02  0.13015042860E+03  0.91393970241E+02 0.  0.
         11    1    3    3    0    0  0.35466139022E+02  0.11918831812E+02  0.25361422300E+02  0.45200744573E+02  0.00000000000E+00 0.  1.
        -11    1    3    3    0    0 -0.49776676091E+02 -0.20173459044E+02  0.65816129365E+02  0.84949684031E+02  0.00000000000E+00 0. -1.
         22    1    1    2    0    0  0.14310537068E+02  0.82546272319E+01  0.19171227201E+02  0.25307435554E+02  0.00000000000E+00 0.  1.
<mgrwt>
<rscale>  0 0.60315790E+02</rscale>
<asrwt>0</asrwt>
<pdfrwt beam="1">  1        2 0.20446664E-01 0.92875121E+02</pdfrwt>
<pdfrwt beam="2">  1       -2 0.34699297E-02 0.92875121E+02</pdfrwt>
<totfact> 0.79078346E+04</totfact>
</mgrwt>
</event>
<event>
 6    1  0.2866116E-002  0.9254503E+02  0.7546771E-02  0.1419992E+00
          2   -1    0    0  501    0  0.00000000000E+00  0.00000000000E+00  0.41006743115E+03  0.41006743115E+03  0.00000000000E+00 0. -1.
         -2   -1    0    0    0  501 -0.00000000000E+00 -0.00000000000E+00 -0.72069182573E+01  0.72069182573E+01  0.00000000000E+00 0.  1.
         23    2    1    2    0    0  0.10347449130E+02  0.51627220110E+01  0.38522646591E+03  0.39618684090E+03  0.91819711734E+02 0.  0.
         11    1    3    3    0    0 -0.10144615728E+02  0.13432410183E+02  0.85812333377E+01  0.18893925934E+02  0.00000000000E+00 0.  1.
        -11    1    3    3    0    0  0.20492064858E+02 -0.82696881719E+01  0.37664523257E+03  0.37729291497E+03  0.00000000000E+00 0. -1.
         22    1    1    2    0    0 -0.10347449130E+02 -0.51627220110E+01  0.17634046986E+02  0.21087508510E+02  0.00000000000E+00 0. -1.
<mgrwt>
<rscale>  0 0.55022556E+02</rscale>
<asrwt>0</asrwt>
<pdfrwt beam="1">  1        2 0.63087279E-01 0.92545032E+02</pdfrwt>
<pdfrwt beam="2">  1       -2 0.11087570E-02 0.92545032E+02</pdfrwt>
<totfact> 0.12270170E+05</totfact>
</mgrwt>
</event>
<event>
 6    1  0.2866116E-002  0.9190537E+02  0.7546771E-02  0.1419736E+00
         -1   -1    0    0    0  501 -0.00000000000E+00  0.00000000000E+00  0.12157248010E+03  0.12157248010E+03  0.00000000000E+00 0.  1.
          1   -1    0    0  501    0  0.00000000000E+00 -0.00000000000E+00 -0.24061583040E+02  0.24061583040E+02  0.00000000000E+00 0. -1.
         23    2    1    2    0    0 -0.30528155011E+01  0.11453822605E+02  0.69521800770E+02  0.11523835216E+03  0.91137738022E+02 0.  0.
         11    1    3    3    0    0  0.88503093434E+01 -0.34473761095E+02  0.62218959443E+01  0.36131429098E+02  0.00000000000E+00 0. -1.
        -11    1    3    3    0    0 -0.11903124845E+02  0.45927583700E+02  0.63299904825E+02  0.79106923063E+02  0.00000000000E+00 0.  1.
         22    1    1    2    0    0  0.30528155011E+01 -0.11453822605E+02  0.27989096285E+02  0.30395710974E+02  0.00000000000E+00 0. -1.
<mgrwt>
<rscale>  0 0.55076834E+02</rscale>
<asrwt>0</asrwt>
<pdfrwt beam="1">  1        1 0.37017821E-02 0.91905370E+02</pdfrwt>
<pdfrwt beam="2">  1       -1 0.18703458E-01 0.91905370E+02</pdfrwt>
<totfact> 0.49124150E+04</totfact>
</mgrwt>
</event>
<event>
 6    1  0.2866116E-002  0.9055278E+02  0.7546771E-02  0.1405284E+00
         -4   -1    0    0    0  501 -0.00000000000E+00  0.00000000000E+00  0.34955204480E+02  0.34955204480E+02  0.00000000000E+00 0.  1.
          4   -1    0    0  501    0  0.00000000000E+00 -0.00000000000E+00 -0.83300552000E+02  0.83300552000E+02  0.00000000000E+00 0. -1.
         23    2    1    2    0    0 -0.15417238057E+02  0.17426968339E+01 -0.48533860791E+02  0.10273919247E+03  0.89213663772E+02 0.  0.
         13    1    3    3    0    0 -0.12570788575E+02  0.15984253986E+02 -0.72179636596E+02  0.74989472861E+02  0.00000000000E+00 0. -1.
        -13    1    3    3    0    0 -0.28464494816E+01 -0.14241557152E+02  0.23645775804E+02  0.27749719605E+02  0.00000000000E+00 0.  1.
         22    1    1    2    0    0  0.15417238057E+02 -0.17426968339E+01  0.18851327187E+00  0.15516564014E+02  0.00000000000E+00 0.  1.
<mgrwt>
<rscale>  0 0.58259562E+02</rscale>
<asrwt>0</asrwt>
<pdfrwt beam="1">  1        4 0.12815470E-01 0.90552780E+02</pdfrwt>
<pdfrwt beam="2">  1       -4 0.53777238E-02 0.90552780E+02</pdfrwt>
<totfact> 0.15175290E+04</totfact>
</mgrwt>
</event>
<event>
 6    1  0.2866116E-002  0.9023523E+02  0.7546771E-02  0.1424503E+00
          4   -1    0    0  501    0  0.00000000000E+00  0.00000000000E+00  0.65496420587E+02  0.65496420587E+02  0.00000000000E+00 0. -1.
         -4   -1    0    0    0  501 -0.00000000000E+00 -0.00000000000E+00 -0.41760365512E+02  0.41760365512E+02  0.00000000000E+00 0.  1.
         23    2    1    2    0    0  0.77548229245E+01  0.86822298989E+01  0.28572490005E+02  0.94650855056E+02  0.89481164405E+02 0.  0.
         11    1    3    3    0    0 -0.32366185914E+02  0.20008817629E+02  0.35910273387E+02  0.52320842006E+02  0.00000000000E+00 0. -1.
        -11    1    3    3    0    0  0.40121008839E+02 -0.11326587730E+02 -0.73377833819E+01  0.42330013050E+02  0.00000000000E+00 0.  1.
         22    1    1    2    0    0 -0.77548229245E+01 -0.86822298989E+01 -0.48364349301E+01  0.12605931042E+02  0.00000000000E+00 0.  1.
<mgrwt>
<rscale>  0 0.54079403E+02</rscale>
<asrwt>0</asrwt>
<pdfrwt beam="1">  1        4 0.10076372E-01 0.90235232E+02</pdfrwt>
<pdfrwt beam="2">  1       -4 0.64246716E-02 0.90235232E+02</pdfrwt>
<totfact> 0.17084413E+04</totfact>
</mgrwt>
</event>
<event>
 6    1  0.2866116E-002  0.9257615E+02  0.7546771E-02  0.1401117E+00
          2   -1    0    0  501    0  0.00000000000E+00  0.00000000000E+00  0.37192741586E+02  0.37192741586E+02  0.00000000000E+00 0.  1.
         -2   -1    0    0    0  501 -0.00000000000E+00 -0.00000000000E+00 -0.78668282952E+02  0.78668282952E+02  0.00000000000E+00 0. -1.
         23    2    1    2    0    0 -0.14417382750E+02 -0.57074097579E+01 -0.33742795141E+02  0.98533854669E+02  0.91268334270E+02 0.  0.
         11    1    3    3    0    0  0.28504135504E+01 -0.47347690973E+02 -0.19131744360E+02  0.51146381496E+02  0.00000000000E+00 0. -1.
        -11    1    3    3    0    0 -0.17267796300E+02  0.41640281215E+02 -0.14611050781E+02  0.47387473172E+02  0.00000000000E+00 0.  1.
         22    1    1    2    0    0  0.14417382750E+02  0.57074097579E+01 -0.77327462252E+01  0.17327169870E+02  0.00000000000E+00 0.  1.
<mgrwt>
<rscale>  0 0.59224195E+02</rscale>
<asrwt>0</asrwt>
<pdfrwt beam="1">  1        2 0.57219603E-02 0.92576154E+02</pdfrwt>
<pdfrwt beam="2">  1       -2 0.12102813E-01 0.92576154E+02</pdfrwt>
<totfact> 0.55050093E+04</totfact>
</mgrwt>
</event>
<event>
 6    1  0.2866116E-002  0.9650119E+02  0.7546771E-02  0.1348232E+00
         -2   -1    0    0    0  501 -0.00000000000E+00  0.00000000000E+00  0.12467453526E+02  0.12467453526E+02  0.00000000000E+00 0.  1.
          2   -1    0    0  501    0  0.00000000000E+00 -0.00000000000E+00 -0.39758026150E+03  0.39758026150E+03  0.00000000000E+00 0. -1.
         23    2    1    2    0    0 -0.32402914114E+02  0.41630093382E+01 -0.34538257930E+03  0.35861066068E+03  0.90803085716E+02 0.  0.
         13    1    3    3    0    0 -0.66739973036E+01  0.37020771847E+02 -0.26858521121E+03  0.27120673935E+03  0.00000000000E+00 0. -1.
        -13    1    3    3    0    0 -0.25728916810E+02 -0.32857762509E+02 -0.76797368089E+02  0.87403921324E+02  0.00000000000E+00 0.  1.
         22    1    1    2    0    0  0.32402914114E+02 -0.41630093382E+01 -0.39730228671E+02  0.51437054349E+02  0.00000000000E+00 0. -1.
<mgrwt>
<rscale>  0 0.73609569E+02</rscale>
<asrwt>0</asrwt>
<pdfrwt beam="1">  1        2 0.61166200E-01 0.96501191E+02</pdfrwt>
<pdfrwt beam="2">  1       -2 0.19180696E-02 0.96501191E+02</pdfrwt>
<totfact> 0.58316209E+04</totfact>
</mgrwt>
</event>
<event>
 6    1  0.2866116E-002  0.9653273E+02  0.7546771E-02  0.1385905E+00
         -1   -1    0    0    0  501 -0.00000000000E+00  0.00000000000E+00  0.15140695656E+02  0.15140695656E+02  0.00000000000E+00 0.  1.
          1   -1    0    0  501    0  0.00000000000E+00 -0.00000000000E+00 -0.22188850755E+03  0.22188850755E+03  0.00000000000E+00 0. -1.
         23    2    1    2    0    0  0.17432903643E+02 -0.56171579354E+00 -0.18853689294E+03  0.21181295402E+03  0.94943908893E+02 0.  0.
         11    1    3    3    0    0  0.44318711783E+02 -0.30207591931E+02 -0.13257161218E+03  0.14301006671E+03  0.00000000000E+00 0. -1.
        -11    1    3    3    0    0 -0.26885808141E+02  0.29645876137E+02 -0.55965280767E+02  0.68802887313E+02  0.00000000000E+00 0.  1.
         22    1    1    2    0    0 -0.17432903643E+02  0.56171579354E+00 -0.18210918952E+02  0.25216249188E+02  0.00000000000E+00 0. -1.
<mgrwt>
<rscale>  0 0.62936806E+02</rscale>
<asrwt>0</asrwt>
<pdfrwt beam="1">  1        1 0.34136691E-01 0.96532728E+02</pdfrwt>
<pdfrwt beam="2">  1       -1 0.23293380E-02 0.96532728E+02</pdfrwt>
<totfact> 0.61436663E+04</totfact>
</mgrwt>
</event>
<event>
 6    1  0.2866116E-002  0.9066765E+02  0.7546771E-02  0.1409968E+00
          2   -1    0    0  501    0  0.00000000000E+00  0.00000000000E+00  0.11874283043E+04  0.11874283043E+04  0.00000000000E+00 0. -1.
         -2   -1    0    0    0  501 -0.00000000000E+00 -0.00000000000E+00 -0.31964904233E+01  0.31964904233E+01  0.00000000000E+00 0.  1.
         23    2    1    2    0    0 -0.11308575442E+02  0.88556444672E+01  0.11490828036E+04  0.11526542899E+04  0.89522712478E+02 0.  0.
         13    1    3    3    0    0 -0.32938798086E+02 -0.28154457307E+02  0.75603528433E+03  0.75727603226E+03  0.00000000000E+00 0. -1.
        -13    1    3    3    0    0  0.21630222644E+02  0.37010101774E+02  0.39304751928E+03  0.39537825759E+03  0.00000000000E+00 0.  1.
         22    1    1    2    0    0  0.11308575442E+02 -0.88556444672E+01  0.35149010295E+02  0.37970504898E+02  0.00000000000E+00 0. -1.
<mgrwt>
<rscale>  0 0.57200961E+02</rscale>
<asrwt>0</asrwt>
<pdfrwt beam="1">  1        2 0.18268093E+00 0.90667648E+02</pdfrwt>
<pdfrwt beam="2">  1       -2 0.49176870E-03 0.90667648E+02</pdfrwt>
<totfact> 0.10732517E+05</totfact>
</mgrwt>
</event>
<event>
 6    1  0.2866116E-002  0.9193168E+02  0.7546771E-02  0.1408126E+00
         -2   -1    0    0    0  501 -0.00000000000E+00  0.00000000000E+00  0.20403922699E+03  0.20403922699E+03  0.00000000000E+00 0. -1.
          2   -1    0    0  501    0  0.00000000000E+00 -0.00000000000E+00 -0.14742038719E+02  0.14742038719E+02  0.00000000000E+00 0.  1.
         23    2    1    2    0    0  0.38173832452E+01  0.13658044416E+02  0.14000655725E+03  0.16749110195E+03  0.90831264258E+02 0.  0.
         13    1    3    3    0    0 -0.15920388262E+02  0.10625995965E+02 -0.60511954675E+01  0.20074549042E+02  0.00000000000E+00 0.  1.
        -13    1    3    3    0    0  0.19737771508E+02  0.30320484507E+01  0.14605775271E+03  0.14741655290E+03  0.00000000000E+00 0. -1.
         22    1    1    2    0    0 -0.38173832452E+01 -0.13658044416E+02  0.49290631022E+02  0.51290163761E+02  0.00000000000E+00 0.  1.
<mgrwt>
<rscale>  0 0.57614173E+02</rscale>
<asrwt>0</asrwt>
<pdfrwt beam="1">  1        2 0.22680061E-02 0.91931677E+02</pdfrwt>
<pdfrwt beam="2">  1       -2 0.31390648E-01 0.91931677E+02</pdfrwt>
<totfact> 0.37538215E+04</totfact>
</mgrwt>
</event>
<event>
 6    1  0.2866116E-002  0.8130289E+02  0.7546771E-02  0.1451007E+00
         -2   -1    0    0    0  501 -0.00000000000E+00  0.00000000000E+00  0.16058714869E+02  0.16058714869E+02  0.00000000000E+00 0. -1.
          2   -1    0    0  501    0  0.00000000000E+00 -0.00000000000E+00 -0.13414931150E+03  0.13414931150E+03  0.00000000000E+00 0.  1.
         23    2    1    2    0    0 -0.49309755194E+01 -0.94914606093E+01 -0.11005805561E+03  0.13683177655E+03  0.80596259985E+02 0.  0.
         11    1    3    3    0    0  0.58018773309E+01 -0.42585376285E+02 -0.80178446554E+02  0.90971200639E+02  0.00000000000E+00 0. -1.
        -11    1    3    3    0    0 -0.10732852850E+02  0.33093915676E+02 -0.29879609059E+02  0.45860575908E+02  0.00000000000E+00 0.  1.
         22    1    1    2    0    0  0.49309755194E+01  0.94914606093E+01 -0.80325410145E+01  0.13376249819E+02  0.00000000000E+00 0.  1.
<mgrwt>
<rscale>  0 0.48964784E+02</rscale>
<asrwt>0</asrwt>
<pdfrwt beam="1">  1        2 0.20638355E-01 0.81302887E+02</pdfrwt>
<pdfrwt beam="2">  1       -2 0.24705716E-02 0.81302887E+02</pdfrwt>
<totfact> 0.12546373E+05</totfact>
</mgrwt>
</event>
<event>
 6    1  0.2866116E-002  0.9214889E+02  0.7546771E-02  0.1419190E+00
          1   -1    0    0  501    0  0.00000000000E+00  0.00000000000E+00  0.38120892723E+03  0.38120892723E+03  0.00000000000E+00 0. -1.
         -1   -1    0    0    0  501 -0.00000000000E+00 -0.00000000000E+00 -0.81185077536E+01  0.81185077536E+01  0.00000000000E+00 0.  1.
         23    2    1    2    0    0 -0.84037033071E+01 -0.83675581912E+01  0.36024882735E+03  0.37184759667E+03  0.91382598332E+02 0.  0.
         11    1    3    3    0    0 -0.43729172523E+02 -0.13757408076E+02  0.28356338966E+03  0.28724502217E+03  0.00000000000E+00 0. -1.
        -11    1    3    3    0    0  0.35325469216E+02  0.53898498852E+01  0.76685437697E+02  0.84602574499E+02  0.00000000000E+00 0.  1.
         22    1    1    2    0    0  0.84037033071E+01  0.83675581912E+01  0.12841592125E+02  0.17479838319E+02  0.00000000000E+00 0.  1.
<mgrwt>
<rscale>  0 0.55192556E+02</rscale>
<asrwt>0</asrwt>
<pdfrwt beam="1">  1        1 0.58647513E-01 0.92148888E+02</pdfrwt>
<pdfrwt beam="2">  1       -1 0.12490015E-02 0.92148888E+02</pdfrwt>
<totfact> 0.76402616E+04</totfact>
</mgrwt>
</event>
<event>
 6    1  0.2866116E-002  0.9331525E+02  0.7546771E-02  0.1423247E+00
         -2   -1    0    0    0  501 -0.00000000000E+00  0.00000000000E+00  0.94108829231E+01  0.94108829231E+01  0.00000000000E+00 0. -1.
          2   -1    0    0  501    0  0.00000000000E+00 -0.00000000000E+00 -0.28950722469E+03  0.28950722469E+03  0.00000000000E+00 0.  1.
         23    2    1    2    0    0 -0.10174088897E+02  0.34098844283E+01 -0.25793115545E+03  0.27429220903E+03  0.92696254425E+02 0.  0.
         11    1    3    3    0    0 -0.40073212315E+02 -0.18065522813E+02 -0.20599542276E+03  0.21063318746E+03  0.00000000000E+00 0.  1.
        -11    1    3    3    0    0  0.29899123419E+02  0.21475407241E+02 -0.51935732693E+02  0.63659021574E+02  0.00000000000E+00 0. -1.
         22    1    1    2    0    0  0.10174088897E+02 -0.34098844283E+01 -0.22165186312E+02  0.24625898581E+02  0.00000000000E+00 0.  1.
<mgrwt>
<rscale>  0 0.54339726E+02</rscale>
<asrwt>0</asrwt>
<pdfrwt beam="1">  1        2 0.44539564E-01 0.93315245E+02</pdfrwt>
<pdfrwt beam="2">  1       -2 0.14478284E-02 0.93315245E+02</pdfrwt>
<totfact> 0.12107936E+05</totfact>
</mgrwt>
</event>
<event>
 6    1  0.2866116E-002  0.9618115E+02  0.7546771E-02  0.1360637E+00
         -2   -1    0    0    0  501 -0.00000000000E+00  0.00000000000E+00  0.14815806119E+02  0.14815806119E+02  0.00000000000E+00 0.  1.
          2   -1    0    0  501    0  0.00000000000E+00 -0.00000000000E+00 -0.77156127353E+03  0.77156127353E+03  0.00000000000E+00 0. -1.
         23    2    1    2    0    0  0.26738720579E+02 -0.18100486621E+00 -0.75330151562E+03  0.75941687295E+03  0.92389509963E+02 0.  0.
         13    1    3    3    0    0 -0.29914620984E+02  0.10428973916E+02 -0.41787909666E+03  0.41907825936E+03  0.00000000000E+00 0. -1.
        -13    1    3    3    0    0  0.56653341563E+02 -0.10609978782E+02 -0.33542241896E+03  0.34033861359E+03  0.00000000000E+00 0.  1.
         22    1    1    2    0    0 -0.26738720579E+02  0.18100486621E+00 -0.34439517892E+01  0.26960206692E+02  0.00000000000E+00 0.  1.
<mgrwt>
<rscale>  0 0.69840142E+02</rscale>
<asrwt>0</asrwt>
<pdfrwt beam="1">  1        2 0.11870176E+00 0.96181149E+02</pdfrwt>
<pdfrwt beam="2">  1       -2 0.22793543E-02 0.96181149E+02</pdfrwt>
<totfact> 0.21746568E+04</totfact>
</mgrwt>
</event>
<event>
 6    1  0.2866116E-002  0.9240942E+02  0.7546771E-02  0.1402191E+00
          2   -1    0    0  501    0  0.00000000000E+00  0.00000000000E+00  0.18330616576E+03  0.18330616576E+03  0.00000000000E+00 0. -1.
         -2   -1    0    0    0  501 -0.00000000000E+00 -0.00000000000E+00 -0.19667088508E+02  0.19667088508E+02  0.00000000000E+00 0.  1.
         23    2    1    2    0    0  0.45382494303E+01  0.14640350991E+02  0.16330970498E+03  0.18764210717E+03  0.91129386367E+02 0.  0.
         13    1    3    3    0    0  0.89515048406E+01  0.39984085929E+02  0.27334334754E+02  0.49254669047E+02  0.00000000000E+00 0.  1.
        -13    1    3    3    0    0 -0.44132554103E+01 -0.25343734938E+02  0.13597537022E+03  0.13838743813E+03  0.00000000000E+00 0. -1.
         22    1    1    2    0    0 -0.45382494303E+01 -0.14640350991E+02  0.32937227067E+00  0.15331147091E+02  0.00000000000E+00 0.  1.
<mgrwt>
<rscale>  0 0.58973347E+02</rscale>
<asrwt>0</asrwt>
<pdfrwt beam="1">  1        2 0.28200947E-01 0.92409419E+02</pdfrwt>
<pdfrwt beam="2">  1       -2 0.30257061E-02 0.92409419E+02</pdfrwt>
<totfact> 0.67865719E+04</totfact>
</mgrwt>
</event>
<event>
 6    1  0.2866116E-002  0.9292894E+02  0.7546771E-02  0.1381017E+00
          2   -1    0    0  501    0  0.00000000000E+00  0.00000000000E+00  0.15089830439E+04  0.15089830439E+04  0.00000000000E+00 0. -1.
         -2   -1    0    0    0  501 -0.00000000000E+00 -0.00000000000E+00 -0.42053333697E+01  0.42053333697E+01  0.00000000000E+00 0.  1.
         23    2    1    2    0    0 -0.21159228763E+02  0.48109616547E+00  0.14665622637E+04  0.14695035425E+04  0.90486704099E+02 0.  0.
         11    1    3    3    0    0 -0.35907954816E+02  0.56288618890E+01  0.23095314202E+03  0.23379567813E+03  0.00000000000E+00 0.  1.
        -11    1    3    3    0    0  0.14748726053E+02 -0.51477657235E+01  0.12356091217E+04  0.12357078643E+04  0.00000000000E+00 0. -1.
         22    1    1    2    0    0  0.21159228763E+02 -0.48109616547E+00  0.38215446893E+02  0.43684834858E+02  0.00000000000E+00 0.  1.
<mgrwt>
<rscale>  0 0.64197225E+02</rscale>
<asrwt>0</asrwt>
<pdfrwt beam="1">  1        2 0.23215081E+00 0.92928941E+02</pdfrwt>
<pdfrwt beam="2">  1       -2 0.64697557E-03 0.92928941E+02</pdfrwt>
<totfact> 0.49634354E+04</totfact>
</mgrwt>
</event>
<event>
 6    1  0.2866116E-002  0.9232796E+02  0.7546771E-02  0.1428316E+00
         -2   -1    0    0    0  501 -0.00000000000E+00  0.00000000000E+00  0.41515415843E+01  0.41515415843E+01  0.00000000000E+00 0.  1.
          2   -1    0    0  501    0  0.00000000000E+00 -0.00000000000E+00 -0.63482861332E+03  0.63482861332E+03  0.00000000000E+00 0. -1.
         23    2    1    2    0    0  0.46121603945E+01 -0.91581349527E+01 -0.57533434682E+03  0.58269551525E+03  0.91756794891E+02 0.  0.
         13    1    3    3    0    0  0.68471638001E+01  0.21617310583E+02 -0.50933199939E+03  0.50983652024E+03  0.00000000000E+00 0. -1.
        -13    1    3    3    0    0 -0.22350034057E+01 -0.30775445536E+02 -0.66002347426E+02  0.72858995010E+02  0.00000000000E+00 0.  1.
         22    1    1    2    0    0 -0.46121603945E+01  0.91581349527E+01 -0.55342724920E+02  0.56284639653E+02  0.00000000000E+00 0.  1.
<mgrwt>
<rscale>  0 0.53299450E+02</rscale>
<asrwt>0</asrwt>
<pdfrwt beam="1">  1        2 0.97665877E-01 0.92327964E+02</pdfrwt>
<pdfrwt beam="2">  1       -2 0.63869912E-03 0.92327964E+02</pdfrwt>
<totfact> 0.16612152E+05</totfact>
</mgrwt>
</event>
<event>
 6    1  0.2866116E-002  0.9507282E+02  0.7546771E-02  0.1352825E+00
         -2   -1    0    0    0  501 -0.00000000000E+00  0.00000000000E+00  0.10972757812E+02  0.10972757812E+02  0.00000000000E+00 0.  1.
          2   -1    0    0  501    0  0.00000000000E+00 -0.00000000000E+00 -0.42493996275E+03  0.42493996275E+03  0.00000000000E+00 0. -1.
         23    2    1    2    0    0  0.75862088346E+01  0.30665986369E+02 -0.36837379805E+03  0.38044460327E+03  0.89670997444E+02 0.  0.
         11    1    3    3    0    0 -0.54962964450E+01 -0.10031009716E+02 -0.20321007187E+01  0.11617222726E+02  0.00000000000E+00 0.  1.
        -11    1    3    3    0    0  0.13082505280E+02  0.40696996085E+02 -0.36634169733E+03  0.36882738054E+03  0.00000000000E+00 0. -1.
         22    1    1    2    0    0 -0.75862088346E+01 -0.30665986369E+02 -0.45593406889E+02  0.55468117294E+02  0.00000000000E+00 0.  1.
<mgrwt>
<rscale>  0 0.72182357E+02</rscale>
<asrwt>0</asrwt>
<pdfrwt beam="1">  1        2 0.65375370E-01 0.95072820E+02</pdfrwt>
<pdfrwt beam="2">  1       -2 0.16881168E-02 0.95072820E+02</pdfrwt>
<totfact> 0.65154843E+04</totfact>
</mgrwt>
</event>
<event>
 6    1  0.2866116E-002  0.9648802E+02  0.7546771E-02  0.1357814E+00
         -2   -1    0    0    0  501 -0.00000000000E+00  0.00000000000E+00  0.55298547109E+02  0.55298547109E+02  0.00000000000E+00 0.  1.
          2   -1    0    0  501    0  0.00000000000E+00 -0.00000000000E+00 -0.92847905347E+02  0.92847905347E+02  0.00000000000E+00 0. -1.
         23    2    1    2    0    0 -0.17469892231E+02 -0.21591212459E+02 -0.58961658345E+02  0.11307703293E+03  0.92404332320E+02 0.  0.
         11    1    3    3    0    0 -0.51037458535E+01 -0.33188727723E+02  0.15303219102E+02  0.36901604092E+02  0.00000000000E+00 0.  1.
        -11    1    3    3    0    0 -0.12366146378E+02  0.11597515264E+02 -0.74264877447E+02  0.76175428839E+02  0.00000000000E+00 0. -1.
         22    1    1    2    0    0  0.17469892231E+02  0.21591212459E+02  0.21412300107E+02  0.35069419526E+02  0.00000000000E+00 0.  1.
<mgrwt>
<rscale>  0 0.70674611E+02</rscale>
<asrwt>0</asrwt>
<pdfrwt beam="1">  1        2 0.14284293E-01 0.96488021E+02</pdfrwt>
<pdfrwt beam="2">  1       -2 0.85074688E-02 0.96488021E+02</pdfrwt>
<totfact> 0.31276408E+04</totfact>
</mgrwt>
</event>
<event>
 6    1  0.2866116E-002  0.1138170E+03  0.7546771E-02  0.1282207E+00
         -2   -1    0    0    0  501 -0.00000000000E+00  0.00000000000E+00  0.32023636398E+02  0.32023636398E+02  0.00000000000E+00 0.  1.
          2   -1    0    0  501    0  0.00000000000E+00 -0.00000000000E+00 -0.27028831113E+03  0.27028831113E+03  0.00000000000E+00 0. -1.
         23    2    1    2    0    0  0.61939383713E+02 -0.21010468955E+02 -0.18821849849E+03  0.21995572848E+03  0.93147153766E+02 0.  0.
         13    1    3    3    0    0  0.71807518200E+02 -0.18791139753E+02 -0.19440917186E+03  0.20809697909E+03  0.00000000000E+00 0. -1.
        -13    1    3    3    0    0 -0.98681344867E+01 -0.22193292024E+01  0.61906733651E+01  0.11858749389E+02  0.00000000000E+00 0.  1.
         22    1    1    2    0    0 -0.61939383713E+02  0.21010468955E+02 -0.50046176243E+02  0.82356219055E+02  0.00000000000E+00 0.  1.
<mgrwt>
<rscale>  0 0.99096804E+02</rscale>
<asrwt>0</asrwt>
<pdfrwt beam="1">  1        2 0.41582818E-01 0.11381704E+03</pdfrwt>
<pdfrwt beam="2">  1       -2 0.49267132E-02 0.11381704E+03</pdfrwt>
<totfact> 0.22452044E+04</totfact>
</mgrwt>
</event>
<event>
 6    1  0.2866116E-002  0.1042391E+03  0.7546771E-02  0.1356334E+00
         -2   -1    0    0    0  501 -0.00000000000E+00  0.00000000000E+00  0.44865977647E+01  0.44865977647E+01  0.00000000000E+00 0.  1.
          2   -1    0    0  501    0  0.00000000000E+00 -0.00000000000E+00 -0.14212189107E+04  0.14212189107E+04  0.00000000000E+00 0. -1.
         23    2    1    2    0    0 -0.16291451094E+02  0.15641272641E+02 -0.13683164683E+04  0.13722812181E+04  0.10176307464E+03 0.  0.
         13    1    3    3    0    0  0.15160435561E+02  0.47596218077E+02 -0.42956822861E+03  0.43246283286E+03  0.00000000000E+00 0.  1.
        -13    1    3    3    0    0 -0.31451886655E+02 -0.31954945436E+02 -0.93874823969E+03  0.93981838524E+03  0.00000000000E+00 0. -1.
         22    1    1    2    0    0  0.16291451094E+02 -0.15641272641E+02 -0.48415844651E+02  0.53424290373E+02  0.00000000000E+00 0. -1.
<mgrwt>
<rscale>  0 0.71117363E+02</rscale>
<asrwt>0</asrwt>
<pdfrwt beam="1">  1        2 0.21864901E+00 0.10423907E+03</pdfrwt>
<pdfrwt beam="2">  1       -2 0.69024597E-03 0.10423907E+03</pdfrwt>
<totfact> 0.50830728E+04</totfact>
</mgrwt>
</event>
<event>
 6    1  0.2866116E-002  0.9095550E+02  0.7546771E-02  0.1410856E+00
         -2   -1    0    0    0  501 -0.00000000000E+00  0.00000000000E+00  0.55188577670E+01  0.55188577670E+01  0.00000000000E+00 0.  1.
          2   -1    0    0  501    0  0.00000000000E+00 -0.00000000000E+00 -0.53486927864E+03  0.53486927864E+03  0.00000000000E+00 0. -1.
         23    2    1    2    0    0  0.14031697701E+02  0.25167171481E-01 -0.49491732623E+03  0.50320578602E+03  0.89866646238E+02 0.  0.
         13    1    3    3    0    0 -0.30733319630E+02  0.11708180886E+02 -0.33839072778E+03  0.33998515126E+03  0.00000000000E+00 0. -1.
        -13    1    3    3    0    0  0.44765017331E+02 -0.11683013715E+02 -0.15652659845E+03  0.16322063475E+03  0.00000000000E+00 0.  1.
         22    1    1    2    0    0 -0.14031697701E+02 -0.25167171481E-01 -0.34433094647E+02  0.37182350393E+02  0.00000000000E+00 0. -1.
<mgrwt>
<rscale>  0 0.57003229E+02</rscale>
<asrwt>0</asrwt>
<pdfrwt beam="1">  1        2 0.82287607E-01 0.90955502E+02</pdfrwt>
<pdfrwt beam="2">  1       -2 0.84905478E-03 0.90955502E+02</pdfrwt>
<totfact> 0.13428190E+05</totfact>
</mgrwt>
</event>
<event>
 6    1  0.2866116E-002  0.9465467E+02  0.7546771E-02  0.1368783E+00
         -4   -1    0    0    0  501 -0.00000000000E+00  0.00000000000E+00  0.16779619166E+03  0.16779619166E+03  0.00000000000E+00 0.  1.
          4   -1    0    0  501    0  0.00000000000E+00 -0.00000000000E+00 -0.22855135870E+02  0.22855135870E+02  0.00000000000E+00 0. -1.
         23    2    1    2    0    0  0.22395088400E+02 -0.99068815803E+01  0.90504239368E+02  0.13096001100E+03  0.91432055922E+02 0.  0.
         13    1    3    3    0    0  0.33600358771E+02 -0.19454627114E+01 -0.53901090060E+01  0.34085513196E+02  0.00000000000E+00 0. -1.
        -13    1    3    3    0    0 -0.11205270371E+02 -0.79614188689E+01  0.95894348374E+02  0.96874497803E+02  0.00000000000E+00 0.  1.
         22    1    1    2    0    0 -0.22395088400E+02  0.99068815803E+01  0.54436816424E+02  0.59691316533E+02  0.00000000000E+00 0. -1.
<mgrwt>
<rscale>  0 0.67506728E+02</rscale>
<asrwt>0</asrwt>
<pdfrwt beam="1">  1        4 0.35161749E-02 0.94654673E+02</pdfrwt>
<pdfrwt beam="2">  1       -4 0.25814798E-01 0.94654673E+02</pdfrwt>
<totfact> 0.87343889E+03</totfact>
</mgrwt>
</event>
<event>
 6    1  0.2866116E-002  0.9289328E+02  0.7546771E-02  0.1385824E+00
         -2   -1    0    0    0  501 -0.00000000000E+00  0.00000000000E+00  0.32905980582E+02  0.32905980582E+02  0.00000000000E+00 0.  1.
          2   -1    0    0  501    0  0.00000000000E+00 -0.00000000000E+00 -0.10089326893E+03  0.10089326893E+03  0.00000000000E+00 0. -1.
         23    2    1    2    0    0  0.19000377812E+02  0.48071206921E+01 -0.66302493935E+02  0.11412791762E+03  0.90802192221E+02 0.  0.
         13    1    3    3    0    0 -0.30196709462E+02  0.24485886528E+02 -0.36546087262E+02  0.53357439927E+02  0.00000000000E+00 0. -1.
        -13    1    3    3    0    0  0.49197087274E+02 -0.19678765836E+02 -0.29756406673E+02  0.60770477694E+02  0.00000000000E+00 0.  1.
         22    1    1    2    0    0 -0.19000377812E+02 -0.48071206921E+01 -0.16847944171E+01  0.19671331896E+02  0.00000000000E+00 0. -1.
<mgrwt>
<rscale>  0 0.62957427E+02</rscale>
<asrwt>0</asrwt>
<pdfrwt beam="1">  1        2 0.15522041E-01 0.92893277E+02</pdfrwt>
<pdfrwt beam="2">  1       -2 0.50624586E-02 0.92893277E+02</pdfrwt>
<totfact> 0.61921743E+04</totfact>
</mgrwt>
</event>
<event>
 6    1  0.2866116E-002  0.9708292E+02  0.7546771E-02  0.1406353E+00
          2   -1    0    0  501    0  0.00000000000E+00  0.00000000000E+00  0.31364942135E+03  0.31364942135E+03  0.00000000000E+00 0. -1.
         -2   -1    0    0    0  501 -0.00000000000E+00 -0.00000000000E+00 -0.97412492210E+01  0.97412492210E+01  0.00000000000E+00 0.  1.
         23    2    1    2    0    0  0.68537436918E+01  0.10310731062E+02  0.28176699166E+03  0.29802303666E+03  0.96290226992E+02 0.  0.
         11    1    3    3    0    0 -0.36406318587E+02  0.17861952996E+02  0.63223323781E+02  0.75110971687E+02  0.00000000000E+00 0.  1.
        -11    1    3    3    0    0  0.43260062279E+02 -0.75512219341E+01  0.21854366788E+03  0.22291206497E+03  0.00000000000E+00 0. -1.
         22    1    1    2    0    0 -0.68537436918E+01 -0.10310731062E+02  0.22141180473E+02  0.25367633913E+02  0.00000000000E+00 0.  1.
<mgrwt>
<rscale>  0 0.58015570E+02</rscale>
<asrwt>0</asrwt>
<pdfrwt beam="1">  1        2 0.48253750E-01 0.97082917E+02</pdfrwt>
<pdfrwt beam="2">  1       -2 0.14986540E-02 0.97082917E+02</pdfrwt>
<totfact> 0.10662493E+05</totfact>
</mgrwt>
</event>
<event>
 6    1  0.2866116E-002  0.9259556E+02  0.7546771E-02  0.1400752E+00
          2   -1    0    0  501    0  0.00000000000E+00  0.00000000000E+00  0.36308039253E+03  0.36308039253E+03  0.00000000000E+00 0. -1.
         -2   -1    0    0    0  501 -0.00000000000E+00 -0.00000000000E+00 -0.12082591744E+02  0.12082591744E+02  0.00000000000E+00 0.  1.
         23    2    1    2    0    0 -0.57433828615E+01 -0.14488911034E+02  0.34690313285E+03  0.35904835443E+03  0.91274433696E+02 0.  0.
         13    1    3    3    0    0  0.35043761369E+02  0.85196704526E+01  0.75943397254E+02  0.84071693108E+02  0.00000000000E+00 0.  1.
        -13    1    3    3    0    0 -0.40787144231E+02 -0.23008581486E+02  0.27095973560E+03  0.27497666132E+03  0.00000000000E+00 0. -1.
         22    1    1    2    0    0  0.57433828615E+01  0.14488911034E+02  0.40946679388E+01  0.16114629849E+02  0.00000000000E+00 0.  1.
<mgrwt>
<rscale>  0 0.59309519E+02</rscale>
<asrwt>0</asrwt>
<pdfrwt beam="1">  1        2 0.55858514E-01 0.92595557E+02</pdfrwt>
<pdfrwt beam="2">  1       -2 0.18588605E-02 0.92595557E+02</pdfrwt>
<totfact> 0.66746047E+04</totfact>
</mgrwt>
</event>
<event>
 6    1  0.2866116E-002  0.9022649E+02  0.7546771E-02  0.1376892E+00
          1   -1    0    0  501    0  0.00000000000E+00  0.00000000000E+00  0.35339951049E+02  0.35339951049E+02  0.00000000000E+00 0. -1.
         -1   -1    0    0    0  501 -0.00000000000E+00 -0.00000000000E+00 -0.15815209776E+03  0.15815209776E+03  0.00000000000E+00 0.  1.
         23    2    1    2    0    0  0.23113147871E+02  0.88112893643E+01 -0.26475831586E+02  0.94030789836E+02  0.86769599251E+02 0.  0.
         11    1    3    3    0    0  0.19726632013E+02  0.36706841673E+02  0.14692864776E+02  0.44186112202E+02  0.00000000000E+00 0. -1.
        -11    1    3    3    0    0  0.33865158576E+01 -0.27895552309E+02 -0.41168696362E+02  0.49844677634E+02  0.00000000000E+00 0.  1.
         22    1    1    2    0    0 -0.23113147871E+02 -0.88112893643E+01 -0.96336315125E+02  0.99461258974E+02  0.00000000000E+00 0.  1.
<mgrwt>
<rscale>  0 0.65287756E+02</rscale>
<asrwt>0</asrwt>
<pdfrwt beam="1">  1        1 0.54369156E-02 0.90226492E+02</pdfrwt>
<pdfrwt beam="2">  1       -1 0.24331092E-01 0.90226492E+02</pdfrwt>
<totfact> 0.19114872E+04</totfact>
</mgrwt>
</event>
<event>
 6    1  0.2866116E-002  0.9130684E+02  0.7546771E-02  0.1409152E+00
          2   -1    0    0  501    0  0.00000000000E+00  0.00000000000E+00  0.35497083295E+03  0.35497083295E+03  0.00000000000E+00 0. -1.
         -2   -1    0    0    0  501 -0.00000000000E+00 -0.00000000000E+00 -0.14789174248E+02  0.14789174248E+02  0.00000000000E+00 0.  1.
         23    2    1    2    0    0 -0.88770535161E+01 -0.11139738017E+02  0.34325216950E+03  0.35518866962E+03  0.90188931216E+02 0.  0.
         13    1    3    3    0    0 -0.21761578043E+02 -0.38181214650E+01  0.33907179775E+03  0.33979085973E+03  0.00000000000E+00 0. -1.
        -13    1    3    3    0    0  0.12884524527E+02 -0.73216165515E+01  0.41803717551E+01  0.15397809884E+02  0.00000000000E+00 0.  1.
         22    1    1    2    0    0  0.88770535161E+01  0.11139738017E+02 -0.30705108030E+01  0.14571337577E+02  0.00000000000E+00 0.  1.
<mgrwt>
<rscale>  0 0.57383447E+02</rscale>
<asrwt>0</asrwt>
<pdfrwt beam="1">  1        2 0.54610891E-01 0.91306841E+02</pdfrwt>
<pdfrwt beam="2">  1       -2 0.22752578E-02 0.91306841E+02</pdfrwt>
<totfact> 0.51014327E+04</totfact>
</mgrwt>
</event>
<event>
 6    1  0.2866116E-002  0.9728937E+02  0.7546771E-02  0.1358484E+00
          2   -1    0    0  501    0  0.00000000000E+00  0.00000000000E+00  0.36946567613E+03  0.36946567613E+03  0.00000000000E+00 0. -1.
         -2   -1    0    0    0  501 -0.00000000000E+00 -0.00000000000E+00 -0.10663736441E+02  0.10663736441E+02  0.00000000000E+00 0.  1.
         23    2    1    2    0    0 -0.20596438531E+02  0.17129763106E+02  0.30288504938E+03  0.31812666516E+03  0.93528497721E+02 0.  0.
         13    1    3    3    0    0 -0.47797403552E+01 -0.33209662009E+02  0.19684304214E+03  0.19968202425E+03  0.00000000000E+00 0. -1.
        -13    1    3    3    0    0 -0.15816698175E+02  0.50339425115E+02  0.10604200723E+03  0.11844464091E+03  0.00000000000E+00 0.  1.
         22    1    1    2    0    0  0.20596438531E+02 -0.17129763106E+02  0.55916890316E+02  0.62002747414E+02  0.00000000000E+00 0. -1.
<mgrwt>
<rscale>  0 0.70475398E+02</rscale>
<asrwt>0</asrwt>
<pdfrwt beam="1">  1        2 0.56840863E-01 0.97289372E+02</pdfrwt>
<pdfrwt beam="2">  1       -2 0.16405751E-02 0.97289372E+02</pdfrwt>
<totfact> 0.78912327E+04</totfact>
</mgrwt>
</event>
<event>
 6    1  0.2866116E-002  0.9251556E+02  0.7546771E-02  0.1417260E+00
          3   -1    0    0  501    0  0.00000000000E+00  0.00000000000E+00  0.23833891730E+02  0.23833891730E+02  0.00000000000E+00 0. -1.
         -3   -1    0    0    0  501 -0.00000000000E+00 -0.00000000000E+00 -0.12983027343E+03  0.12983027343E+03  0.00000000000E+00 0.  1.
         23    2    1    2    0    0 -0.71448075041E+01 -0.97314999480E+01 -0.10711810293E+03  0.14153945387E+03  0.91724471433E+02 0.  0.
         11    1    3    3    0    0 -0.25659035229E+02  0.32179963108E+02 -0.26932161380E+02  0.49186150806E+02  0.00000000000E+00 0. -1.
        -11    1    3    3    0    0  0.18514227725E+02 -0.41911463056E+02 -0.80185941553E+02  0.92353303062E+02  0.00000000000E+00 0.  1.
         22    1    1    2    0    0  0.71448075041E+01  0.97314999480E+01  0.11217212283E+01  0.12124711296E+02  0.00000000000E+00 0. -1.
<mgrwt>
<rscale>  0 0.55604802E+02</rscale>
<asrwt>0</asrwt>
<pdfrwt beam="1">  1        3 0.36667527E-02 0.92515561E+02</pdfrwt>
<pdfrwt beam="2">  1       -3 0.19973888E-01 0.92515561E+02</pdfrwt>
<totfact> 0.17217302E+04</totfact>
</mgrwt>
</event>
<event>
 6    1  0.2866116E-002  0.9146622E+02  0.7546771E-02  0.1423191E+00
          1   -1    0    0  501    0  0.00000000000E+00  0.00000000000E+00  0.54218105196E+02  0.54218105196E+02  0.00000000000E+00 0. -1.
         -1   -1    0    0    0  501 -0.00000000000E+00 -0.00000000000E+00 -0.48911028487E+02  0.48911028487E+02  0.00000000000E+00 0.  1.
         23    2    1    2    0    0  0.96280364760E+01 -0.61118482719E+01  0.31344427961E+01  0.91519908309E+02  0.90752493682E+02 0.  0.
         13    1    3    3    0    0  0.39521262118E+02  0.10249437518E+02  0.27850198878E+02  0.49422815646E+02  0.00000000000E+00 0.  1.
        -13    1    3    3    0    0 -0.29893225642E+02 -0.16361285790E+02 -0.24715756082E+02  0.42097092663E+02  0.00000000000E+00 0. -1.
         22    1    1    2    0    0 -0.96280364760E+01  0.61118482719E+01  0.21726339131E+01  0.11609225375E+02  0.00000000000E+00 0.  1.
<mgrwt>
<rscale>  0 0.54351422E+02</rscale>
<asrwt>0</asrwt>
<pdfrwt beam="1">  1        1 0.83412470E-02 0.91466217E+02</pdfrwt>
<pdfrwt beam="2">  1       -1 0.75247736E-02 0.91466217E+02</pdfrwt>
<totfact> 0.66199108E+04</totfact>
</mgrwt>
</event>
<event>
 6    1  0.2866116E-002  0.9135223E+02  0.7546771E-02  0.1416027E+00
          2   -1    0    0  501    0  0.00000000000E+00  0.00000000000E+00  0.26080520942E+03  0.26080520942E+03  0.00000000000E+00 0. -1.
         -2   -1    0    0    0  501 -0.00000000000E+00 -0.00000000000E+00 -0.12058324285E+02  0.12058324285E+02  0.00000000000E+00 0.  1.
         23    2    1    2    0    0 -0.21472693515E+01  0.12599382061E+02  0.24143293302E+03  0.25813773697E+03  0.90453716936E+02 0.  0.
         13    1    3    3    0    0  0.34897176968E+02  0.14417983634E+02  0.19543761903E+03  0.19905163688E+03  0.00000000000E+00 0. -1.
        -13    1    3    3    0    0 -0.37044446319E+02 -0.18186015730E+01  0.45995313986E+02  0.59086100086E+02  0.00000000000E+00 0.  1.
         22    1    1    2    0    0  0.21472693515E+01 -0.12599382061E+02  0.73139521194E+01  0.14725796739E+02  0.00000000000E+00 0.  1.
<mgrwt>
<rscale>  0 0.55870298E+02</rscale>
<asrwt>0</asrwt>
<pdfrwt beam="1">  1        2 0.40123874E-01 0.91352231E+02</pdfrwt>
<pdfrwt beam="2">  1       -2 0.18551270E-02 0.91352231E+02</pdfrwt>
<totfact> 0.94448494E+04</totfact>
</mgrwt>
</event>
<event>
 6    1  0.2866116E-002  0.9600830E+02  0.7546771E-02  0.1353429E+00
          2   -1    0    0  501    0  0.00000000000E+00  0.00000000000E+00  0.27221009959E+03  0.27221009959E+03  0.00000000000E+00 0. -1.
         -2   -1    0    0    0  501 -0.00000000000E+00 -0.00000000000E+00 -0.22818218378E+02  0.22818218378E+02  0.00000000000E+00 0.  1.
         23    2    1    2    0    0  0.11226800529E+02  0.28211026244E+02  0.24648926573E+03  0.26452703556E+03  0.91080686037E+02 0.  0.
         13    1    3    3    0    0  0.46605746995E+02  0.34930267722E+02  0.17574514041E+03  0.18514473699E+03  0.00000000000E+00 0. -1.
        -13    1    3    3    0    0 -0.35378946467E+02 -0.67192414782E+01  0.70744125324E+02  0.79382298575E+02  0.00000000000E+00 0.  1.
         22    1    1    2    0    0 -0.11226800529E+02 -0.28211026244E+02  0.29026154779E+01  0.30501282407E+02  0.00000000000E+00 0.  1.
<mgrwt>
<rscale>  0 0.71997473E+02</rscale>
<asrwt>0</asrwt>
<pdfrwt beam="1">  1        2 0.41878474E-01 0.96008304E+02</pdfrwt>
<pdfrwt beam="2">  1       -2 0.35104953E-02 0.96008304E+02</pdfrwt>
<totfact> 0.36097029E+04</totfact>
</mgrwt>
</event>
<event>
 6    1  0.2866116E-002  0.9234887E+02  0.7546771E-02  0.1422950E+00
         -2   -1    0    0    0  501 -0.00000000000E+00  0.00000000000E+00  0.24288204293E+03  0.24288204293E+03  0.00000000000E+00 0.  1.
          2   -1    0    0  501    0  0.00000000000E+00 -0.00000000000E+00 -0.11885179998E+02  0.11885179998E+02  0.00000000000E+00 0. -1.
         23    2    1    2    0    0  0.43727833745E+01  0.10225436637E+02  0.17706431189E+03  0.19969998357E+03  0.91676780611E+02 0.  0.
         11    1    3    3    0    0 -0.10230790664E+02  0.46125148098E+02  0.13233395929E+03  0.14051503530E+03  0.00000000000E+00 0.  1.
        -11    1    3    3    0    0  0.14603574039E+02 -0.35899711460E+02  0.44730352609E+02  0.59184948274E+02  0.00000000000E+00 0. -1.
         22    1    1    2    0    0 -0.43727833745E+01 -0.10225436637E+02  0.53932551039E+02  0.55067239357E+02  0.00000000000E+00 0.  1.
<mgrwt>
<rscale>  0 0.54401572E+02</rscale>
<asrwt>0</asrwt>
<pdfrwt beam="1">  1        2 0.18284894E-02 0.92348865E+02</pdfrwt>
<pdfrwt beam="2">  1       -2 0.37366465E-01 0.92348865E+02</pdfrwt>
<totfact> 0.36544269E+04</totfact>
</mgrwt>
</event>
<event>
 6    1  0.2866116E-002  0.9712330E+02  0.7546771E-02  0.1352521E+00
         -4   -1    0    0    0  501 -0.00000000000E+00  0.00000000000E+00  0.82383040517E+02  0.82383040517E+02  0.00000000000E+00 0. -1.
          4   -1    0    0  501    0  0.00000000000E+00 -0.00000000000E+00 -0.58930289338E+02  0.58930289338E+02  0.00000000000E+00 0.  1.
         23    2    1    2    0    0 -0.29263693288E+02 -0.55478711372E+01 -0.86666795766E+01  0.97509215310E+02  0.92443459025E+02 0.  0.
         13    1    3    3    0    0 -0.88208193291E+00  0.41605924067E+02 -0.84907095835E+01  0.42472616299E+02  0.00000000000E+00 0. -1.
        -13    1    3    3    0    0 -0.28381611355E+02 -0.47153795205E+02 -0.17596999312E+00  0.55036599011E+02  0.00000000000E+00 0.  1.
         22    1    1    2    0    0  0.29263693288E+02  0.55478711372E+01  0.32119430755E+02  0.43804114545E+02  0.00000000000E+00 0. -1.
<mgrwt>
<rscale>  0 0.72275609E+02</rscale>
<asrwt>0</asrwt>
<pdfrwt beam="1">  1        4 0.90661983E-02 0.97123302E+02</pdfrwt>
<pdfrwt beam="2">  1       -4 0.12674314E-01 0.97123302E+02</pdfrwt>
<totfact> 0.67431639E+03</totfact>
</mgrwt>
</event>
<event>
 6    1  0.2866116E-002  0.1283360E+03  0.7546771E-02  0.1343192E+00
          2   -1    0    0  501    0  0.00000000000E+00  0.00000000000E+00  0.23275222998E+04  0.23275222998E+04  0.00000000000E+00 0. -1.
         -2   -1    0    0    0  501 -0.00000000000E+00 -0.00000000000E+00 -0.54822380106E+01  0.54822380106E+01  0.00000000000E+00 0.  1.
         23    2    1    2    0    0  0.13448654092E+02  0.69652257063E+01  0.23102482204E+04  0.23138100545E+04  0.12743919253E+03 0.  0.
         11    1    3    3    0    0 -0.18823569870E+02  0.16636133084E+02  0.93798579713E+02  0.97104383334E+02  0.00000000000E+00 0.  1.
        -11    1    3    3    0    0  0.32272223961E+02 -0.96709073776E+01  0.22164496407E+04  0.22167056712E+04  0.00000000000E+00 0. -1.
         22    1    1    2    0    0 -0.13448654092E+02 -0.69652257063E+01  0.11791841385E+02  0.19194483303E+02  0.00000000000E+00 0.  1.
<mgrwt>
<rscale>  0 0.75219592E+02</rscale>
<asrwt>0</asrwt>
<pdfrwt beam="1">  1        2 0.35807957E+00 0.12833600E+03</pdfrwt>
<pdfrwt beam="2">  1       -2 0.84342309E-03 0.12833600E+03</pdfrwt>
<totfact> 0.13325874E+04</totfact>
</mgrwt>
</event>
<event>
 6    1  0.2866116E-002  0.1282593E+03  0.7546771E-02  0.1248130E+00
          2   -1    0    0  501    0  0.00000000000E+00  0.00000000000E+00  0.27197264715E+03  0.27197264715E+03  0.00000000000E+00 0.  1.
         -2   -1    0    0    0  501 -0.00000000000E+00 -0.00000000000E+00 -0.47153332407E+02  0.47153332407E+02  0.00000000000E+00 0. -1.
         23    2    1    2    0    0 -0.64527657486E+02 -0.61022652709E+02  0.86333913815E+02  0.15460914457E+03  0.92535723835E+02 0.  0.
         13    1    3    3    0    0  0.18905222235E+02  0.49911332971E+01  0.37057984734E+01  0.19901049763E+02  0.00000000000E+00 0. -1.
        -13    1    3    3    0    0 -0.83432879721E+02 -0.66013786006E+02  0.82628115341E+02  0.13470809481E+03  0.00000000000E+00 0.  1.
         22    1    1    2    0    0  0.64527657486E+02  0.61022652709E+02  0.13848540093E+03  0.16451683499E+03  0.00000000000E+00 0. -1.
<mgrwt>
<rscale>  0 0.11699966E+03</rscale>
<asrwt>0</asrwt>
<pdfrwt beam="1">  1        2 0.41841945E-01 0.12825928E+03</pdfrwt>
<pdfrwt beam="2">  1       -2 0.72543590E-02 0.12825928E+03</pdfrwt>
<totfact> 0.12563842E+04</totfact>
</mgrwt>
</event>
<event>
 6    1  0.2866116E-002  0.9365843E+02  0.7546771E-02  0.1398726E+00
         -2   -1    0    0    0  501 -0.00000000000E+00  0.00000000000E+00  0.10829075482E+02  0.10829075482E+02  0.00000000000E+00 0.  1.
          2   -1    0    0  501    0  0.00000000000E+00 -0.00000000000E+00 -0.35266955659E+03  0.35266955659E+03  0.00000000000E+00 0. -1.
         23    2    1    2    0    0  0.15410837093E+02  0.20947239061E+01 -0.33231466057E+03  0.34526067646E+03  0.92358103647E+02 0.  0.
         13    1    3    3    0    0  0.41858604176E+02  0.32521247438E+02 -0.17410589836E+03  0.18199625854E+03  0.00000000000E+00 0. -1.
        -13    1    3    3    0    0 -0.26447767083E+02 -0.30426523531E+02 -0.15820876221E+03  0.16326441791E+03  0.00000000000E+00 0.  1.
         22    1    1    2    0    0 -0.15410837093E+02 -0.20947239061E+01 -0.95258205422E+01  0.18237955619E+02  0.00000000000E+00 0.  1.
<mgrwt>
<rscale>  0 0.59787520E+02</rscale>
<asrwt>0</asrwt>
<pdfrwt beam="1">  1        2 0.54256851E-01 0.93658428E+02</pdfrwt>
<pdfrwt beam="2">  1       -2 0.16660117E-02 0.93658428E+02</pdfrwt>
<totfact> 0.80632861E+04</totfact>
</mgrwt>
</event>
<event>
 6    1  0.2866116E-002  0.9125070E+02  0.7546771E-02  0.1430025E+00
         -2   -1    0    0    0  501 -0.00000000000E+00  0.00000000000E+00  0.17858181089E+01  0.17858181089E+01  0.00000000000E+00 0.  1.
          2   -1    0    0  501    0  0.00000000000E+00 -0.00000000000E+00 -0.18387566236E+04  0.18387566236E+04  0.00000000000E+00 0. -1.
         23    2    1    2    0    0  0.84095996416E+01  0.60325577915E+01 -0.17948739486E+04  0.17971920267E+04  0.90661879615E+02 0.  0.
         13    1    3    3    0    0 -0.40885624150E+02  0.52870396879E+01 -0.93116377025E+03  0.93207593793E+03  0.00000000000E+00 0. -1.
        -13    1    3    3    0    0  0.49295223791E+02  0.74551810368E+00 -0.86371017838E+03  0.86511608881E+03  0.00000000000E+00 0.  1.
         22    1    1    2    0    0 -0.84095996416E+01 -0.60325577915E+01 -0.42096856827E+02  0.43350414927E+02  0.00000000000E+00 0.  1.
<mgrwt>
<rscale>  0 0.52955061E+02</rscale>
<asrwt>0</asrwt>
<pdfrwt beam="1">  1        2 0.28288461E+00 0.91250696E+02</pdfrwt>
<pdfrwt beam="2">  1       -2 0.27474224E-03 0.91250696E+02</pdfrwt>
<totfact> 0.11191508E+05</totfact>
</mgrwt>
</event>
<event>
 6    1  0.2866116E-002  0.9192443E+02  0.7546771E-02  0.1418819E+00
         -2   -1    0    0    0  501 -0.00000000000E+00  0.00000000000E+00  0.23040719945E+01  0.23040719945E+01  0.00000000000E+00 0.  1.
          2   -1    0    0  501    0  0.00000000000E+00 -0.00000000000E+00 -0.12797482215E+04  0.12797482215E+04  0.00000000000E+00 0. -1.
         23    2    1    2    0    0  0.62948801819E+01  0.10233625070E+02 -0.12143557456E+04  0.12178300286E+04  0.91135882785E+02 0.  0.
         11    1    3    3    0    0  0.31873440322E+02 -0.23529837818E+02 -0.31563951549E+03  0.31811613163E+03  0.00000000000E+00 0.  1.
        -11    1    3    3    0    0 -0.25578560140E+02  0.33763462887E+02 -0.89871623009E+03  0.89971389697E+03  0.00000000000E+00 0. -1.
         22    1    1    2    0    0 -0.62948801819E+01 -0.10233625070E+02 -0.63088403875E+02  0.64222264847E+02  0.00000000000E+00 0. -1.
<mgrwt>
<rscale>  0 0.55271507E+02</rscale>
<asrwt>0</asrwt>
<pdfrwt beam="1">  1        2 0.19688506E+00 0.91924435E+02</pdfrwt>
<pdfrwt beam="2">  1       -2 0.35447132E-03 0.91924435E+02</pdfrwt>
<totfact> 0.15156459E+05</totfact>
</mgrwt>
</event>
<event>
 6    1  0.2866116E-002  0.9033296E+02  0.7546771E-02  0.1420162E+00
          2   -1    0    0  501    0  0.00000000000E+00  0.00000000000E+00  0.14313977139E+03  0.14313977139E+03  0.00000000000E+00 0. -1.
         -2   -1    0    0    0  501 -0.00000000000E+00 -0.00000000000E+00 -0.20523125484E+02  0.20523125484E+02  0.00000000000E+00 0.  1.
         23    2    1    2    0    0  0.78151340519E+01  0.96297630470E+01  0.12122875821E+03  0.15118351833E+03  0.89477571163E+02 0.  0.
         13    1    3    3    0    0  0.45999920953E+02  0.13050228429E+02  0.44076573878E+02  0.65031112205E+02  0.00000000000E+00 0.  1.
        -13    1    3    3    0    0 -0.38184786901E+02 -0.34204653822E+01  0.77152184332E+02  0.86152406127E+02  0.00000000000E+00 0. -1.
         22    1    1    2    0    0 -0.78151340519E+01 -0.96297630470E+01  0.13878876963E+01  0.12479378544E+02  0.00000000000E+00 0. -1.
<mgrwt>
<rscale>  0 0.54986654E+02</rscale>
<asrwt>0</asrwt>
<pdfrwt beam="1">  1        2 0.22021503E-01 0.90332964E+02</pdfrwt>
<pdfrwt beam="2">  1       -2 0.31574040E-02 0.90332964E+02</pdfrwt>
<totfact> 0.83244833E+04</totfact>
</mgrwt>
</event>
<event>
 6    1  0.2866116E-002  0.9399454E+02  0.7546771E-02  0.1405842E+00
          1   -1    0    0  501    0  0.00000000000E+00  0.00000000000E+00  0.90323007716E+03  0.90323007716E+03  0.00000000000E+00 0. -1.
         -1   -1    0    0    0  501 -0.00000000000E+00 -0.00000000000E+00 -0.34371753688E+01  0.34371753688E+01  0.00000000000E+00 0.  1.
         23    2    1    2    0    0 -0.32975434750E+01  0.13350494509E+02  0.84341342221E+03  0.84863488902E+03  0.92983141488E+02 0.  0.
         13    1    3    3    0    0 -0.35814181208E+01 -0.28905140974E+02  0.10362168148E+03  0.10763729188E+03  0.00000000000E+00 0. -1.
        -13    1    3    3    0    0  0.28387464578E+00  0.42255635483E+02  0.73979174072E+03  0.74099759713E+03  0.00000000000E+00 0.  1.
         22    1    1    2    0    0  0.32975434750E+01 -0.13350494509E+02  0.56379479584E+02  0.58032363512E+02  0.00000000000E+00 0. -1.
<mgrwt>
<rscale>  0 0.58132118E+02</rscale>
<asrwt>0</asrwt>
<pdfrwt beam="1">  1        1 0.13895828E+00 0.93994543E+02</pdfrwt>
<pdfrwt beam="2">  1       -1 0.52879693E-03 0.93994543E+02</pdfrwt>
<totfact> 0.79715358E+04</totfact>
</mgrwt>
</event>
<event>
 6    1  0.2866116E-002  0.9412840E+02  0.7546771E-02  0.1402241E+00
         -2   -1    0    0    0  501 -0.00000000000E+00  0.00000000000E+00  0.11723870188E+02  0.11723870188E+02  0.00000000000E+00 0.  1.
          2   -1    0    0  501    0  0.00000000000E+00 -0.00000000000E+00 -0.55503429957E+03  0.55503429957E+03  0.00000000000E+00 0. -1.
         23    2    1    2    0    0  0.48306233489E+00  0.14483699009E+02 -0.54416039235E+03  0.55224151301E+03  0.93006156788E+02 0.  0.
         13    1    3    3    0    0  0.42529962440E+02  0.19926744651E+02 -0.37124662908E+03  0.37420573547E+03  0.00000000000E+00 0.  1.
        -13    1    3    3    0    0 -0.42046900105E+02 -0.54430456426E+01 -0.17291376327E+03  0.17803577753E+03  0.00000000000E+00 0. -1.
         22    1    1    2    0    0 -0.48306233489E+00 -0.14483699009E+02  0.84996296640E+00  0.14516656752E+02  0.00000000000E+00 0.  1.
<mgrwt>
<rscale>  0 0.58961801E+02</rscale>
<asrwt>0</asrwt>
<pdfrwt beam="1">  1        2 0.85389897E-01 0.94128402E+02</pdfrwt>
<pdfrwt beam="2">  1       -2 0.18036722E-02 0.94128402E+02</pdfrwt>
<totfact> 0.44366697E+04</totfact>
</mgrwt>
</event>
<event>
 6    1  0.2866116E-002  0.9248985E+02  0.7546771E-02  0.1407529E+00
          2   -1    0    0  501    0  0.00000000000E+00  0.00000000000E+00  0.19084366606E+02  0.19084366606E+02  0.00000000000E+00 0. -1.
         -2   -1    0    0    0  501 -0.00000000000E+00 -0.00000000000E+00 -0.19665856698E+03  0.19665856698E+03  0.00000000000E+00 0.  1.
         23    2    1    2    0    0  0.11484088926E+02 -0.81063240841E+01 -0.97290462888E+02  0.13423787059E+03  0.91415397740E+02 0.  0.
         13    1    3    3    0    0 -0.27609728639E+01  0.30445106932E+02 -0.22039816595E+01  0.30649388940E+02  0.00000000000E+00 0. -1.
        -13    1    3    3    0    0  0.14245061790E+02 -0.38551431016E+02 -0.95086481229E+02  0.10358848165E+03  0.00000000000E+00 0.  1.
         22    1    1    2    0    0 -0.11484088926E+02  0.81063240841E+01 -0.80283737482E+02  0.81505062988E+02  0.00000000000E+00 0. -1.
<mgrwt>
<rscale>  0 0.57748809E+02</rscale>
<asrwt>0</asrwt>
<pdfrwt beam="1">  1        2 0.29360567E-02 0.92489847E+02</pdfrwt>
<pdfrwt beam="2">  1       -2 0.30255161E-01 0.92489847E+02</pdfrwt>
<totfact> 0.28418711E+04</totfact>
</mgrwt>
</event>
<event>
 6    1  0.2866116E-002  0.9196851E+02  0.7546771E-02  0.1414527E+00
         -1   -1    0    0    0  501 -0.00000000000E+00  0.00000000000E+00  0.15382538336E+01  0.15382538336E+01  0.00000000000E+00 0.  1.
          1   -1    0    0  501    0  0.00000000000E+00 -0.00000000000E+00 -0.24090491807E+04  0.24090491807E+04  0.00000000000E+00 0. -1.
         23    2    1    2    0    0 -0.12084029887E+02 -0.42821250356E+01 -0.23435731031E+04  0.23453769624E+04  0.91070552962E+02 0.  0.
         11    1    3    3    0    0  0.25759555492E+02  0.85366456850E+01 -0.25839784175E+03  0.25981892472E+03  0.00000000000E+00 0.  1.
        -11    1    3    3    0    0 -0.37843585380E+02 -0.12818770721E+02 -0.20851752614E+04  0.20855580377E+04  0.00000000000E+00 0. -1.
         22    1    1    2    0    0  0.12084029887E+02  0.42821250356E+01 -0.63937823712E+02  0.65210472121E+02  0.00000000000E+00 0.  1.
<mgrwt>
<rscale>  0 0.56195817E+02</rscale>
<asrwt>0</asrwt>
<pdfrwt beam="1">  1        1 0.37062414E+00 0.91968505E+02</pdfrwt>
<pdfrwt beam="2">  1       -1 0.23665367E-03 0.91968505E+02</pdfrwt>
<totfact> 0.25560670E+04</totfact>
</mgrwt>
</event>
<event>
 6    1  0.2866116E-002  0.1008154E+03  0.7546771E-02  0.1324876E+00
          2   -1    0    0  501    0  0.00000000000E+00  0.00000000000E+00  0.13407725375E+04  0.13407725375E+04  0.00000000000E+00 0. -1.
         -2   -1    0    0    0  501 -0.00000000000E+00 -0.00000000000E+00 -0.44177201191E+01  0.44177201191E+01  0.00000000000E+00 0.  1.
         23    2    1    2    0    0  0.43025301818E+02 -0.96269334364E+00  0.11243927336E+04  0.11289033455E+04  0.91168200744E+02 0.  0.
         13    1    3    3    0    0  0.37155380454E+02  0.13204406946E+02  0.17503037194E+03  0.17941713898E+03  0.00000000000E+00 0.  1.
        -13    1    3    3    0    0  0.58699213642E+01 -0.14167100289E+02  0.94936236166E+03  0.94948620656E+03  0.00000000000E+00 0. -1.
         22    1    1    2    0    0 -0.43025301818E+02  0.96269334364E+00  0.21196208374E+03  0.21628691203E+03  0.00000000000E+00 0. -1.
<mgrwt>
<rscale>  0 0.81489809E+02</rscale>
<asrwt>0</asrwt>
<pdfrwt beam="1">  1        2 0.20627237E+00 0.10081540E+03</pdfrwt>
<pdfrwt beam="2">  1       -2 0.67965032E-03 0.10081540E+03</pdfrwt>
<totfact> 0.57055886E+04</totfact>
</mgrwt>
</event>
<event>
 6    1  0.2866116E-002  0.9332149E+02  0.7546771E-02  0.1403301E+00
         -2   -1    0    0    0  501 -0.00000000000E+00  0.00000000000E+00  0.26162867508E+01  0.26162867508E+01  0.00000000000E+00 0.  1.
          2   -1    0    0  501    0  0.00000000000E+00 -0.00000000000E+00 -0.13627627138E+04  0.13627627138E+04  0.00000000000E+00 0. -1.
         23    2    1    2    0    0 -0.43512267677E+01  0.13962100523E+02 -0.13048012426E+04  0.13081342377E+04  0.92168475550E+02 0.  0.
         11    1    3    3    0    0 -0.32993327201E+02 -0.21002005176E+02 -0.33411852786E+03  0.33639981350E+03  0.00000000000E+00 0. -1.
        -11    1    3    3    0    0  0.28642100433E+02  0.34964105699E+02 -0.97068271470E+03  0.97173442422E+03  0.00000000000E+00 0.  1.
         22    1    1    2    0    0  0.43512267677E+01 -0.13962100523E+02 -0.55345184502E+02  0.57244762843E+02  0.00000000000E+00 0.  1.
<mgrwt>
<rscale>  0 0.58715920E+02</rscale>
<asrwt>0</asrwt>
<pdfrwt beam="1">  1        2 0.20965635E+00 0.93321494E+02</pdfrwt>
<pdfrwt beam="2">  1       -2 0.40250460E-03 0.93321494E+02</pdfrwt>
<totfact> 0.11496824E+05</totfact>
</mgrwt>
</event>
<event>
 6    1  0.2866116E-002  0.9170615E+02  0.7546771E-02  0.1411262E+00
         -2   -1    0    0    0  501 -0.00000000000E+00  0.00000000000E+00  0.33843300904E+01  0.33843300904E+01  0.00000000000E+00 0.  1.
          2   -1    0    0  501    0  0.00000000000E+00 -0.00000000000E+00 -0.10861552460E+04  0.10861552460E+04  0.00000000000E+00 0. -1.
         23    2    1    2    0    0 -0.11389543978E+02 -0.74387836913E+01 -0.10508093218E+04  0.10548034175E+04  0.90691574046E+02 0.  0.
         11    1    3    3    0    0 -0.26772306994E+02  0.33064915734E+02 -0.70632709978E+03  0.70760724767E+03  0.00000000000E+00 0. -1.
        -11    1    3    3    0    0  0.15382763017E+02 -0.40503699425E+02 -0.34448222199E+03  0.34719616981E+03  0.00000000000E+00 0.  1.
         22    1    1    2    0    0  0.11389543978E+02  0.74387836913E+01 -0.31961594151E+02  0.34736158618E+02  0.00000000000E+00 0. -1.
<mgrwt>
<rscale>  0 0.56913083E+02</rscale>
<asrwt>0</asrwt>
<pdfrwt beam="1">  1        2 0.16710107E+00 0.91706155E+02</pdfrwt>
<pdfrwt beam="2">  1       -2 0.52066534E-03 0.91706155E+02</pdfrwt>
<totfact> 0.11291006E+05</totfact>
</mgrwt>
</event>
<event>
 6    1  0.2866116E-002  0.9340609E+02  0.7546771E-02  0.1369582E+00
         -1   -1    0    0    0  501 -0.00000000000E+00  0.00000000000E+00  0.33918070564E+03  0.33918070564E+03  0.00000000000E+00 0.  1.
          1   -1    0    0  501    0  0.00000000000E+00 -0.00000000000E+00 -0.10401222281E+02  0.10401222281E+02  0.00000000000E+00 0. -1.
         23    2    1    2    0    0 -0.24601076909E+02 -0.52187293118E+01  0.26770090926E+03  0.28352861359E+03  0.89956932928E+02 0.  0.
         11    1    3    3    0    0 -0.61153849779E+01 -0.20907417975E+02  0.87982226860E+01  0.23493122020E+02  0.00000000000E+00 0. -1.
        -11    1    3    3    0    0 -0.18485691932E+02  0.15688688663E+02  0.25890268658E+03  0.26003549157E+03  0.00000000000E+00 0.  1.
         22    1    1    2    0    0  0.24601076909E+02  0.52187293118E+01  0.61078574097E+02  0.66053314333E+02  0.00000000000E+00 0.  1.
<mgrwt>
<rscale>  0 0.67283645E+02</rscale>
<asrwt>0</asrwt>
<pdfrwt beam="1">  1        1 0.16001883E-02 0.93406091E+02</pdfrwt>
<pdfrwt beam="2">  1       -1 0.52181639E-01 0.93406091E+02</pdfrwt>
<totfact> 0.27769683E+04</totfact>
</mgrwt>
</event>
<event>
 6    1  0.2866116E-002  0.9106661E+02  0.7546771E-02  0.1388572E+00
         -2   -1    0    0    0  501 -0.00000000000E+00  0.00000000000E+00  0.24038679453E+02  0.24038679453E+02  0.00000000000E+00 0.  1.
          2   -1    0    0  501    0  0.00000000000E+00 -0.00000000000E+00 -0.12806235226E+03  0.12806235226E+03  0.00000000000E+00 0. -1.
         23    2    1    2    0    0 -0.13424978886E+02  0.14689070594E+02 -0.85093053579E+02  0.12463528582E+03  0.88865785607E+02 0.  0.
         11    1    3    3    0    0 -0.32968160231E+02 -0.11702584539E+02 -0.84867014357E+02  0.91794663242E+02  0.00000000000E+00 0. -1.
        -11    1    3    3    0    0  0.19543181345E+02  0.26391655133E+02 -0.22603922252E+00  0.32840622580E+02  0.00000000000E+00 0.  1.
         22    1    1    2    0    0  0.13424978886E+02 -0.14689070594E+02 -0.18930619231E+02  0.27465745893E+02  0.00000000000E+00 0.  1.
<mgrwt>
<rscale>  0 0.62263152E+02</rscale>
<asrwt>0</asrwt>
<pdfrwt beam="1">  1        2 0.19701900E-01 0.91066606E+02</pdfrwt>
<pdfrwt beam="2">  1       -2 0.36982584E-02 0.91066606E+02</pdfrwt>
<totfact> 0.74866949E+04</totfact>
</mgrwt>
</event>
<event>
 6    1  0.2866116E-002  0.1022585E+03  0.7546771E-02  0.1321879E+00
          2   -1    0    0  501    0  0.00000000000E+00  0.00000000000E+00  0.48475251896E+03  0.48475251896E+03  0.00000000000E+00 0. -1.
         -2   -1    0    0    0  501 -0.00000000000E+00 -0.00000000000E+00 -0.15152942145E+02  0.15152942145E+02  0.00000000000E+00 0.  1.
         23    2    1    2    0    0  0.17642023864E+02  0.39757730489E+02  0.42681419248E+03  0.43889310782E+03  0.92546675020E+02 0.  0.
         13    1    3    3    0    0 -0.10159065491E+02  0.21005831914E+02  0.38304194086E+03  0.38375197725E+03  0.00000000000E+00 0. -1.
        -13    1    3    3    0    0  0.27801089355E+02  0.18751898575E+02  0.43772251618E+02  0.55141130576E+02  0.00000000000E+00 0.  1.
         22    1    1    2    0    0 -0.17642023864E+02 -0.39757730489E+02  0.42785384336E+02  0.61012353277E+02  0.00000000000E+00 0.  1.
<mgrwt>
<rscale>  0 0.82582386E+02</rscale>
<asrwt>0</asrwt>
<pdfrwt beam="1">  1        2 0.74577299E-01 0.10225852E+03</pdfrwt>
<pdfrwt beam="2">  1       -2 0.23312222E-02 0.10225852E+03</pdfrwt>
<totfact> 0.35878044E+04</totfact>
</mgrwt>
</event>
<event>
 6    1  0.2866116E-002  0.9265271E+02  0.7546771E-02  0.1420490E+00
          2   -1    0    0  501    0  0.00000000000E+00  0.00000000000E+00  0.42567324601E+02  0.42567324601E+02  0.00000000000E+00 0. -1.
         -2   -1    0    0    0  501 -0.00000000000E+00 -0.00000000000E+00 -0.73183331027E+02  0.73183331027E+02  0.00000000000E+00 0.  1.
         23    2    1    2    0    0 -0.89690164368E+01 -0.70944827434E+01 -0.11348628781E+02  0.93345147766E+02  0.91944278207E+02 0.  0.
         11    1    3    3    0    0 -0.38711771013E+02 -0.34249630487E+02 -0.12011601721E+02  0.53065214401E+02  0.00000000000E+00 0.  1.
        -11    1    3    3    0    0  0.29742754577E+02  0.27155147743E+02  0.66297293990E+00  0.40279933365E+02  0.00000000000E+00 0. -1.
         22    1    1    2    0    0  0.89690164368E+01  0.70944827434E+01 -0.19267377645E+02  0.22405507862E+02  0.00000000000E+00 0.  1.
<mgrwt>
<rscale>  0 0.54917299E+02</rscale>
<asrwt>0</asrwt>
<pdfrwt beam="1">  1        2 0.65488192E-02 0.92652713E+02</pdfrwt>
<pdfrwt beam="2">  1       -2 0.11258974E-01 0.92652713E+02</pdfrwt>
<totfact> 0.51979929E+04</totfact>
</mgrwt>
</event>
<event>
 6    1  0.2866116E-002  0.1018438E+03  0.7546771E-02  0.1322231E+00
          2   -1    0    0  501    0  0.00000000000E+00  0.00000000000E+00  0.15509362637E+04  0.15509362637E+04  0.00000000000E+00 0. -1.
         -2   -1    0    0    0  501 -0.00000000000E+00 -0.00000000000E+00 -0.45967804095E+01  0.45967804095E+01  0.00000000000E+00 0.  1.
         23    2    1    2    0    0  0.26052661844E+02  0.35152492493E+02  0.13724413606E+04  0.13762149023E+04  0.91965917710E+02 0.  0.
         11    1    3    3    0    0  0.11637302781E+01 -0.31016452594E+02  0.44882532248E+03  0.44989726016E+03  0.00000000000E+00 0.  1.
        -11    1    3    3    0    0  0.24888931566E+02  0.66168945087E+02  0.92361603816E+03  0.92631764215E+03  0.00000000000E+00 0. -1.
         22    1    1    2    0    0 -0.26052661844E+02 -0.35152492493E+02  0.17389812262E+03  0.17931814177E+03  0.00000000000E+00 0.  1.
<mgrwt>
<rscale>  0 0.82452966E+02</rscale>
<asrwt>0</asrwt>
<pdfrwt beam="1">  1        2 0.23860516E+00 0.10184385E+03</pdfrwt>
<pdfrwt beam="2">  1       -2 0.70719822E-03 0.10184385E+03</pdfrwt>
<totfact> 0.42024230E+04</totfact>
</mgrwt>
</event>
<event>
 6    1  0.2866116E-002  0.9962153E+02  0.7546771E-02  0.1330822E+00
         -2   -1    0    0    0  501 -0.00000000000E+00  0.00000000000E+00  0.49219100086E+01  0.49219100086E+01  0.00000000000E+00 0.  1.
          2   -1    0    0  501    0  0.00000000000E+00 -0.00000000000E+00 -0.29200193278E+04  0.29200193278E+04  0.00000000000E+00 0. -1.
         23    2    1    2    0    0  0.40091185324E+02 -0.23157142857E+01 -0.28193994925E+04  0.28211589726E+04  0.91168988641E+02 0.  0.
         13    1    3    3    0    0  0.65847190731E+02  0.48764659856E+01 -0.14549236548E+04  0.14564211182E+04  0.00000000000E+00 0. -1.
        -13    1    3    3    0    0 -0.25756005406E+02 -0.71921802712E+01 -0.13644758378E+04  0.13647378544E+04  0.00000000000E+00 0.  1.
         22    1    1    2    0    0 -0.40091185324E+02  0.23157142857E+01 -0.95697925225E+02  0.10378226518E+03  0.00000000000E+00 0.  1.
<mgrwt>
<rscale>  0 0.79379428E+02</rscale>
<asrwt>0</asrwt>
<pdfrwt beam="1">  1        2 0.44923257E+00 0.99621535E+02</pdfrwt>
<pdfrwt beam="2">  1       -2 0.75721889E-03 0.99621535E+02</pdfrwt>
<totfact> 0.73899183E+03</totfact>
</mgrwt>
</event>
<event>
 6    1  0.2866116E-002  0.9477127E+02  0.7546771E-02  0.1409786E+00
         -2   -1    0    0    0  501 -0.00000000000E+00  0.00000000000E+00  0.13934204178E+02  0.13934204178E+02  0.00000000000E+00 0.  1.
          2   -1    0    0  501    0  0.00000000000E+00 -0.00000000000E+00 -0.22279867376E+03  0.22279867376E+03  0.00000000000E+00 0. -1.
         23    2    1    2    0    0 -0.43371945934E+00 -0.12605605087E+02 -0.19999552876E+03  0.22131381495E+03  0.93928184115E+02 0.  0.
         13    1    3    3    0    0 -0.24251683841E+02  0.81972128026E+01 -0.81298954914E+01  0.26859517262E+02  0.00000000000E+00 0.  1.
        -13    1    3    3    0    0  0.23817964382E+02 -0.20802817889E+02 -0.19186563327E+03  0.19445429768E+03  0.00000000000E+00 0. -1.
         22    1    1    2    0    0  0.43371945934E+00  0.12605605087E+02 -0.88689408222E+01  0.15419062990E+02  0.00000000000E+00 0.  1.
<mgrwt>
<rscale>  0 0.57241719E+02</rscale>
<asrwt>0</asrwt>
<pdfrwt beam="1">  1        2 0.34276718E-01 0.94771268E+02</pdfrwt>
<pdfrwt beam="2">  1       -2 0.21437238E-02 0.94771268E+02</pdfrwt>
<totfact> 0.91079208E+04</totfact>
</mgrwt>
</event>
<event>
 6    1  0.2866116E-002  0.9207019E+02  0.7546771E-02  0.1425114E+00
          4   -1    0    0  501    0  0.00000000000E+00  0.00000000000E+00  0.21265545461E+03  0.21265545461E+03  0.00000000000E+00 0. -1.
         -4   -1    0    0    0  501 -0.00000000000E+00 -0.00000000000E+00 -0.13530873915E+02  0.13530873915E+02  0.00000000000E+00 0.  1.
         23    2    1    2    0    0  0.90656763763E+01  0.59743092731E+01  0.19271328891E+03  0.21357746173E+03  0.91427794344E+02 0.  0.
         11    1    3    3    0    0 -0.40323510156E+01  0.31901391652E+02  0.17825195350E+03  0.18112900809E+03  0.00000000000E+00 0. -1.
        -11    1    3    3    0    0  0.13098027392E+02 -0.25927082379E+02  0.14461335411E+02  0.32448453648E+02  0.00000000000E+00 0.  1.
         22    1    1    2    0    0 -0.90656763763E+01 -0.59743092731E+01  0.64112917878E+01  0.12608866794E+02  0.00000000000E+00 0. -1.
<mgrwt>
<rscale>  0 0.53953395E+02</rscale>
<asrwt>0</asrwt>
<pdfrwt beam="1">  1        4 0.32716221E-01 0.92070193E+02</pdfrwt>
<pdfrwt beam="2">  1       -4 0.20816731E-02 0.92070193E+02</pdfrwt>
<totfact> 0.12526730E+04</totfact>
</mgrwt>
</event>
<event>
 6    1  0.2866116E-002  0.9787534E+02  0.7546771E-02  0.1349932E+00
          2   -1    0    0  501    0  0.00000000000E+00  0.00000000000E+00  0.76255841398E+02  0.76255841398E+02  0.00000000000E+00 0. -1.
         -2   -1    0    0    0  501 -0.00000000000E+00 -0.00000000000E+00 -0.13979007715E+03  0.13979007715E+03  0.00000000000E+00 0.  1.
         23    2    1    2    0    0 -0.30348637696E+02 -0.20209211597E+01  0.41785720593E+02  0.10642193788E+03  0.93029342063E+02 0.  0.
         13    1    3    3    0    0 -0.40144711573E+02 -0.22411250160E+02 -0.12471144924E+02  0.47638130282E+02  0.00000000000E+00 0. -1.
        -13    1    3    3    0    0  0.97960738771E+01  0.20390329001E+02  0.54256865518E+02  0.58783807600E+02  0.00000000000E+00 0.  1.
         22    1    1    2    0    0  0.30348637696E+02  0.20209211597E+01 -0.10531995635E+03  0.10962398067E+03  0.00000000000E+00 0.  1.
<mgrwt>
<rscale>  0 0.73076873E+02</rscale>
<asrwt>0</asrwt>
<pdfrwt beam="1">  1        2 0.11731668E-01 0.97875341E+02</pdfrwt>
<pdfrwt beam="2">  1       -2 0.21506165E-01 0.97875341E+02</pdfrwt>
<totfact> 0.88994828E+03</totfact>
</mgrwt>
</event>
<event>
 6    1  0.2866116E-002  0.9801319E+02  0.7546771E-02  0.1381782E+00
         -2   -1    0    0    0  501 -0.00000000000E+00  0.00000000000E+00  0.12380110433E+02  0.12380110433E+02  0.00000000000E+00 0.  1.
          2   -1    0    0  501    0  0.00000000000E+00 -0.00000000000E+00 -0.30427621670E+03  0.30427621670E+03  0.00000000000E+00 0. -1.
         23    2    1    2    0    0 -0.13472908926E+02  0.11656739982E+02 -0.27560742841E+03  0.29251673542E+03  0.96380428723E+02 0.  0.
         13    1    3    3    0    0 -0.10467664121E+02  0.51916199085E+02 -0.19894738017E+03  0.20587599131E+03  0.00000000000E+00 0. -1.
        -13    1    3    3    0    0 -0.30052448044E+01 -0.40259459103E+02 -0.76660048240E+02  0.86640744108E+02  0.00000000000E+00 0.  1.
         22    1    1    2    0    0  0.13472908926E+02 -0.11656739982E+02 -0.16288677852E+02  0.24139591714E+02  0.00000000000E+00 0. -1.
<mgrwt>
<rscale>  0 0.63997657E+02</rscale>
<asrwt>0</asrwt>
<pdfrwt beam="1">  1        2 0.46811723E-01 0.98013192E+02</pdfrwt>
<pdfrwt beam="2">  1       -2 0.19046325E-02 0.98013192E+02</pdfrwt>
<totfact> 0.78170539E+04</totfact>
</mgrwt>
</event>
<event>
 6    1  0.2866116E-002  0.9014809E+02  0.7546771E-02  0.1428704E+00
          2   -1    0    0  501    0  0.00000000000E+00  0.00000000000E+00  0.38410906326E+03  0.38410906326E+03  0.00000000000E+00 0.  1.
         -2   -1    0    0    0  501 -0.00000000000E+00 -0.00000000000E+00 -0.69204995378E+01  0.69204995378E+01  0.00000000000E+00 0. -1.
         23    2    1    2    0    0 -0.93277593607E+01 -0.57378857030E+01  0.35525018532E+03  0.36650971626E+03  0.89480430934E+02 0.  0.
         13    1    3    3    0    0  0.23311224283E+02  0.11818619363E+02  0.32813983186E+02  0.41950571316E+02  0.00000000000E+00 0. -1.
        -13    1    3    3    0    0 -0.32638983644E+02 -0.17556505066E+02  0.32243620213E+03  0.32455914495E+03  0.00000000000E+00 0.  1.
         22    1    1    2    0    0  0.93277593607E+01  0.57378857030E+01  0.21938378399E+02  0.24519846529E+02  0.00000000000E+00 0. -1.
<mgrwt>
<rscale>  0 0.53221066E+02</rscale>
<asrwt>0</asrwt>
<pdfrwt beam="1">  1        2 0.59093685E-01 0.90148089E+02</pdfrwt>
<pdfrwt beam="2">  1       -2 0.10646925E-02 0.90148089E+02</pdfrwt>
<totfact> 0.13866160E+05</totfact>
</mgrwt>
</event>
<event>
 6    1  0.2866116E-002  0.8417167E+02  0.7546771E-02  0.1412606E+00
          2   -1    0    0  501    0  0.00000000000E+00  0.00000000000E+00  0.66368620588E+03  0.66368620588E+03  0.00000000000E+00 0. -1.
         -2   -1    0    0    0  501 -0.00000000000E+00 -0.00000000000E+00 -0.53533408471E+01  0.53533408471E+01  0.00000000000E+00 0.  1.
         23    2    1    2    0    0 -0.16875060142E+01 -0.17146632328E+02  0.63193797683E+03  0.63751900105E+03  0.82389413512E+02 0.  0.
         11    1    3    3    0    0  0.57315345602E+01 -0.78629605995E+01  0.59228482967E+01  0.11391082905E+02  0.00000000000E+00 0.  1.
        -11    1    3    3    0    0 -0.74190405743E+01 -0.92836717281E+01  0.62601512854E+03  0.62612791815E+03  0.00000000000E+00 0. -1.
         22    1    1    2    0    0  0.16875060142E+01  0.17146632328E+02  0.26394888201E+02  0.31520545678E+02  0.00000000000E+00 0.  1.
<mgrwt>
<rscale>  0 0.56616426E+02</rscale>
<asrwt>0</asrwt>
<pdfrwt beam="1">  1        2 0.10210551E+00 0.84171671E+02</pdfrwt>
<pdfrwt beam="2">  1       -2 0.82359142E-03 0.84171671E+02</pdfrwt>
<totfact> 0.10889978E+05</totfact>
</mgrwt>
</event>
<event>
 6    1  0.2866116E-002  0.9282822E+02  0.7546771E-02  0.1389885E+00
          2   -1    0    0  501    0  0.00000000000E+00  0.00000000000E+00  0.48907780829E+03  0.48907780829E+03  0.00000000000E+00 0. -1.
         -2   -1    0    0    0  501 -0.00000000000E+00 -0.00000000000E+00 -0.64081466130E+01  0.64081466130E+01  0.00000000000E+00 0.  1.
         23    2    1    2    0    0 -0.14536408828E+02 -0.11273593175E+02  0.37943688624E+03  0.39062696860E+03  0.90987234660E+02 0.  0.
         11    1    3    3    0    0 -0.14736509876E+02 -0.83198665389E+01  0.38444068437E+03  0.38481297366E+03  0.00000000000E+00 0. -1.
        -11    1    3    3    0    0  0.20010104748E+00 -0.29537266359E+01 -0.50037981238E+01  0.58139949375E+01  0.00000000000E+00 0.  1.
         22    1    1    2    0    0  0.14536408828E+02  0.11273593175E+02  0.10323277544E+03  0.10485898630E+03  0.00000000000E+00 0. -1.
<mgrwt>
<rscale>  0 0.61935404E+02</rscale>
<asrwt>0</asrwt>
<pdfrwt beam="1">  1        2 0.75242710E-01 0.92828217E+02</pdfrwt>
<pdfrwt beam="2">  1       -2 0.98586910E-03 0.92828217E+02</pdfrwt>
<totfact> 0.12016913E+05</totfact>
</mgrwt>
</event>
<event>
 6    1  0.2866116E-002  0.9192445E+02  0.7546771E-02  0.1419550E+00
         -2   -1    0    0    0  501 -0.00000000000E+00  0.00000000000E+00  0.32528027276E+01  0.32528027276E+01  0.00000000000E+00 0.  1.
          2   -1    0    0  501    0  0.00000000000E+00 -0.00000000000E+00 -0.83641218046E+03  0.83641218046E+03  0.00000000000E+00 0. -1.
         23    2    1    2    0    0  0.11306760790E+02 -0.36462815810E+01 -0.76137698739E+03  0.76690613650E+03  0.91153535619E+02 0.  0.
         13    1    3    3    0    0 -0.14437230275E+02  0.18486469052E+02 -0.65107902032E+03  0.65150139974E+03  0.00000000000E+00 0. -1.
        -13    1    3    3    0    0  0.25743991065E+02 -0.22132750633E+02 -0.11029796707E+03  0.11540473676E+03  0.00000000000E+00 0.  1.
         22    1    1    2    0    0 -0.11306760790E+02  0.36462815810E+01 -0.71782390336E+02  0.72758846688E+02  0.00000000000E+00 0. -1.
<mgrwt>
<rscale>  0 0.55116150E+02</rscale>
<asrwt>0</asrwt>
<pdfrwt beam="1">  1        2 0.12867888E+00 0.91924454E+02</pdfrwt>
<pdfrwt beam="2">  1       -2 0.50043085E-03 0.91924454E+02</pdfrwt>
<totfact> 0.16865245E+05</totfact>
</mgrwt>
</event>
<event>
 6    1  0.2866116E-002  0.9263925E+02  0.7546771E-02  0.1384384E+00
          2   -1    0    0  501    0  0.00000000000E+00  0.00000000000E+00  0.18858614844E+04  0.18858614844E+04  0.00000000000E+00 0. -1.
         -2   -1    0    0    0  501 -0.00000000000E+00 -0.00000000000E+00 -0.22007226764E+01  0.22007226764E+01  0.00000000000E+00 0.  1.
         23    2    1    2    0    0 -0.10484355614E+02 -0.17297302282E+02  0.17821367120E+04  0.17845428801E+04  0.90404161369E+02 0.  0.
         13    1    3    3    0    0 -0.21378469076E+02  0.25755048726E+02  0.12824209259E+04  0.12828576666E+04  0.00000000000E+00 0. -1.
        -13    1    3    3    0    0  0.10894113462E+02 -0.43052351009E+02  0.49971578605E+03  0.50168521352E+03  0.00000000000E+00 0.  1.
         22    1    1    2    0    0  0.10484355614E+02  0.17297302282E+02  0.10152404976E+03  0.10351932698E+03  0.00000000000E+00 0.  1.
<mgrwt>
<rscale>  0 0.63325321E+02</rscale>
<asrwt>0</asrwt>
<pdfrwt beam="1">  1        2 0.29013124E+00 0.92639251E+02</pdfrwt>
<pdfrwt beam="2">  1       -2 0.33857423E-03 0.92639251E+02</pdfrwt>
<totfact> 0.79352388E+04</totfact>
</mgrwt>
</event>
<event>
 6    1  0.2866116E-002  0.9391860E+02  0.7546771E-02  0.1354267E+00
         -2   -1    0    0    0  501 -0.00000000000E+00  0.00000000000E+00  0.81997928220E+01  0.81997928220E+01  0.00000000000E+00 0.  1.
          2   -1    0    0  501    0  0.00000000000E+00 -0.00000000000E+00 -0.48331172394E+03  0.48331172394E+03  0.00000000000E+00 0. -1.
         23    2    1    2    0    0 -0.18185434639E+02  0.26303034324E+02 -0.35704914268E+03  0.36919478994E+03  0.88307094730E+02 0.  0.
         11    1    3    3    0    0  0.21506575183E+02 -0.19582669596E+02 -0.17232260063E+03  0.17476009960E+03  0.00000000000E+00 0. -1.
        -11    1    3    3    0    0 -0.39692009822E+02  0.45885703920E+02 -0.18472654205E+03  0.19443469034E+03  0.00000000000E+00 0.  1.
         22    1    1    2    0    0  0.18185434639E+02 -0.26303034324E+02 -0.11806278843E+03  0.12231672682E+03  0.00000000000E+00 0. -1.
<mgrwt>
<rscale>  0 0.71742214E+02</rscale>
<asrwt>0</asrwt>
<pdfrwt beam="1">  1        2 0.74355647E-01 0.93918596E+02</pdfrwt>
<pdfrwt beam="2">  1       -2 0.12615066E-02 0.93918596E+02</pdfrwt>
<totfact> 0.85921705E+04</totfact>
</mgrwt>
</event>
<event>
 6    1  0.2866116E-002  0.9571657E+02  0.7546771E-02  0.1356966E+00
          2   -1    0    0  501    0  0.00000000000E+00  0.00000000000E+00  0.38281484593E+03  0.38281484593E+03  0.00000000000E+00 0. -1.
         -2   -1    0    0    0  501 -0.00000000000E+00 -0.00000000000E+00 -0.10739075029E+02  0.10739075029E+02  0.00000000000E+00 0.  1.
         23    2    1    2    0    0 -0.13313697002E+02 -0.25606135170E+02  0.32008494344E+03  0.33408985764E+03  0.91261893880E+02 0.  0.
         13    1    3    3    0    0  0.33318981760E+02 -0.34632504796E+02  0.15131012218E+03  0.15875867852E+03  0.00000000000E+00 0.  1.
        -13    1    3    3    0    0 -0.46632678763E+02  0.90263696258E+01  0.16877482127E+03  0.17533117912E+03  0.00000000000E+00 0. -1.
         22    1    1    2    0    0  0.13313697002E+02  0.25606135170E+02  0.51990827459E+02  0.59464063316E+02  0.00000000000E+00 0. -1.
<mgrwt>
<rscale>  0 0.70927773E+02</rscale>
<asrwt>0</asrwt>
<pdfrwt beam="1">  1        2 0.58894581E-01 0.95716571E+02</pdfrwt>
<pdfrwt beam="2">  1       -2 0.16521657E-02 0.95716571E+02</pdfrwt>
<totfact> 0.75091301E+04</totfact>
</mgrwt>
</event>
<event>
 6    1  0.2866116E-002  0.9031168E+02  0.7546771E-02  0.1417805E+00
          2   -1    0    0  501    0  0.00000000000E+00  0.00000000000E+00  0.82563265162E+03  0.82563265162E+03  0.00000000000E+00 0. -1.
         -2   -1    0    0    0  501 -0.00000000000E+00 -0.00000000000E+00 -0.49145593991E+02  0.49145593991E+02  0.00000000000E+00 0.  1.
         23    2    1    2    0    0  0.74318704391E+01 -0.10506836882E+02  0.82227315493E+03  0.82721783112E+03  0.89390002124E+02 0.  0.
         13    1    3    3    0    0  0.18352756440E+02  0.23765397125E+02  0.67309196635E+03  0.67376139169E+03  0.00000000000E+00 0. -1.
        -13    1    3    3    0    0 -0.10920886001E+02 -0.34272234007E+02  0.14918118858E+03  0.15345643943E+03  0.00000000000E+00 0.  1.
         22    1    1    2    0    0 -0.74318704391E+01  0.10506836882E+02 -0.45786097308E+02  0.47560414487E+02  0.00000000000E+00 0.  1.
<mgrwt>
<rscale>  0 0.55488003E+02</rscale>
<asrwt>0</asrwt>
<pdfrwt beam="1">  1        2 0.12702040E+00 0.90311676E+02</pdfrwt>
<pdfrwt beam="2">  1       -2 0.75608612E-02 0.90311676E+02</pdfrwt>
<totfact> 0.33933064E+03</totfact>
</mgrwt>
</event>
<event>
 6    1  0.2866116E-002  0.9024817E+02  0.7546771E-02  0.1418208E+00
         -2   -1    0    0    0  501 -0.00000000000E+00  0.00000000000E+00  0.36599846906E+03  0.36599846906E+03  0.00000000000E+00 0.  1.
          2   -1    0    0  501    0  0.00000000000E+00 -0.00000000000E+00 -0.72646581537E+01  0.72646581537E+01  0.00000000000E+00 0. -1.
         23    2    1    2    0    0  0.52240795493E+01  0.11703866862E+02  0.31827048623E+03  0.33081843202E+03  0.89333426270E+02 0.  0.
         11    1    3    3    0    0  0.24250291823E+01  0.31740673446E+02  0.30492442802E+03  0.30658156813E+03  0.00000000000E+00 0. -1.
        -11    1    3    3    0    0  0.27990503670E+01 -0.20036806584E+02  0.13346058214E+02  0.24236863883E+02  0.00000000000E+00 0.  1.
         22    1    1    2    0    0 -0.52240795493E+01 -0.11703866862E+02  0.40463324678E+02  0.42444695200E+02  0.00000000000E+00 0. -1.
<mgrwt>
<rscale>  0 0.55401827E+02</rscale>
<asrwt>0</asrwt>
<pdfrwt beam="1">  1        2 0.11176400E-02 0.90248172E+02</pdfrwt>
<pdfrwt beam="2">  1       -2 0.56307442E-01 0.90248172E+02</pdfrwt>
<totfact> 0.32252082E+04</totfact>
</mgrwt>
</event>
<event>
 6    1  0.2866116E-002  0.8888841E+02  0.7546771E-02  0.1381556E+00
          2   -1    0    0  501    0  0.00000000000E+00  0.00000000000E+00  0.17513934277E+03  0.17513934277E+03  0.00000000000E+00 0. -1.
         -2   -1    0    0    0  501 -0.00000000000E+00 -0.00000000000E+00 -0.36260200622E+02  0.36260200622E+02  0.00000000000E+00 0.  1.
         23    2    1    2    0    0 -0.19561937166E+02  0.13857466230E+02  0.15762958082E+03  0.18096473263E+03  0.85594689961E+02 0.  0.
         13    1    3    3    0    0 -0.11714076391E+02  0.29485743840E+02  0.11430856753E+02  0.33723777392E+02  0.00000000000E+00 0.  1.
        -13    1    3    3    0    0 -0.78478607747E+01 -0.15628277610E+02  0.14619872407E+03  0.14724095524E+03  0.00000000000E+00 0. -1.
         22    1    1    2    0    0  0.19561937166E+02 -0.13857466230E+02 -0.18750438671E+02  0.30434810766E+02  0.00000000000E+00 0.  1.
<mgrwt>
<rscale>  0 0.64056601E+02</rscale>
<asrwt>0</asrwt>
<pdfrwt beam="1">  1        2 0.26944514E-01 0.88888412E+02</pdfrwt>
<pdfrwt beam="2">  1       -2 0.55784925E-02 0.88888412E+02</pdfrwt>
<totfact> 0.28806909E+04</totfact>
</mgrwt>
</event>
<event>
 6    1  0.2866116E-002  0.9971486E+02  0.7546771E-02  0.1332803E+00
         -2   -1    0    0    0  501 -0.00000000000E+00  0.00000000000E+00  0.17197751771E+02  0.17197751771E+02  0.00000000000E+00 0.  1.
          2   -1    0    0  501    0  0.00000000000E+00 -0.00000000000E+00 -0.49792180132E+03  0.49792180132E+03  0.00000000000E+00 0. -1.
         23    2    1    2    0    0  0.17120970394E+02  0.34681506062E+02 -0.46108080921E+03  0.47173993367E+03  0.91908203688E+02 0.  0.
         11    1    3    3    0    0  0.20214261892E+02  0.30933713791E+02 -0.58915645234E+02  0.69545411682E+02  0.00000000000E+00 0.  1.
        -11    1    3    3    0    0 -0.30932914984E+01  0.37477922710E+01 -0.40216516398E+03  0.40219452199E+03  0.00000000000E+00 0. -1.
         22    1    1    2    0    0 -0.17120970394E+02 -0.34681506062E+02 -0.19643240332E+02  0.43379619416E+02  0.00000000000E+00 0.  1.
<mgrwt>
<rscale>  0 0.78692614E+02</rscale>
<asrwt>0</asrwt>
<pdfrwt beam="1">  1        2 0.76603364E-01 0.99714855E+02</pdfrwt>
<pdfrwt beam="2">  1       -2 0.26458076E-02 0.99714855E+02</pdfrwt>
<totfact> 0.28930546E+04</totfact>
</mgrwt>
</event>
<event>
 6    1  0.2866116E-002  0.9270433E+02  0.7546771E-02  0.1426028E+00
          1   -1    0    0  501    0  0.00000000000E+00  0.00000000000E+00  0.65974697480E+03  0.65974697480E+03  0.00000000000E+00 0. -1.
         -1   -1    0    0    0  501 -0.00000000000E+00 -0.00000000000E+00 -0.40524233791E+01  0.40524233791E+01  0.00000000000E+00 0.  1.
         23    2    1    2    0    0 -0.81072992613E+01 -0.66544990762E+01  0.60107183092E+03  0.60817878820E+03  0.92109075744E+02 0.  0.
         13    1    3    3    0    0 -0.18857452782E+02  0.40275981642E+02  0.27552479670E+03  0.27909079494E+03  0.00000000000E+00 0.  1.
        -13    1    3    3    0    0  0.10750153521E+02 -0.46930480718E+02  0.32554703421E+03  0.32908799326E+03  0.00000000000E+00 0. -1.
         22    1    1    2    0    0  0.81072992613E+01  0.66544990762E+01  0.54622720502E+02  0.55620609977E+02  0.00000000000E+00 0.  1.
<mgrwt>
<rscale>  0 0.53765582E+02</rscale>
<asrwt>0</asrwt>
<pdfrwt beam="1">  1        1 0.10149945E+00 0.92704328E+02</pdfrwt>
<pdfrwt beam="2">  1       -1 0.62345028E-03 0.92704328E+02</pdfrwt>
<totfact> 0.10011977E+05</totfact>
</mgrwt>
</event>
<event>
 6    1  0.2866116E-002  0.1193442E+03  0.7546771E-02  0.1301046E+00
          4   -1    0    0  501    0  0.00000000000E+00  0.00000000000E+00  0.35659257809E+03  0.35659257809E+03  0.00000000000E+00 0.  1.
         -4   -1    0    0    0  501 -0.00000000000E+00 -0.00000000000E+00 -0.13067205094E+03  0.13067205094E+03  0.00000000000E+00 0. -1.
         23    2    1    2    0    0  0.30969130585E+02  0.25158660657E+02  0.34321334070E+03  0.36337092715E+03  0.11247661182E+03 0.  0.
         13    1    3    3    0    0 -0.22023595768E+02  0.14202467570E+02  0.13944280324E+02  0.29684875095E+02  0.00000000000E+00 0. -1.
        -13    1    3    3    0    0  0.52992726353E+02  0.10956193087E+02  0.32926906038E+03  0.33368605205E+03  0.00000000000E+00 0.  1.
         22    1    1    2    0    0 -0.30969130585E+02 -0.25158660657E+02 -0.11729281355E+03  0.12389370188E+03  0.00000000000E+00 0. -1.
<mgrwt>
<rscale>  0 0.90749734E+02</rscale>
<asrwt>0</asrwt>
<pdfrwt beam="1">  1        4 0.54860396E-01 0.11934418E+03</pdfrwt>
<pdfrwt beam="2">  1       -4 0.20103393E-01 0.11934418E+03</pdfrwt>
<totfact> 0.11733302E+02</totfact>
</mgrwt>
</event>
<event>
 6    1  0.2866116E-002  0.9379868E+02  0.7546771E-02  0.1374227E+00
         -2   -1    0    0    0  501 -0.00000000000E+00  0.00000000000E+00  0.77543781042E+02  0.77543781042E+02  0.00000000000E+00 0.  1.
          2   -1    0    0  501    0  0.00000000000E+00 -0.00000000000E+00 -0.50041693402E+02  0.50041693402E+02  0.00000000000E+00 0. -1.
         23    2    1    2    0    0 -0.11906484375E+02  0.19679236356E+02  0.28106363694E+01  0.93840778867E+02  0.90934896425E+02 0.  0.
         13    1    3    3    0    0 -0.36785029243E+02  0.37109042783E+02  0.23288411445E+02  0.57206376745E+02  0.00000000000E+00 0.  1.
        -13    1    3    3    0    0  0.24878544868E+02 -0.17429806426E+02 -0.20477775076E+02  0.36634402122E+02  0.00000000000E+00 0. -1.
         22    1    1    2    0    0  0.11906484375E+02 -0.19679236356E+02  0.24691451270E+02  0.33744695577E+02  0.00000000000E+00 0.  1.
<mgrwt>
<rscale>  0 0.66005977E+02</rscale>
<asrwt>0</asrwt>
<pdfrwt beam="1">  1        2 0.76987221E-02 0.93798679E+02</pdfrwt>
<pdfrwt beam="2">  1       -2 0.11929812E-01 0.93798679E+02</pdfrwt>
<totfact> 0.38795393E+04</totfact>
</mgrwt>
</event>
<event>
 6    1  0.2866116E-002  0.9661243E+02  0.7546771E-02  0.1360561E+00
          2   -1    0    0  501    0  0.00000000000E+00  0.00000000000E+00  0.43081189630E+03  0.43081189630E+03  0.00000000000E+00 0. -1.
         -2   -1    0    0    0  501 -0.00000000000E+00 -0.00000000000E+00 -0.49469299429E+02  0.49469299429E+02  0.00000000000E+00 0.  1.
         23    2    1    2    0    0 -0.21822533712E+02 -0.14886939154E+02  0.42138029198E+03  0.43231390515E+03  0.92930717105E+02 0.  0.
         13    1    3    3    0    0 -0.18690115715E+02  0.37828972801E+02  0.14887612491E+03  0.15473995016E+03  0.00000000000E+00 0. -1.
        -13    1    3    3    0    0 -0.31324179977E+01 -0.52715911955E+02  0.27250416707E+03  0.27757395499E+03  0.00000000000E+00 0.  1.
         22    1    1    2    0    0  0.21822533712E+02  0.14886939154E+02 -0.40037695114E+02  0.47967290575E+02  0.00000000000E+00 0.  1.
<mgrwt>
<rscale>  0 0.69862569E+02</rscale>
<asrwt>0</asrwt>
<pdfrwt beam="1">  1        2 0.66278751E-01 0.96612433E+02</pdfrwt>
<pdfrwt beam="2">  1       -2 0.76106617E-02 0.96612433E+02</pdfrwt>
<totfact> 0.70284531E+03</totfact>
</mgrwt>
</event>
<event>
 6    1  0.2866116E-002  0.1180871E+03  0.7546771E-02  0.1269527E+00
         -2   -1    0    0    0  501 -0.00000000000E+00  0.00000000000E+00  0.15642546360E+03  0.15642546360E+03  0.00000000000E+00 0.  1.
          2   -1    0    0  501    0  0.00000000000E+00 -0.00000000000E+00 -0.59385472989E+02  0.59385472989E+02  0.00000000000E+00 0. -1.
         23    2    1    2    0    0 -0.66619610560E+02 -0.33719965395E+02  0.60444718315E+02  0.13265792984E+03  0.91484172395E+02 0.  0.
         13    1    3    3    0    0 -0.28583051969E+02 -0.22233300327E+02  0.80412160538E+02  0.88189716326E+02  0.00000000000E+00 0.  1.
        -13    1    3    3    0    0 -0.38036558591E+02 -0.11486665068E+02 -0.19967442223E+02  0.44468213510E+02  0.00000000000E+00 0. -1.
         22    1    1    2    0    0  0.66619610560E+02  0.33719965395E+02  0.36595272293E+02  0.83153006750E+02  0.00000000000E+00 0.  1.
<mgrwt>
<rscale>  0 0.10530148E+03</rscale>
<asrwt>0</asrwt>
<pdfrwt beam="1">  1        2 0.91362267E-02 0.11808710E+03</pdfrwt>
<pdfrwt beam="2">  1       -2 0.24065456E-01 0.11808710E+03</pdfrwt>
<totfact> 0.10113579E+04</totfact>
</mgrwt>
</event>
<event>
 6    1  0.2866116E-002  0.9422225E+02  0.7546771E-02  0.1370339E+00
          2   -1    0    0  501    0  0.00000000000E+00  0.00000000000E+00  0.11092666230E+03  0.11092666230E+03  0.00000000000E+00 0. -1.
         -2   -1    0    0    0  501 -0.00000000000E+00 -0.00000000000E+00 -0.42653808412E+02  0.42653808412E+02  0.00000000000E+00 0.  1.
         23    2    1    2    0    0  0.21368772185E+02 -0.11348710813E+02  0.82736097393E+02  0.12539176598E+03  0.91062700942E+02 0.  0.
         13    1    3    3    0    0  0.10936270076E+02 -0.51480464702E+02  0.43026576331E+02  0.67978868186E+02  0.00000000000E+00 0. -1.
        -13    1    3    3    0    0  0.10432502109E+02  0.40131753889E+02  0.39709521062E+02  0.57412897797E+02  0.00000000000E+00 0.  1.
         22    1    1    2    0    0 -0.21368772185E+02  0.11348710813E+02 -0.14463243503E+02  0.28188704731E+02  0.00000000000E+00 0.  1.
<mgrwt>
<rscale>  0 0.67073095E+02</rscale>
<asrwt>0</asrwt>
<pdfrwt beam="1">  1        2 0.17065640E-01 0.94222254E+02</pdfrwt>
<pdfrwt beam="2">  1       -2 0.65621244E-02 0.94222254E+02</pdfrwt>
<totfact> 0.37726297E+04</totfact>
</mgrwt>
</event>
<event>
 6    1  0.2866116E-002  0.9104234E+02  0.7546771E-02  0.1398370E+00
          2   -1    0    0  501    0  0.00000000000E+00  0.00000000000E+00  0.20415570233E+03  0.20415570233E+03  0.00000000000E+00 0. -1.
         -2   -1    0    0    0  501 -0.00000000000E+00 -0.00000000000E+00 -0.14460693013E+02  0.14460693013E+02  0.00000000000E+00 0.  1.
         23    2    1    2    0    0  0.15244917298E+02  0.75856091836E+01  0.15070274236E+03  0.17606823613E+03  0.89435777228E+02 0.  0.
         11    1    3    3    0    0  0.43703560760E+02  0.26006630475E+02  0.11999763461E+03  0.13032949921E+03  0.00000000000E+00 0.  1.
        -11    1    3    3    0    0 -0.28458643462E+02 -0.18421021291E+02  0.30705107748E+02  0.45738736919E+02  0.00000000000E+00 0. -1.
         22    1    1    2    0    0 -0.15244917298E+02 -0.75856091836E+01  0.38992266959E+02  0.42548159216E+02  0.00000000000E+00 0.  1.
<mgrwt>
<rscale>  0 0.59871859E+02</rscale>
<asrwt>0</asrwt>
<pdfrwt beam="1">  1        2 0.31408568E-01 0.91042338E+02</pdfrwt>
<pdfrwt beam="2">  1       -2 0.22247221E-02 0.91042338E+02</pdfrwt>
<totfact> 0.94181423E+04</totfact>
</mgrwt>
</event>
<event>
 6    1  0.2866116E-002  0.9636772E+02  0.7546771E-02  0.1354008E+00
         -2   -1    0    0    0  501 -0.00000000000E+00  0.00000000000E+00  0.43004972586E+01  0.43004972586E+01  0.00000000000E+00 0.  1.
          2   -1    0    0  501    0  0.00000000000E+00 -0.00000000000E+00 -0.11261889574E+04  0.11261889574E+04  0.00000000000E+00 0. -1.
         23    2    1    2    0    0  0.21752198606E+02 -0.20267648976E+02 -0.10143313283E+04  0.10188988083E+04  0.91666800403E+02 0.  0.
         13    1    3    3    0    0  0.56464722211E+02 -0.30004868050E+01 -0.52585791269E+03  0.52888922480E+03  0.00000000000E+00 0.  1.
        -13    1    3    3    0    0 -0.34712523605E+02 -0.17267162171E+02 -0.48847341558E+03  0.49000958349E+03  0.00000000000E+00 0. -1.
         22    1    1    2    0    0 -0.21752198606E+02  0.20267648976E+02 -0.10755713185E+03  0.11159064634E+03  0.00000000000E+00 0.  1.
<mgrwt>
<rscale>  0 0.71820973E+02</rscale>
<asrwt>0</asrwt>
<pdfrwt beam="1">  1        2 0.17325958E+00 0.96367723E+02</pdfrwt>
<pdfrwt beam="2">  1       -2 0.66161594E-03 0.96367723E+02</pdfrwt>
<totfact> 0.77033247E+04</totfact>
</mgrwt>
</event>
<event>
 6    1  0.2866116E-002  0.9443480E+02  0.7546771E-02  0.1370797E+00
         -2   -1    0    0    0  501 -0.00000000000E+00  0.00000000000E+00  0.42729631391E+02  0.42729631391E+02  0.00000000000E+00 0. -1.
          2   -1    0    0  501    0  0.00000000000E+00 -0.00000000000E+00 -0.92211891587E+02  0.92211891587E+02  0.00000000000E+00 0.  1.
         23    2    1    2    0    0 -0.16634565928E+02 -0.17092537935E+02 -0.56541912293E+02  0.11006779538E+03  0.91373235132E+02 0.  0.
         13    1    3    3    0    0 -0.14488462606E+02  0.11115585780E+02  0.20821122348E+02  0.27694601130E+02  0.00000000000E+00 0. -1.
        -13    1    3    3    0    0 -0.21461033220E+01 -0.28208123715E+02 -0.77363034641E+02  0.82373194255E+02  0.00000000000E+00 0.  1.
         22    1    1    2    0    0  0.16634565928E+02  0.17092537935E+02  0.70596520965E+01  0.24873727594E+02  0.00000000000E+00 0.  1.
<mgrwt>
<rscale>  0 0.66946068E+02</rscale>
<asrwt>0</asrwt>
<pdfrwt beam="1">  1        2 0.14186445E-01 0.94434802E+02</pdfrwt>
<pdfrwt beam="2">  1       -2 0.65737895E-02 0.94434802E+02</pdfrwt>
<totfact> 0.46570311E+04</totfact>
</mgrwt>
</event>
<event>
 6    1  0.2866116E-002  0.9075842E+02  0.7546771E-02  0.1431924E+00
         -2   -1    0    0    0  501 -0.00000000000E+00  0.00000000000E+00  0.10321474634E+02  0.10321474634E+02  0.00000000000E+00 0.  1.
          2   -1    0    0  501    0  0.00000000000E+00 -0.00000000000E+00 -0.32585868601E+03  0.32585868601E+03  0.00000000000E+00 0. -1.
         23    2    1    2    0    0 -0.93511739497E+01  0.41254765102E+01 -0.31265407414E+03  0.32556053301E+03  0.90181076548E+02 0.  0.
         13    1    3    3    0    0  0.11531240570E+02 -0.11524297517E+02 -0.29153270564E+03  0.29198818024E+03  0.00000000000E+00 0. -1.
        -13    1    3    3    0    0 -0.20882414520E+02  0.15649774028E+02 -0.21121368502E+02  0.33572352773E+02  0.00000000000E+00 0.  1.
         22    1    1    2    0    0  0.93511739497E+01 -0.41254765102E+01 -0.28831372316E+01  0.10619627629E+02  0.00000000000E+00 0.  1.
<mgrwt>
<rscale>  0 0.52575817E+02</rscale>
<asrwt>0</asrwt>
<pdfrwt beam="1">  1        2 0.50132107E-01 0.90758419E+02</pdfrwt>
<pdfrwt beam="2">  1       -2 0.15879191E-02 0.90758419E+02</pdfrwt>
<totfact> 0.93392892E+04</totfact>
</mgrwt>
</event>
<event>
 6    1  0.2866116E-002  0.9186801E+02  0.7546771E-02  0.1411061E+00
         -4   -1    0    0    0  501 -0.00000000000E+00  0.00000000000E+00  0.84964759303E+01  0.84964759303E+01  0.00000000000E+00 0.  1.
          4   -1    0    0  501    0  0.00000000000E+00 -0.00000000000E+00 -0.34586902865E+03  0.34586902865E+03  0.00000000000E+00 0. -1.
         23    2    1    2    0    0 -0.13533380368E+02  0.10541907118E+01 -0.31567951660E+03  0.32877543779E+03  0.90859603739E+02 0.  0.
         11    1    3    3    0    0 -0.12342189054E+02  0.44017230539E+02 -0.11956116267E+03  0.12800280401E+03  0.00000000000E+00 0. -1.
        -11    1    3    3    0    0 -0.11911913137E+01 -0.42963039827E+02 -0.19611835393E+03  0.20077263378E+03  0.00000000000E+00 0.  1.
         22    1    1    2    0    0  0.13533380368E+02 -0.10541907118E+01 -0.21693036126E+02  0.25590066795E+02  0.00000000000E+00 0.  1.
<mgrwt>
<rscale>  0 0.56957800E+02</rscale>
<asrwt>0</asrwt>
<pdfrwt beam="1">  1        4 0.53210627E-01 0.91868010E+02</pdfrwt>
<pdfrwt beam="2">  1       -4 0.13071500E-02 0.91868010E+02</pdfrwt>
<totfact> 0.97527107E+03</totfact>
</mgrwt>
</event>
<event>
 6    1  0.2866116E-002  0.9096248E+02  0.7546771E-02  0.1415971E+00
          2   -1    0    0  501    0  0.00000000000E+00  0.00000000000E+00  0.75622815700E+02  0.75622815700E+02  0.00000000000E+00 0. -1.
         -2   -1    0    0    0  501 -0.00000000000E+00 -0.00000000000E+00 -0.36736363624E+02  0.36736363624E+02  0.00000000000E+00 0.  1.
         23    2    1    2    0    0  0.98602533431E+01 -0.84066048617E+01  0.39969385269E+02  0.99356550914E+02  0.90034864633E+02 0.  0.
         13    1    3    3    0    0  0.64932926769E+01 -0.38322376410E+02  0.53681865246E+02  0.66276014060E+02  0.00000000000E+00 0. -1.
        -13    1    3    3    0    0  0.33669606662E+01  0.29915771548E+02 -0.13712479976E+02  0.33080536854E+02  0.00000000000E+00 0.  1.
         22    1    1    2    0    0 -0.98602533431E+01  0.84066048617E+01 -0.10829331935E+01  0.13002628411E+02  0.00000000000E+00 0. -1.
<mgrwt>
<rscale>  0 0.55882603E+02</rscale>
<asrwt>0</asrwt>
<pdfrwt beam="1">  1        2 0.11634279E-01 0.90962478E+02</pdfrwt>
<pdfrwt beam="2">  1       -2 0.56517483E-02 0.90962478E+02</pdfrwt>
<totfact> 0.73448293E+04</totfact>
</mgrwt>
</event>
<event>
 6    1  0.2866116E-002  0.9152643E+02  0.7546771E-02  0.1412976E+00
         -2   -1    0    0    0  501 -0.00000000000E+00  0.00000000000E+00  0.20694728473E+01  0.20694728473E+01  0.00000000000E+00 0.  1.
          2   -1    0    0  501    0  0.00000000000E+00 -0.00000000000E+00 -0.15171300646E+04  0.15171300646E+04  0.00000000000E+00 0. -1.
         23    2    1    2    0    0 -0.39565725973E+01 -0.12722811236E+02 -0.14441900975E+04  0.14470874625E+04  0.90551433554E+02 0.  0.
         11    1    3    3    0    0  0.39653053060E+02 -0.20989071887E+02 -0.56547173442E+03  0.56724878862E+03  0.00000000000E+00 0. -1.
        -11    1    3    3    0    0 -0.43609625658E+02  0.82662606503E+01 -0.87871836305E+03  0.87983867389E+03  0.00000000000E+00 0.  1.
         22    1    1    2    0    0  0.39565725973E+01  0.12722811236E+02 -0.70870494271E+02  0.72112074930E+02  0.00000000000E+00 0.  1.
<mgrwt>
<rscale>  0 0.56534965E+02</rscale>
<asrwt>0</asrwt>
<pdfrwt beam="1">  1        2 0.23340412E+00 0.91526425E+02</pdfrwt>
<pdfrwt beam="2">  1       -2 0.31838112E-03 0.91526425E+02</pdfrwt>
<totfact> 0.13245327E+05</totfact>
</mgrwt>
</event>
<event>
 6    1  0.2866116E-002  0.9265177E+02  0.7546771E-02  0.1386147E+00
          1   -1    0    0  501    0  0.00000000000E+00  0.00000000000E+00  0.19465505727E+02  0.19465505727E+02  0.00000000000E+00 0. -1.
         -1   -1    0    0    0  501 -0.00000000000E+00 -0.00000000000E+00 -0.16600392829E+03  0.16600392829E+03  0.00000000000E+00 0.  1.
         23    2    1    2    0    0 -0.16125773712E+02  0.11228140976E+02 -0.10866538370E+03  0.14280236474E+03  0.90544122032E+02 0.  0.
         11    1    3    3    0    0  0.11192261795E+02 -0.24280006893E+02 -0.90658128361E+02  0.94518155382E+02  0.00000000000E+00 0.  1.
        -11    1    3    3    0    0 -0.27318035506E+02  0.35508147869E+02 -0.18007255338E+02  0.48284209363E+02  0.00000000000E+00 0. -1.
         22    1    1    2    0    0  0.16125773712E+02 -0.11228140976E+02 -0.37873038864E+02  0.42667069274E+02  0.00000000000E+00 0.  1.
<mgrwt>
<rscale>  0 0.62875203E+02</rscale>
<asrwt>0</asrwt>
<pdfrwt beam="1">  1        1 0.29946931E-02 0.92651766E+02</pdfrwt>
<pdfrwt beam="2">  1       -1 0.25539067E-01 0.92651766E+02</pdfrwt>
<totfact> 0.39872126E+04</totfact>
</mgrwt>
</event>
<event>
 6    1  0.3249660E-002  0.1528881E+03  0.7546771E-02  0.1207310E+00
          1   -1    0    0  501    0  0.00000000000E+00  0.00000000000E+00  0.79307311125E+03  0.79307311125E+03  0.00000000000E+00 0. -1.
         -1   -1    0    0    0  501 -0.00000000000E+00 -0.00000000000E+00 -0.69487880404E+02  0.69487880404E+02  0.00000000000E+00 0.  1.
         23    2    1    2    0    0  0.87209554322E+02 -0.85643091727E+02  0.26902326832E+02  0.15523693984E+03  0.91839679752E+02 0.  0.
         13    1    3    3    0    0  0.31274111070E+02 -0.85897703627E+02  0.36596302178E+02  0.98467125706E+02  0.00000000000E+00 0.  1.
        -13    1    3    3    0    0  0.55935443252E+02  0.25461190037E+00 -0.96939753460E+01  0.56769814136E+02  0.00000000000E+00 0. -1.
         22    1    1    2    0    0 -0.87209554322E+02  0.85643091727E+02  0.69668290401E+03  0.70732405181E+03  0.00000000000E+00 0. -1.
<mgrwt>
<rscale>  0 0.14456894E+03</rscale>
<asrwt>0</asrwt>
<pdfrwt beam="1">  1        1 0.12201124E+00 0.15288810E+03</pdfrwt>
<pdfrwt beam="2">  1       -1 0.10690444E-01 0.15288810E+03</pdfrwt>
<totfact> 0.12804327E+03</totfact>
</mgrwt>
</event>
<event>
 6    1  0.2866116E-002  0.6491336E+02  0.7546771E-02  0.1439417E+00
          2   -1    0    0  501    0  0.00000000000E+00  0.00000000000E+00  0.60520637467E+03  0.60520637467E+03  0.00000000000E+00 0. -1.
         -2   -1    0    0    0  501 -0.00000000000E+00 -0.00000000000E+00 -0.45786409385E+01  0.45786409385E+01  0.00000000000E+00 0.  1.
         23    2    1    2    0    0 -0.12804174586E+02  0.21422790765E+02  0.54453625486E+03  0.54839171912E+03  0.59923800770E+02 0.  0.
         11    1    3    3    0    0 -0.22940793757E+02  0.12037525442E+02  0.90233932435E+02  0.93879415207E+02  0.00000000000E+00 0.  1.
        -11    1    3    3    0    0  0.10136619171E+02  0.93852653231E+01  0.45430232242E+03  0.45451230392E+03  0.00000000000E+00 0. -1.
         22    1    1    2    0    0  0.12804174586E+02 -0.21422790765E+02  0.56091478877E+02  0.61393296488E+02  0.00000000000E+00 0.  1.
<mgrwt>
<rscale>  0 0.51115355E+02</rscale>
<asrwt>0</asrwt>
<pdfrwt beam="1">  1        2 0.93108610E-01 0.64913363E+02</pdfrwt>
<pdfrwt beam="2">  1       -2 0.70440678E-03 0.64913363E+02</pdfrwt>
<totfact> 0.14438320E+05</totfact>
</mgrwt>
</event>
<event>
 6    1  0.2866116E-002  0.9841028E+02  0.7546771E-02  0.1355279E+00
         -2   -1    0    0    0  501 -0.00000000000E+00  0.00000000000E+00  0.34805854514E+01  0.34805854514E+01  0.00000000000E+00 0.  1.
          2   -1    0    0  501    0  0.00000000000E+00 -0.00000000000E+00 -0.12416606532E+04  0.12416606532E+04  0.00000000000E+00 0. -1.
         23    2    1    2    0    0 -0.25997625329E+02 -0.84076889549E+01 -0.10923181981E+04  0.10967422805E+04  0.94541092815E+02 0.  0.
         11    1    3    3    0    0 -0.22478913782E+02 -0.96847883205E+01 -0.65604549276E+02  0.70021807855E+02  0.00000000000E+00 0.  1.
        -11    1    3    3    0    0 -0.35187115471E+01  0.12770993656E+01 -0.10267136488E+04  0.10267204727E+04  0.00000000000E+00 0. -1.
         22    1    1    2    0    0  0.25997625329E+02  0.84076889549E+01 -0.14586186968E+03  0.14839895816E+03  0.00000000000E+00 0. -1.
<mgrwt>
<rscale>  0 0.71435464E+02</rscale>
<asrwt>0</asrwt>
<pdfrwt beam="1">  1        2 0.19102513E+00 0.98410284E+02</pdfrwt>
<pdfrwt beam="2">  1       -2 0.53547352E-03 0.98410284E+02</pdfrwt>
<totfact> 0.89898964E+04</totfact>
</mgrwt>
</event>
<event>
 6    1  0.2866116E-002  0.9942811E+02  0.7546771E-02  0.1335057E+00
         -1   -1    0    0    0  501 -0.00000000000E+00  0.00000000000E+00  0.53635754351E+01  0.53635754351E+01  0.00000000000E+00 0.  1.
          1   -1    0    0  501    0  0.00000000000E+00 -0.00000000000E+00 -0.23270264263E+04  0.23270264263E+04  0.00000000000E+00 0. -1.
         23    2    1    2    0    0  0.37501258315E+02  0.52249955201E+00 -0.22434249372E+04  0.22456271726E+04  0.92083289477E+02 0.  0.
         11    1    3    3    0    0  0.20454988831E+02 -0.41022818777E+02 -0.15901649313E+04  0.15908255049E+04  0.00000000000E+00 0. -1.
        -11    1    3    3    0    0  0.17046269484E+02  0.41545318329E+02 -0.65326000590E+03  0.65480166775E+03  0.00000000000E+00 0.  1.
         22    1    1    2    0    0 -0.37501258315E+02 -0.52249955201E+00 -0.78237913692E+02  0.86762829137E+02  0.00000000000E+00 0.  1.
<mgrwt>
<rscale>  0 0.77920888E+02</rscale>
<asrwt>0</asrwt>
<pdfrwt beam="1">  1        1 0.35800449E+00 0.99428113E+02</pdfrwt>
<pdfrwt beam="2">  1       -1 0.82516448E-03 0.99428113E+02</pdfrwt>
<totfact> 0.50440215E+03</totfact>
</mgrwt>
</event>
<event>
 6    1  0.2866116E-002  0.9440299E+02  0.7546771E-02  0.1349692E+00
         -2   -1    0    0    0  501 -0.00000000000E+00  0.00000000000E+00  0.23158132770E+03  0.23158132770E+03  0.00000000000E+00 0.  1.
          2   -1    0    0  501    0  0.00000000000E+00 -0.00000000000E+00 -0.17974718644E+02  0.17974718644E+02  0.00000000000E+00 0. -1.
         23    2    1    2    0    0  0.41287287642E+01 -0.33784707589E+02  0.16713823669E+03  0.19195602466E+03  0.88053803833E+02 0.  0.
         13    1    3    3    0    0  0.33307984450E+01 -0.30721875942E+02  0.17798974147E+03  0.18065236214E+03  0.00000000000E+00 0.  1.
        -13    1    3    3    0    0  0.79793031918E+00 -0.30628316463E+01 -0.10851504772E+02  0.11303662518E+02  0.00000000000E+00 0. -1.
         22    1    1    2    0    0 -0.41287287642E+01  0.33784707589E+02  0.46468372357E+02  0.57600021680E+02  0.00000000000E+00 0. -1.
<mgrwt>
<rscale>  0 0.73151649E+02</rscale>
<asrwt>0</asrwt>
<pdfrwt beam="1">  1        2 0.27653415E-02 0.94402994E+02</pdfrwt>
<pdfrwt beam="2">  1       -2 0.35627894E-01 0.94402994E+02</pdfrwt>
<totfact> 0.22952952E+04</totfact>
</mgrwt>
</event>
<event>
 6    1  0.2866116E-002  0.9157122E+02  0.7546771E-02  0.1418303E+00
         -2   -1    0    0    0  501 -0.00000000000E+00  0.00000000000E+00  0.63937189973E+01  0.63937189973E+01  0.00000000000E+00 0.  1.
          2   -1    0    0  501    0  0.00000000000E+00 -0.00000000000E+00 -0.48623190045E+03  0.48623190045E+03  0.00000000000E+00 0. -1.
         23    2    1    2    0    0  0.11467594593E+02  0.43113451250E+01 -0.46198688711E+03  0.47097470417E+03  0.90747973454E+02 0.  0.
         11    1    3    3    0    0  0.23867579007E+02 -0.38440323063E+02 -0.27939856701E+03  0.28303865286E+03  0.00000000000E+00 0. -1.
        -11    1    3    3    0    0 -0.12399984414E+02  0.42751668188E+02 -0.18258832010E+03  0.18793605131E+03  0.00000000000E+00 0.  1.
         22    1    1    2    0    0 -0.11467594593E+02 -0.43113451250E+01 -0.17851294343E+02  0.21650915275E+02  0.00000000000E+00 0. -1.
<mgrwt>
<rscale>  0 0.55381467E+02</rscale>
<asrwt>0</asrwt>
<pdfrwt beam="1">  1        2 0.74804888E-01 0.91571219E+02</pdfrwt>
<pdfrwt beam="2">  1       -2 0.98364934E-03 0.91571219E+02</pdfrwt>
<totfact> 0.12106927E+05</totfact>
</mgrwt>
</event>
<event>
 6    1  0.2866116E-002  0.1043660E+03  0.7546771E-02  0.1310589E+00
         -1   -1    0    0    0  501 -0.00000000000E+00  0.00000000000E+00  0.86849635912E+01  0.86849635912E+01  0.00000000000E+00 0.  1.
          1   -1    0    0  501    0  0.00000000000E+00 -0.00000000000E+00 -0.10567216804E+04  0.10567216804E+04  0.00000000000E+00 0. -1.
         23    2    1    2    0    0 -0.89959046970E+01 -0.49303780985E+02 -0.94585909591E+03  0.95159954697E+03  0.91544958135E+02 0.  0.
         13    1    3    3    0    0  0.26429850556E+02 -0.20493036540E+02 -0.73918863955E+03  0.73994482658E+03  0.00000000000E+00 0. -1.
        -13    1    3    3    0    0 -0.35425755253E+02 -0.28810744445E+02 -0.20667045636E+03  0.21165472039E+03  0.00000000000E+00 0.  1.
         22    1    1    2    0    0  0.89959046970E+01  0.49303780985E+02 -0.10217762095E+03  0.11380709707E+03  0.00000000000E+00 0.  1.
<mgrwt>
<rscale>  0 0.86879492E+02</rscale>
<asrwt>0</asrwt>
<pdfrwt beam="1">  1        1 0.16257264E+00 0.10436603E+03</pdfrwt>
<pdfrwt beam="2">  1       -1 0.13361476E-02 0.10436603E+03</pdfrwt>
<totfact> 0.16833128E+04</totfact>
</mgrwt>
</event>
<event>
 6    1  0.2866116E-002  0.4288610E+03  0.7546771E-02  0.1035017E+00
         -2   -1    0    0    0  501 -0.00000000000E+00  0.00000000000E+00  0.10961737363E+03  0.10961737363E+03  0.00000000000E+00 0.  1.
          2   -1    0    0  501    0  0.00000000000E+00 -0.00000000000E+00 -0.19146950785E+04  0.19146950785E+04  0.00000000000E+00 0. -1.
         23    2    1    2    0    0  0.38544471449E+03  0.16413477997E+03 -0.52770857477E+03  0.67999859426E+03  0.91727282686E+02 0.  0.
         13    1    3    3    0    0  0.16416352156E+03  0.47120124834E+02 -0.15256972083E+03  0.22901416482E+03  0.00000000000E+00 0.  1.
        -13    1    3    3    0    0  0.22128119293E+03  0.11701465513E+03 -0.37513885395E+03  0.45098442944E+03  0.00000000000E+00 0. -1.
         22    1    1    2    0    0 -0.38544471449E+03 -0.16413477997E+03 -0.12773691300E+04  0.13443138578E+04  0.00000000000E+00 0. -1.
<mgrwt>
<rscale>  0 0.42635806E+03</rscale>
<asrwt>0</asrwt>
<pdfrwt beam="1">  1        2 0.29456844E+00 0.42886099E+03</pdfrwt>
<pdfrwt beam="2">  1       -2 0.16864213E-01 0.42886099E+03</pdfrwt>
<totfact> 0.22637004E+02</totfact>
</mgrwt>
</event>
<event>
 6    1  0.2866116E-002  0.2840212E+03  0.7546771E-02  0.1095551E+00
         -2   -1    0    0    0  501 -0.00000000000E+00  0.00000000000E+00  0.68501571726E+02  0.68501571726E+02  0.00000000000E+00 0.  1.
          2   -1    0    0  501    0  0.00000000000E+00 -0.00000000000E+00 -0.12619873631E+04  0.12619873631E+04  0.00000000000E+00 0. -1.
         23    2    1    2    0    0  0.26787300028E+03 -0.27126791200E+02 -0.83616438150E+03  0.88308487022E+03  0.90422386843E+02 0.  0.
         11    1    3    3    0    0  0.18236342255E+03  0.17679906353E+02 -0.61635589796E+03  0.64301134510E+03  0.00000000000E+00 0. -1.
        -11    1    3    3    0    0  0.85509577727E+02 -0.44806697553E+02 -0.21980848354E+03  0.24007352512E+03  0.00000000000E+00 0.  1.
         22    1    1    2    0    0 -0.26787300028E+03  0.27126791200E+02 -0.35732140992E+03  0.44740406465E+03  0.00000000000E+00 0.  1.
<mgrwt>
<rscale>  0 0.28025226E+03</rscale>
<asrwt>0</asrwt>
<pdfrwt beam="1">  1        2 0.19415190E+00 0.28402115E+03</pdfrwt>
<pdfrwt beam="2">  1       -2 0.10538703E-01 0.28402115E+03</pdfrwt>
<totfact> 0.11249693E+03</totfact>
</mgrwt>
</event>
<event>
 6    1  0.2866116E-002  0.9748880E+02  0.7546771E-02  0.1344114E+00
         -1   -1    0    0    0  501 -0.00000000000E+00  0.00000000000E+00  0.66901067950E+01  0.66901067950E+01  0.00000000000E+00 0.  1.
          1   -1    0    0  501    0  0.00000000000E+00 -0.00000000000E+00 -0.75159958749E+03  0.75159958749E+03  0.00000000000E+00 0. -1.
         23    2    1    2    0    0 -0.24921357558E+02 -0.23138355398E+02 -0.65403277886E+03  0.66125860396E+03  0.91365244682E+02 0.  0.
         11    1    3    3    0    0 -0.15030170738E+02 -0.69670902025E+01 -0.16288883492E+02  0.23233039055E+02  0.00000000000E+00 0.  1.
        -11    1    3    3    0    0 -0.98911868201E+01 -0.16171265195E+02 -0.63774389537E+03  0.63802556491E+03  0.00000000000E+00 0. -1.
         22    1    1    2    0    0  0.24921357558E+02  0.23138355398E+02 -0.90876701831E+02  0.97031090320E+02  0.00000000000E+00 0. -1.
<mgrwt>
<rscale>  0 0.74921635E+02</rscale>
<asrwt>0</asrwt>
<pdfrwt beam="1">  1        1 0.11563071E+00 0.97488797E+02</pdfrwt>
<pdfrwt beam="2">  1       -1 0.10292472E-02 0.97488797E+02</pdfrwt>
<totfact> 0.41370665E+04</totfact>
</mgrwt>
</event>
<event>
 6    1  0.2866116E-002  0.8703040E+02  0.7546771E-02  0.1422899E+00
          2   -1    0    0  501    0  0.00000000000E+00  0.00000000000E+00  0.13572559079E+04  0.13572559079E+04  0.00000000000E+00 0. -1.
         -2   -1    0    0    0  501 -0.00000000000E+00 -0.00000000000E+00 -0.14302217616E+02  0.14302217616E+02  0.00000000000E+00 0.  1.
         23    2    1    2    0    0  0.12771832471E+02  0.37025913642E+01  0.13524312529E+04  0.13552286099E+04  0.86008502237E+02 0.  0.
         11    1    3    3    0    0  0.41488528346E+02  0.11362411623E+02  0.11302557109E+04  0.11310739915E+04  0.00000000000E+00 0. -1.
        -11    1    3    3    0    0 -0.28716695875E+02 -0.76598202588E+01  0.22217554204E+03  0.22415461840E+03  0.00000000000E+00 0.  1.
         22    1    1    2    0    0 -0.12771832471E+02 -0.37025913642E+01 -0.94775625921E+01  0.16329515613E+02  0.00000000000E+00 0.  1.
<mgrwt>
<rscale>  0 0.54412340E+02</rscale>
<asrwt>0</asrwt>
<pdfrwt beam="1">  1        2 0.20880850E+00 0.87030405E+02</pdfrwt>
<pdfrwt beam="2">  1       -2 0.22003422E-02 0.87030405E+02</pdfrwt>
<totfact> 0.10391255E+04</totfact>
</mgrwt>
</event>
<event>
 6    1  0.2866116E-002  0.9011480E+02  0.7546771E-02  0.1403337E+00
         -2   -1    0    0    0  501 -0.00000000000E+00  0.00000000000E+00  0.12452016459E+02  0.12452016459E+02  0.00000000000E+00 0.  1.
          2   -1    0    0  501    0  0.00000000000E+00 -0.00000000000E+00 -0.23284514978E+03  0.23284514978E+03  0.00000000000E+00 0. -1.
         23    2    1    2    0    0  0.98236462978E+01  0.12922424218E+02 -0.17079569153E+03  0.19311096781E+03  0.88640761331E+02 0.  0.
         13    1    3    3    0    0  0.50313061169E+01 -0.36984299782E+02 -0.50592070908E+02  0.62870582234E+02  0.00000000000E+00 0.  1.
        -13    1    3    3    0    0  0.47923401809E+01  0.49906723999E+02 -0.12020362062E+03  0.13024038558E+03  0.00000000000E+00 0. -1.
         22    1    1    2    0    0 -0.98236462978E+01 -0.12922424218E+02 -0.49597441793E+02  0.52186198431E+02  0.00000000000E+00 0.  1.
<mgrwt>
<rscale>  0 0.58707455E+02</rscale>
<asrwt>0</asrwt>
<pdfrwt beam="1">  1        2 0.35822329E-01 0.90114803E+02</pdfrwt>
<pdfrwt beam="2">  1       -2 0.19156949E-02 0.90114803E+02</pdfrwt>
<totfact> 0.10141569E+05</totfact>
</mgrwt>
</event>
<event>
 6    1  0.2866116E-002  0.9437938E+02  0.7546771E-02  0.1373505E+00
         -2   -1    0    0    0  501 -0.00000000000E+00  0.00000000000E+00  0.65059765654E+01  0.65059765654E+01  0.00000000000E+00 0.  1.
          2   -1    0    0  501    0  0.00000000000E+00 -0.00000000000E+00 -0.63430616412E+03  0.63430616412E+03  0.00000000000E+00 0. -1.
         23    2    1    2    0    0  0.42069793584E+01 -0.22457967166E+02 -0.58228193961E+03  0.58988111026E+03  0.91571873833E+02 0.  0.
         11    1    3    3    0    0 -0.13723417198E+02  0.10329013131E+02 -0.49026024376E+03  0.49056103321E+03  0.00000000000E+00 0. -1.
        -11    1    3    3    0    0  0.17930396557E+02 -0.32786980296E+02 -0.92021695853E+02  0.99320077050E+02  0.00000000000E+00 0.  1.
         22    1    1    2    0    0 -0.42069793584E+01  0.22457967166E+02 -0.45518247942E+02  0.50931030426E+02  0.00000000000E+00 0.  1.
<mgrwt>
<rscale>  0 0.66202254E+02</rscale>
<asrwt>0</asrwt>
<pdfrwt beam="1">  1        2 0.97585591E-01 0.94379378E+02</pdfrwt>
<pdfrwt beam="2">  1       -2 0.10009192E-02 0.94379378E+02</pdfrwt>
<totfact> 0.88473390E+04</totfact>
</mgrwt>
</event>
<event>
 6    1  0.2866116E-002  0.9157844E+02  0.7546771E-02  0.1416404E+00
          2   -1    0    0  501    0  0.00000000000E+00  0.00000000000E+00  0.84448968265E+03  0.84448968265E+03  0.00000000000E+00 0. -1.
         -2   -1    0    0    0  501 -0.00000000000E+00 -0.00000000000E+00 -0.47734210562E+01  0.47734210562E+01  0.00000000000E+00 0.  1.
         23    2    1    2    0    0  0.12560689496E+02 -0.11468279726E+01  0.82417689545E+03  0.82924915769E+03  0.90705702140E+02 0.  0.
         11    1    3    3    0    0  0.36993244593E+02  0.22104645232E+02  0.22293330070E+03  0.22706028285E+03  0.00000000000E+00 0.  1.
        -11    1    3    3    0    0 -0.24432555096E+02 -0.23251473204E+02  0.60124359474E+03  0.60218887483E+03  0.00000000000E+00 0. -1.
         22    1    1    2    0    0 -0.12560689496E+02  0.11468279726E+01  0.15539366147E+02  0.20013946019E+02  0.00000000000E+00 0. -1.
<mgrwt>
<rscale>  0 0.55789050E+02</rscale>
<asrwt>0</asrwt>
<pdfrwt beam="1">  1        2 0.12992137E+00 0.91578439E+02</pdfrwt>
<pdfrwt beam="2">  1       -2 0.73437314E-03 0.91578439E+02</pdfrwt>
<totfact> 0.97161747E+04</totfact>
</mgrwt>
</event>
<event>
 6    1  0.2866116E-002  0.9726846E+02  0.7546771E-02  0.1387881E+00
         -2   -1    0    0    0  501 -0.00000000000E+00  0.00000000000E+00  0.19629493769E+01  0.19629493769E+01  0.00000000000E+00 0.  1.
          2   -1    0    0  501    0  0.00000000000E+00 -0.00000000000E+00 -0.28364559859E+04  0.28364559859E+04  0.00000000000E+00 0. -1.
         23    2    1    2    0    0 -0.14085325867E+02  0.86202573525E+01 -0.27742175480E+04  0.27759222173E+04  0.95856390558E+02 0.  0.
         13    1    3    3    0    0  0.40494785534E+02  0.85810597725E+01 -0.97797779522E+03  0.97885342630E+03  0.00000000000E+00 0.  1.
        -13    1    3    3    0    0 -0.54580111401E+02  0.39197580059E-01 -0.17962397527E+04  0.17970687909E+04  0.00000000000E+00 0. -1.
         22    1    1    2    0    0  0.14085325867E+02 -0.86202573525E+01 -0.60275488537E+02  0.62496717993E+02  0.00000000000E+00 0.  1.
<mgrwt>
<rscale>  0 0.62436810E+02</rscale>
<asrwt>0</asrwt>
<pdfrwt beam="1">  1        2 0.43637549E+00 0.97268458E+02</pdfrwt>
<pdfrwt beam="2">  1       -2 0.30199384E-03 0.97268458E+02</pdfrwt>
<totfact> 0.29876981E+04</totfact>
</mgrwt>
</event>
<event>
 6    1  0.2866116E-002  0.9168398E+02  0.7546771E-02  0.1414782E+00
         -2   -1    0    0    0  501 -0.00000000000E+00  0.00000000000E+00  0.31020972598E+01  0.31020972598E+01  0.00000000000E+00 0.  1.
          2   -1    0    0  501    0  0.00000000000E+00 -0.00000000000E+00 -0.94184270966E+03  0.94184270966E+03  0.00000000000E+00 0. -1.
         23    2    1    2    0    0  0.30478497088E+01  0.12523473375E+02 -0.88231693572E+03  0.88706771246E+03  0.90773479905E+02 0.  0.
         11    1    3    3    0    0 -0.12672157239E+01  0.35995530757E+01  0.79675832316E+00  0.38983896497E+01  0.00000000000E+00 0.  1.
        -11    1    3    3    0    0  0.43150654326E+01  0.89239202992E+01 -0.88311369404E+03  0.88316932281E+03  0.00000000000E+00 0. -1.
         22    1    1    2    0    0 -0.30478497088E+01 -0.12523473375E+02 -0.56423676677E+02  0.57877094458E+02  0.00000000000E+00 0.  1.
<mgrwt>
<rscale>  0 0.56140339E+02</rscale>
<asrwt>0</asrwt>
<pdfrwt beam="1">  1        2 0.14489899E+00 0.91683976E+02</pdfrwt>
<pdfrwt beam="2">  1       -2 0.47724537E-03 0.91683976E+02</pdfrwt>
<totfact> 0.15484677E+05</totfact>
</mgrwt>
</event>
<event>
 6    1  0.2866116E-002  0.9384059E+02  0.7546771E-02  0.1375376E+00
          2   -1    0    0  501    0  0.00000000000E+00  0.00000000000E+00  0.37346721802E+03  0.37346721802E+03  0.00000000000E+00 0. -1.
         -2   -1    0    0    0  501 -0.00000000000E+00 -0.00000000000E+00 -0.92666237244E+01  0.92666237244E+01  0.00000000000E+00 0.  1.
         23    2    1    2    0    0 -0.88155250167E+01 -0.20744821338E+02  0.31361500912E+03  0.32735367813E+03  0.91093334283E+02 0.  0.
         13    1    3    3    0    0 -0.39312273436E+02 -0.37699934188E+02  0.23682350757E+03  0.24300640654E+03  0.00000000000E+00 0. -1.
        -13    1    3    3    0    0  0.30496748419E+02  0.16955112850E+02  0.76791501542E+02  0.84347271592E+02  0.00000000000E+00 0.  1.
         22    1    1    2    0    0  0.88155250167E+01  0.20744821338E+02  0.50585585180E+02  0.55380163612E+02  0.00000000000E+00 0.  1.
<mgrwt>
<rscale>  0 0.65695035E+02</rscale>
<asrwt>0</asrwt>
<pdfrwt beam="1">  1        2 0.57456484E-01 0.93840592E+02</pdfrwt>
<pdfrwt beam="2">  1       -2 0.14256347E-02 0.93840592E+02</pdfrwt>
<totfact> 0.94881453E+04</totfact>
</mgrwt>
</event>
<event>
 6    1  0.2866116E-002  0.1044628E+03  0.7546771E-02  0.1309880E+00
          2   -1    0    0  501    0  0.00000000000E+00  0.00000000000E+00  0.73515183094E+03  0.73515183094E+03  0.00000000000E+00 0. -1.
         -2   -1    0    0    0  501 -0.00000000000E+00 -0.00000000000E+00 -0.10470606137E+02  0.10470606137E+02  0.00000000000E+00 0.  1.
         23    2    1    2    0    0 -0.48251506096E+02  0.15323703320E+02  0.62657972165E+03  0.63522801401E+03  0.91375371270E+02 0.  0.
         13    1    3    3    0    0 -0.42915622949E+02 -0.55110172126E+01  0.59747184647E+03  0.59903650083E+03  0.00000000000E+00 0. -1.
        -13    1    3    3    0    0 -0.53358831467E+01  0.20834720533E+02  0.29107875182E+02  0.36191513180E+02  0.00000000000E+00 0.  1.
         22    1    1    2    0    0  0.48251506096E+02 -0.15323703320E+02  0.98101503156E+02  0.11039442307E+03  0.00000000000E+00 0.  1.
<mgrwt>
<rscale>  0 0.87159636E+02</rscale>
<asrwt>0</asrwt>
<pdfrwt beam="1">  1        2 0.11310024E+00 0.10446283E+03</pdfrwt>
<pdfrwt beam="2">  1       -2 0.16108631E-02 0.10446283E+03</pdfrwt>
<totfact> 0.38284820E+04</totfact>
</mgrwt>
</event>
<event>
 6    1  0.2866116E-002  0.9203941E+02  0.7546771E-02  0.1362433E+00
          2   -1    0    0  501    0  0.00000000000E+00  0.00000000000E+00  0.11784371609E+03  0.11784371609E+03  0.00000000000E+00 0.  1.
         -2   -1    0    0    0  501 -0.00000000000E+00 -0.00000000000E+00 -0.34615033076E+02  0.34615033076E+02  0.00000000000E+00 0. -1.
         23    2    1    2    0    0  0.19481749187E+02 -0.22296945730E+02  0.81270684916E+02  0.12278508918E+03  0.87146781681E+02 0.  0.
         11    1    3    3    0    0  0.40107578711E+02 -0.45717767942E+02  0.54715286553E+02  0.81807669312E+02  0.00000000000E+00 0.  1.
        -11    1    3    3    0    0 -0.20625829524E+02  0.23420822212E+02  0.26555398363E+02  0.40977419866E+02  0.00000000000E+00 0. -1.
         22    1    1    2    0    0 -0.19481749187E+02  0.22296945730E+02  0.19579980935E+01  0.29673659983E+02  0.00000000000E+00 0.  1.
<mgrwt>
<rscale>  0 0.69316446E+02</rscale>
<asrwt>0</asrwt>
<pdfrwt beam="1">  1        2 0.18129802E-01 0.92039415E+02</pdfrwt>
<pdfrwt beam="2">  1       -2 0.53253898E-02 0.92039415E+02</pdfrwt>
<totfact> 0.48034313E+04</totfact>
</mgrwt>
</event>
<event>
 6    1  0.2866116E-002  0.9713004E+02  0.7546771E-02  0.1347199E+00
         -2   -1    0    0    0  501 -0.00000000000E+00  0.00000000000E+00  0.37022909611E+02  0.37022909611E+02  0.00000000000E+00 0. -1.
          2   -1    0    0  501    0  0.00000000000E+00 -0.00000000000E+00 -0.39232922817E+03  0.39232922817E+03  0.00000000000E+00 0.  1.
         23    2    1    2    0    0 -0.27806222137E+02  0.17036842317E+02 -0.37757215876E+03  0.38986533460E+03  0.91492098369E+02 0.  0.
         11    1    3    3    0    0 -0.94342112702E+01  0.24065127790E+02 -0.22560225968E+02  0.34308869314E+02  0.00000000000E+00 0. -1.
        -11    1    3    3    0    0 -0.18372010867E+02 -0.70282854737E+01 -0.35501193279E+03  0.35555646529E+03  0.00000000000E+00 0.  1.
         22    1    1    2    0    0  0.27806222137E+02 -0.17036842317E+02  0.22265840202E+02  0.39486803182E+02  0.00000000000E+00 0. -1.
<mgrwt>
<rscale>  0 0.73935717E+02</rscale>
<asrwt>0</asrwt>
<pdfrwt beam="1">  1        2 0.60358345E-01 0.97130037E+02</pdfrwt>
<pdfrwt beam="2">  1       -2 0.56958321E-02 0.97130037E+02</pdfrwt>
<totfact> 0.12030611E+04</totfact>
</mgrwt>
</event>
<event>
 6    1  0.2866116E-002  0.9202764E+02  0.7546771E-02  0.1403272E+00
          1   -1    0    0  501    0  0.00000000000E+00  0.00000000000E+00  0.78955817607E+03  0.78955817607E+03  0.00000000000E+00 0. -1.
         -1   -1    0    0    0  501 -0.00000000000E+00 -0.00000000000E+00 -0.77724597507E+01  0.77724597507E+01  0.00000000000E+00 0.  1.
         23    2    1    2    0    0 -0.90475912268E+01  0.12284668708E+02  0.77531616271E+03  0.78075875856E+03  0.90754145375E+02 0.  0.
         13    1    3    3    0    0 -0.19007212399E+02  0.26537642236E+01  0.75946019057E+03  0.75970263764E+03  0.00000000000E+00 0. -1.
        -13    1    3    3    0    0  0.99596211721E+01  0.96309044845E+01  0.15855972147E+02  0.21056120911E+02  0.00000000000E+00 0.  1.
         22    1    1    2    0    0  0.90475912268E+01 -0.12284668708E+02  0.64695536064E+01  0.16571877267E+02  0.00000000000E+00 0.  1.
<mgrwt>
<rscale>  0 0.58722571E+02</rscale>
<asrwt>0</asrwt>
<pdfrwt beam="1">  1        1 0.12147043E+00 0.92027642E+02</pdfrwt>
<pdfrwt beam="2">  1       -1 0.11957637E-02 0.92027642E+02</pdfrwt>
<totfact> 0.30946383E+04</totfact>
</mgrwt>
</event>
<event>
 6    1  0.2866116E-002  0.9331672E+02  0.7546771E-02  0.1392308E+00
         -4   -1    0    0    0  501 -0.00000000000E+00  0.00000000000E+00  0.18450591093E+02  0.18450591093E+02  0.00000000000E+00 0.  1.
          4   -1    0    0  501    0  0.00000000000E+00 -0.00000000000E+00 -0.30056867671E+03  0.30056867671E+03  0.00000000000E+00 0. -1.
         23    2    1    2    0    0  0.15946091836E+02  0.70073414067E+01 -0.28628512129E+03  0.30110991649E+03  0.91676771634E+02 0.  0.
         11    1    3    3    0    0  0.69214577342E+01  0.49415894973E+02 -0.15856657493E+03  0.16623235527E+03  0.00000000000E+00 0. -1.
        -11    1    3    3    0    0  0.90246341018E+01 -0.42408553567E+02 -0.12771854636E+03  0.13487756122E+03  0.00000000000E+00 0.  1.
         22    1    1    2    0    0 -0.15946091836E+02 -0.70073414067E+01  0.41670356683E+01  0.17909351320E+02  0.00000000000E+00 0.  1.
<mgrwt>
<rscale>  0 0.61336375E+02</rscale>
<asrwt>0</asrwt>
<pdfrwt beam="1">  1        4 0.46241329E-01 0.93316725E+02</pdfrwt>
<pdfrwt beam="2">  1       -4 0.28385528E-02 0.93316725E+02</pdfrwt>
<totfact> 0.39810643E+03</totfact>
</mgrwt>
</event>
<event>
 6    1  0.2866116E-002  0.9573028E+02  0.7546771E-02  0.1416146E+00
         -2   -1    0    0    0  501 -0.00000000000E+00  0.00000000000E+00  0.49568156168E+01  0.49568156168E+01  0.00000000000E+00 0.  1.
          2   -1    0    0  501    0  0.00000000000E+00 -0.00000000000E+00 -0.64045013172E+03  0.64045013172E+03  0.00000000000E+00 0. -1.
         23    2    1    2    0    0 -0.11064334691E+02 -0.69529922033E+00 -0.61184800643E+03  0.61929174845E+03  0.95086191360E+02 0.  0.
         11    1    3    3    0    0  0.25253489196E+02  0.10181267985E+02 -0.57205639345E+02  0.63355205841E+02  0.00000000000E+00 0.  1.
        -11    1    3    3    0    0 -0.36317823887E+02 -0.10876567206E+02 -0.55464236708E+03  0.55593654261E+03  0.00000000000E+00 0. -1.
         22    1    1    2    0    0  0.11064334691E+02  0.69529922033E+00 -0.23645309676E+02  0.26115198886E+02  0.00000000000E+00 0.  1.
<mgrwt>
<rscale>  0 0.55844742E+02</rscale>
<asrwt>0</asrwt>
<pdfrwt beam="1">  1        2 0.98530743E-01 0.95730281E+02</pdfrwt>
<pdfrwt beam="2">  1       -2 0.76258738E-03 0.95730281E+02</pdfrwt>
<totfact> 0.12880292E+05</totfact>
</mgrwt>
</event>
<event>
 6    1  0.2866116E-002  0.9103009E+02  0.7546771E-02  0.1379903E+00
         -2   -1    0    0    0  501 -0.00000000000E+00  0.00000000000E+00  0.18356189624E+03  0.18356189624E+03  0.00000000000E+00 0.  1.
          2   -1    0    0  501    0  0.00000000000E+00 -0.00000000000E+00 -0.25801076754E+02  0.25801076754E+02  0.00000000000E+00 0. -1.
         23    2    1    2    0    0 -0.19690620112E+02 -0.11749046329E+02  0.60179801938E+02  0.10912418012E+03  0.88094934681E+02 0.  0.
         13    1    3    3    0    0 -0.40926709635E+01  0.14837284814E+02 -0.18826771886E+02  0.24317531041E+02  0.00000000000E+00 0. -1.
        -13    1    3    3    0    0 -0.15597949148E+02 -0.26586331143E+02  0.79006573824E+02  0.84806649083E+02  0.00000000000E+00 0.  1.
         22    1    1    2    0    0  0.19690620112E+02  0.11749046329E+02  0.97581017544E+02  0.10023879286E+03  0.00000000000E+00 0. -1.
<mgrwt>
<rscale>  0 0.64489239E+02</rscale>
<asrwt>0</asrwt>
<pdfrwt beam="1">  1        2 0.39693965E-02 0.91030095E+02</pdfrwt>
<pdfrwt beam="2">  1       -2 0.28240291E-01 0.91030095E+02</pdfrwt>
<totfact> 0.21527927E+04</totfact>
</mgrwt>
</event>
<event>
 6    1  0.2866116E-002  0.9374855E+02  0.7546771E-02  0.1402481E+00
         -1   -1    0    0    0  501 -0.00000000000E+00  0.00000000000E+00  0.47537744728E+03  0.47537744728E+03  0.00000000000E+00 0.  1.
          1   -1    0    0  501    0  0.00000000000E+00 -0.00000000000E+00 -0.61753208778E+01  0.61753208778E+01  0.00000000000E+00 0. -1.
         23    2    1    2    0    0  0.11577362129E+02  0.89169703391E+01  0.40651297532E+03  0.41718292011E+03  0.92602602860E+02 0.  0.
         13    1    3    3    0    0 -0.26857212251E+01  0.41527670172E+02  0.95933517123E+02  0.10457055128E+03  0.00000000000E+00 0. -1.
        -13    1    3    3    0    0  0.14263083355E+02 -0.32610699833E+02  0.31057945820E+03  0.31261236883E+03  0.00000000000E+00 0.  1.
         22    1    1    2    0    0 -0.11577362129E+02 -0.89169703391E+01  0.62689151082E+02  0.64369848045E+02  0.00000000000E+00 0.  1.
<mgrwt>
<rscale>  0 0.58906098E+02</rscale>
<asrwt>0</asrwt>
<pdfrwt beam="1">  1        1 0.95004974E-03 0.93748545E+02</pdfrwt>
<pdfrwt beam="2">  1       -1 0.73134963E-01 0.93748545E+02</pdfrwt>
<totfact> 0.30159240E+04</totfact>
</mgrwt>
</event>
<event>
 6    1  0.2866116E-002  0.8743626E+02  0.7546771E-02  0.1350880E+00
          2   -1    0    0  501    0  0.00000000000E+00  0.00000000000E+00  0.53639636125E+03  0.53639636125E+03  0.00000000000E+00 0. -1.
         -2   -1    0    0    0  501 -0.00000000000E+00 -0.00000000000E+00 -0.14084707811E+02  0.14084707811E+02  0.00000000000E+00 0.  1.
         23    2    1    2    0    0  0.41977674953E+02  0.15768024640E+00  0.48937312216E+03  0.49712287475E+03  0.76700390143E+02 0.  0.
         11    1    3    3    0    0  0.41076945420E+02 -0.33767276860E+02  0.31919919843E+03  0.32359801097E+03  0.00000000000E+00 0. -1.
        -11    1    3    3    0    0  0.90072953328E+00  0.33924957107E+02  0.17017392373E+03  0.17352486377E+03  0.00000000000E+00 0.  1.
         22    1    1    2    0    0 -0.41977674953E+02 -0.15768024640E+00  0.32938531278E+02  0.53358194312E+02  0.00000000000E+00 0.  1.
<mgrwt>
<rscale>  0 0.72782010E+02</rscale>
<asrwt>0</asrwt>
<pdfrwt beam="1">  1        2 0.82522501E-01 0.87436262E+02</pdfrwt>
<pdfrwt beam="2">  1       -2 0.21668785E-02 0.87436262E+02</pdfrwt>
<totfact> 0.35088764E+04</totfact>
</mgrwt>
</event>
<event>
 6    1  0.2866116E-002  0.9395927E+02  0.7546771E-02  0.1378441E+00
          3   -1    0    0  501    0  0.00000000000E+00  0.00000000000E+00  0.11401138116E+03  0.11401138116E+03  0.00000000000E+00 0. -1.
         -3   -1    0    0    0  501 -0.00000000000E+00 -0.00000000000E+00 -0.30642197112E+02  0.30642197112E+02  0.00000000000E+00 0.  1.
         23    2    1    2    0    0  0.18689945897E+02  0.10330322840E+02  0.79220935334E+02  0.12289955302E+03  0.91500349119E+02 0.  0.
         11    1    3    3    0    0  0.27168857725E+02  0.34364089014E+01 -0.12802097904E+02  0.30229942887E+02  0.00000000000E+00 0.  1.
        -11    1    3    3    0    0 -0.84789118280E+01  0.68939139384E+01  0.92023033239E+02  0.92669610130E+02  0.00000000000E+00 0. -1.
         22    1    1    2    0    0 -0.18689945897E+02 -0.10330322840E+02  0.41482487185E+01  0.21754025260E+02  0.00000000000E+00 0. -1.
<mgrwt>
<rscale>  0 0.64875220E+02</rscale>
<asrwt>0</asrwt>
<pdfrwt beam="1">  1        3 0.17540212E-01 0.93959265E+02</pdfrwt>
<pdfrwt beam="2">  1       -3 0.47141842E-02 0.93959265E+02</pdfrwt>
<totfact> 0.14648970E+04</totfact>
</mgrwt>
</event>
<event>
 6    1  0.2866116E-002  0.1153911E+03  0.7546771E-02  0.1276566E+00
          2   -1    0    0  501    0  0.00000000000E+00  0.00000000000E+00  0.17095341237E+04  0.17095341237E+04  0.00000000000E+00 0. -1.
         -2   -1    0    0    0  501 -0.00000000000E+00 -0.00000000000E+00 -0.57131986792E+01  0.57131986792E+01  0.00000000000E+00 0.  1.
         23    2    1    2    0    0  0.51090400763E+02  0.47684187478E+02  0.13264680688E+04  0.13314776142E+04  0.91820961099E+02 0.  0.
         13    1    3    3    0    0  0.50263070362E+02  0.18345195469E+02  0.12160083688E+04  0.12171849800E+04  0.00000000000E+00 0. -1.
        -13    1    3    3    0    0  0.82733040073E+00  0.29338992009E+02  0.11045969995E+03  0.11429263424E+03  0.00000000000E+00 0.  1.
         22    1    1    2    0    0 -0.51090400763E+02 -0.47684187478E+02  0.37735285623E+03  0.38376970814E+03  0.00000000000E+00 0.  1.
<mgrwt>
<rscale>  0 0.10179495E+03</rscale>
<asrwt>0</asrwt>
<pdfrwt beam="1">  1        2 0.26300484E+00 0.11539107E+03</pdfrwt>
<pdfrwt beam="2">  1       -2 0.87895501E-03 0.11539107E+03</pdfrwt>
<totfact> 0.25888056E+04</totfact>
</mgrwt>
</event>
<event>
 6    1  0.2866116E-002  0.9428063E+02  0.7546771E-02  0.1373105E+00
         -2   -1    0    0    0  501 -0.00000000000E+00  0.00000000000E+00  0.19030839712E+02  0.19030839712E+02  0.00000000000E+00 0.  1.
          2   -1    0    0  501    0  0.00000000000E+00 -0.00000000000E+00 -0.72700792515E+03  0.72700792515E+03  0.00000000000E+00 0. -1.
         23    2    1    2    0    0 -0.55715585542E+00 -0.23065392163E+02 -0.71556621680E+03  0.72175054440E+03  0.91413975851E+02 0.  0.
         13    1    3    3    0    0  0.35648384385E+02 -0.24653747237E+02 -0.57347481337E+03  0.57511040343E+03  0.00000000000E+00 0. -1.
        -13    1    3    3    0    0 -0.36205540241E+02  0.15883550733E+01 -0.14209140342E+03  0.14664014097E+03  0.00000000000E+00 0.  1.
         22    1    1    2    0    0  0.55715585542E+00  0.23065392163E+02  0.75891313614E+01  0.24288220460E+02  0.00000000000E+00 0.  1.
<mgrwt>
<rscale>  0 0.66311483E+02</rscale>
<asrwt>0</asrwt>
<pdfrwt beam="1">  1        2 0.11184737E+00 0.94280633E+02</pdfrwt>
<pdfrwt beam="2">  1       -2 0.29278216E-02 0.94280633E+02</pdfrwt>
<totfact> 0.16216973E+04</totfact>
</mgrwt>
</event>
<event>
 6    1  0.2866116E-002  0.9287539E+02  0.7546771E-02  0.1397732E+00
         -2   -1    0    0    0  501 -0.00000000000E+00  0.00000000000E+00  0.70399883521E+02  0.70399883521E+02  0.00000000000E+00 0.  1.
          2   -1    0    0  501    0  0.00000000000E+00 -0.00000000000E+00 -0.18765173660E+03  0.18765173660E+03  0.00000000000E+00 0. -1.
         23    2    1    2    0    0 -0.12881798432E+02 -0.98282713206E+01 -0.17497572313E+03  0.19809679696E+03  0.91451088744E+02 0.  0.
         13    1    3    3    0    0 -0.53947721254E+01  0.36929185977E+02 -0.11932948148E+03  0.12502957048E+03  0.00000000000E+00 0. -1.
        -13    1    3    3    0    0 -0.74870263063E+01 -0.46757457298E+02 -0.55646241643E+02  0.73067226476E+02  0.00000000000E+00 0.  1.
         22    1    1    2    0    0  0.12881798432E+02  0.98282713206E+01  0.57723870045E+02  0.59954823167E+02  0.00000000000E+00 0.  1.
<mgrwt>
<rscale>  0 0.60023872E+02</rscale>
<asrwt>0</asrwt>
<pdfrwt beam="1">  1        2 0.28869498E-01 0.92875386E+02</pdfrwt>
<pdfrwt beam="2">  1       -2 0.10830751E-01 0.92875386E+02</pdfrwt>
<totfact> 0.97562024E+03</totfact>
</mgrwt>
</event>
<event>
 6    1  0.2866116E-002  0.9098979E+02  0.7546771E-02  0.1408032E+00
          2   -1    0    0  501    0  0.00000000000E+00  0.00000000000E+00  0.32091084224E+03  0.32091084224E+03  0.00000000000E+00 0. -1.
         -2   -1    0    0    0  501 -0.00000000000E+00 -0.00000000000E+00 -0.31987197854E+02  0.31987197854E+02  0.00000000000E+00 0.  1.
         23    2    1    2    0    0 -0.11595804649E+02  0.89499423041E+01  0.31231456626E+03  0.32529913833E+03  0.89802989644E+02 0.  0.
         13    1    3    3    0    0  0.21647345853E+02  0.35475278291E+02  0.92480615700E+02  0.10138918696E+03  0.00000000000E+00 0.  1.
        -13    1    3    3    0    0 -0.33243150502E+02 -0.26525335987E+02  0.21983395056E+03  0.22390995137E+03  0.00000000000E+00 0. -1.
         22    1    1    2    0    0  0.11595804649E+02 -0.89499423041E+01 -0.23390921870E+02  0.27598901765E+02  0.00000000000E+00 0.  1.
<mgrwt>
<rscale>  0 0.57635376E+02</rscale>
<asrwt>0</asrwt>
<pdfrwt beam="1">  1        2 0.49370897E-01 0.90989786E+02</pdfrwt>
<pdfrwt beam="2">  1       -2 0.49211076E-02 0.90989786E+02</pdfrwt>
<totfact> 0.18361010E+04</totfact>
</mgrwt>
</event>
<event>
 6    1  0.2866116E-002  0.9210221E+02  0.7546771E-02  0.1416728E+00
          2   -1    0    0  501    0  0.00000000000E+00  0.00000000000E+00  0.46720980682E+02  0.46720980682E+02  0.00000000000E+00 0. -1.
         -2   -1    0    0    0  501 -0.00000000000E+00 -0.00000000000E+00 -0.65553103891E+02  0.65553103891E+02  0.00000000000E+00 0.  1.
         23    2    1    2    0    0  0.81489457260E+01  0.92626842523E+01 -0.29317384101E+01  0.92148854816E+02  0.91272195755E+02 0.  0.
         11    1    3    3    0    0 -0.18363677140E+02 -0.28651246777E+02  0.21073359112E+02  0.40027553563E+02  0.00000000000E+00 0. -1.
        -11    1    3    3    0    0  0.26512622866E+02  0.37913931029E+02 -0.24005097522E+02  0.52121301254E+02  0.00000000000E+00 0.  1.
         22    1    1    2    0    0 -0.81489457260E+01 -0.92626842523E+01 -0.15900384798E+02  0.20125229756E+02  0.00000000000E+00 0.  1.
<mgrwt>
<rscale>  0 0.55719254E+02</rscale>
<asrwt>0</asrwt>
<pdfrwt beam="1">  1        2 0.71878432E-02 0.92102206E+02</pdfrwt>
<pdfrwt beam="2">  1       -2 0.10085093E-01 0.92102206E+02</pdfrwt>
<totfact> 0.54877820E+04</totfact>
</mgrwt>
</event>
<event>
 6    1  0.2866116E-002  0.9474833E+02  0.7546771E-02  0.1411929E+00
         -2   -1    0    0    0  501 -0.00000000000E+00  0.00000000000E+00  0.14613328169E+03  0.14613328169E+03  0.00000000000E+00 0.  1.
          2   -1    0    0  501    0  0.00000000000E+00 -0.00000000000E+00 -0.19748340486E+02  0.19748340486E+02  0.00000000000E+00 0. -1.
         23    2    1    2    0    0  0.93835605133E+01 -0.78083309920E+01  0.10648022673E+03  0.14253169928E+03  0.93958636514E+02 0.  0.
         13    1    3    3    0    0  0.25269436876E+02  0.36504165547E+02  0.70362051645E+02  0.83198057994E+02  0.00000000000E+00 0. -1.
        -13    1    3    3    0    0 -0.15885876363E+02 -0.44312496539E+02  0.36118175085E+02  0.59333641290E+02  0.00000000000E+00 0.  1.
         22    1    1    2    0    0 -0.93835605133E+01  0.78083309920E+01  0.19904714475E+02  0.23349922893E+02  0.00000000000E+00 0.  1.
<mgrwt>
<rscale>  0 0.56765531E+02</rscale>
<asrwt>0</asrwt>
<pdfrwt beam="1">  1        2 0.30382063E-02 0.94748333E+02</pdfrwt>
<pdfrwt beam="2">  1       -2 0.22482043E-01 0.94748333E+02</pdfrwt>
<totfact> 0.45727358E+04</totfact>
</mgrwt>
</event>
<event>
 6    1  0.2866116E-002  0.1257299E+03  0.7546771E-02  0.1254510E+00
          2   -1    0    0  501    0  0.00000000000E+00  0.00000000000E+00  0.76865811087E+03  0.76865811087E+03  0.00000000000E+00 0. -1.
         -2   -1    0    0    0  501 -0.00000000000E+00 -0.00000000000E+00 -0.14621582300E+02  0.14621582300E+02  0.00000000000E+00 0.  1.
         23    2    1    2    0    0 -0.42951049908E+02  0.71047458922E+02  0.51897154250E+03  0.53398452317E+03  0.94421792806E+02 0.  0.
         13    1    3    3    0    0  0.21988216189E+01  0.39590895890E+02  0.61233666835E+02  0.72950913688E+02  0.00000000000E+00 0.  1.
        -13    1    3    3    0    0 -0.45149871527E+02  0.31456563032E+02  0.45773787566E+03  0.46103360948E+03  0.00000000000E+00 0. -1.
         22    1    1    2    0    0  0.42951049908E+02 -0.71047458922E+02  0.23506498607E+03  0.24929517000E+03  0.00000000000E+00 0.  1.
<mgrwt>
<rscale>  0 0.11333820E+03</rscale>
<asrwt>0</asrwt>
<pdfrwt beam="1">  1        2 0.11825506E+00 0.12572991E+03</pdfrwt>
<pdfrwt beam="2">  1       -2 0.22494748E-02 0.12572991E+03</pdfrwt>
<totfact> 0.22800289E+04</totfact>
</mgrwt>
</event>
<event>
 6    1  0.2866116E-002  0.9110036E+02  0.7546771E-02  0.1423260E+00
         -2   -1    0    0    0  501 -0.00000000000E+00  0.00000000000E+00  0.44719083799E+01  0.44719083799E+01  0.00000000000E+00 0.  1.
          2   -1    0    0  501    0  0.00000000000E+00 -0.00000000000E+00 -0.74130626319E+03  0.74130626319E+03  0.00000000000E+00 0. -1.
         23    2    1    2    0    0  0.40562296642E+01 -0.10792820081E+02 -0.71754947946E+03  0.72330942925E+03  0.90367787393E+02 0.  0.
         13    1    3    3    0    0  0.13958096402E+02  0.12636857075E+02 -0.66139185531E+03  0.66165981054E+03  0.00000000000E+00 0. -1.
        -13    1    3    3    0    0 -0.99018667380E+01 -0.23429677156E+02 -0.56157624148E+02  0.61649618705E+02  0.00000000000E+00 0.  1.
         22    1    1    2    0    0 -0.40562296642E+01  0.10792820081E+02 -0.19284875354E+02  0.22468742328E+02  0.00000000000E+00 0.  1.
<mgrwt>
<rscale>  0 0.54337066E+02</rscale>
<asrwt>0</asrwt>
<pdfrwt beam="1">  1        2 0.11404695E+00 0.91100357E+02</pdfrwt>
<pdfrwt beam="2">  1       -2 0.68798693E-03 0.91100357E+02</pdfrwt>
<totfact> 0.12473398E+05</totfact>
</mgrwt>
</event>
<event>
 6    1  0.2866116E-002  0.9180388E+02  0.7546771E-02  0.1414168E+00
          2   -1    0    0  501    0  0.00000000000E+00  0.00000000000E+00  0.28044621710E+02  0.28044621710E+02  0.00000000000E+00 0. -1.
         -2   -1    0    0    0  501 -0.00000000000E+00 -0.00000000000E+00 -0.10226626649E+03  0.10226626649E+03  0.00000000000E+00 0.  1.
         23    2    1    2    0    0 -0.12032927917E+02  0.48173398961E+01 -0.54657835336E+02  0.10684302170E+03  0.90884290201E+02 0.  0.
         11    1    3    3    0    0 -0.22591396231E+02  0.12635314177E+02  0.18944895089E+02  0.32076960547E+02  0.00000000000E+00 0. -1.
        -11    1    3    3    0    0  0.10558468314E+02 -0.78179742804E+01 -0.73602730424E+02  0.74766061157E+02  0.00000000000E+00 0.  1.
         22    1    1    2    0    0  0.12032927917E+02 -0.48173398961E+01 -0.19563809446E+02  0.23467866498E+02  0.00000000000E+00 0.  1.
<mgrwt>
<rscale>  0 0.56274135E+02</rscale>
<asrwt>0</asrwt>
<pdfrwt beam="1">  1        2 0.43145572E-02 0.91803880E+02</pdfrwt>
<pdfrwt beam="2">  1       -2 0.15733272E-01 0.91803880E+02</pdfrwt>
<totfact> 0.51963576E+04</totfact>
</mgrwt>
</event>
<event>
 6    1  0.2866116E-002  0.9072580E+02  0.7546771E-02  0.1429778E+00
         -2   -1    0    0    0  501 -0.00000000000E+00  0.00000000000E+00  0.32292586706E+02  0.32292586706E+02  0.00000000000E+00 0.  1.
          2   -1    0    0  501    0  0.00000000000E+00 -0.00000000000E+00 -0.10137687280E+03  0.10137687280E+03  0.00000000000E+00 0. -1.
         23    2    1    2    0    0 -0.10059556079E+02 -0.32437271662E+01 -0.78150508745E+02  0.11974420089E+03  0.90108019596E+02 0.  0.
         11    1    3    3    0    0  0.34107857654E+02 -0.54998270415E+01 -0.64990514314E+02  0.73602724148E+02  0.00000000000E+00 0. -1.
        -11    1    3    3    0    0 -0.44167413734E+02  0.22560998753E+01 -0.13159994431E+02  0.46141476743E+02  0.00000000000E+00 0.  1.
         22    1    1    2    0    0  0.10059556079E+02  0.32437271662E+01  0.90662226489E+01  0.13925258618E+02  0.00000000000E+00 0. -1.
<mgrwt>
<rscale>  0 0.53004502E+02</rscale>
<asrwt>0</asrwt>
<pdfrwt beam="1">  1        2 0.15596442E-01 0.90725805E+02</pdfrwt>
<pdfrwt beam="2">  1       -2 0.49680903E-02 0.90725805E+02</pdfrwt>
<totfact> 0.63117308E+04</totfact>
</mgrwt>
</event>
<event>
 6    1  0.2866116E-002  0.9330108E+02  0.7546771E-02  0.1386769E+00
          3   -1    0    0  501    0  0.00000000000E+00  0.00000000000E+00  0.68705140065E+01  0.68705140065E+01  0.00000000000E+00 0. -1.
         -3   -1    0    0    0  501 -0.00000000000E+00 -0.00000000000E+00 -0.47262208440E+03  0.47262208440E+03  0.00000000000E+00 0.  1.
         23    2    1    2    0    0 -0.15925681130E+01 -0.18983389348E+02 -0.35191961396E+03  0.36407760956E+03  0.91335566735E+02 0.  0.
         11    1    3    3    0    0 -0.16863378742E+02  0.25464077119E+02 -0.24982608914E+03  0.25168604964E+03  0.00000000000E+00 0.  1.
        -11    1    3    3    0    0  0.15270810629E+02 -0.44447466467E+02 -0.10209352482E+03  0.11239155992E+03  0.00000000000E+00 0. -1.
         22    1    1    2    0    0  0.15925681130E+01  0.18983389348E+02 -0.11383195643E+03  0.11541498884E+03  0.00000000000E+00 0.  1.
<mgrwt>
<rscale>  0 0.62717562E+02</rscale>
<asrwt>0</asrwt>
<pdfrwt beam="1">  1        3 0.10570016E-02 0.93301078E+02</pdfrwt>
<pdfrwt beam="2">  1       -3 0.72711125E-01 0.93301078E+02</pdfrwt>
<totfact> 0.96128162E+03</totfact>
</mgrwt>
</event>
<event>
 6    1  0.2866116E-002  0.9228716E+02  0.7546771E-02  0.1425840E+00
          4   -1    0    0  501    0  0.00000000000E+00  0.00000000000E+00  0.55817383179E+02  0.55817383179E+02  0.00000000000E+00 0. -1.
         -4   -1    0    0    0  501 -0.00000000000E+00 -0.00000000000E+00 -0.53839975892E+02  0.53839975892E+02  0.00000000000E+00 0.  1.
         23    2    1    2    0    0  0.43575338260E+01 -0.97309801974E+01  0.14271266122E+02  0.93384097515E+02  0.91669190873E+02 0.  0.
         13    1    3    3    0    0 -0.32843080941E+02  0.15713387409E+02  0.28374137203E+02  0.46159182960E+02  0.00000000000E+00 0. -1.
        -13    1    3    3    0    0  0.37200614767E+02 -0.25444367606E+02 -0.14102871081E+02  0.47224914554E+02  0.00000000000E+00 0.  1.
         22    1    1    2    0    0 -0.43575338260E+01  0.97309801974E+01 -0.12293858834E+02  0.16273261556E+02  0.00000000000E+00 0.  1.
<mgrwt>
<rscale>  0 0.53804242E+02</rscale>
<asrwt>0</asrwt>
<pdfrwt beam="1">  1        4 0.85872897E-02 0.92287164E+02</pdfrwt>
<pdfrwt beam="2">  1       -4 0.82830732E-02 0.92287164E+02</pdfrwt>
<totfact> 0.14821631E+04</totfact>
</mgrwt>
</event>
<event>
 6    1  0.2866116E-002  0.9269210E+02  0.7546771E-02  0.1370993E+00
          2   -1    0    0  501    0  0.00000000000E+00  0.00000000000E+00  0.13440166183E+03  0.13440166183E+03  0.00000000000E+00 0. -1.
         -2   -1    0    0    0  501 -0.00000000000E+00 -0.00000000000E+00 -0.26441338556E+02  0.26441338556E+02  0.00000000000E+00 0.  1.
         23    2    1    2    0    0  0.25009166624E+02  0.25622928442E+01  0.94312939871E+02  0.13223749683E+03  0.89217717864E+02 0.  0.
         13    1    3    3    0    0 -0.26367547421E+02  0.25062970862E+02  0.32648322032E+02  0.48880599392E+02  0.00000000000E+00 0.  1.
        -13    1    3    3    0    0  0.51376714044E+02 -0.22500678018E+02  0.61664617839E+02  0.83356897438E+02  0.00000000000E+00 0. -1.
         22    1    1    2    0    0 -0.25009166624E+02 -0.25622928442E+01  0.13647383399E+02  0.28605503552E+02  0.00000000000E+00 0. -1.
<mgrwt>
<rscale>  0 0.66891927E+02</rscale>
<asrwt>0</asrwt>
<pdfrwt beam="1">  1        2 0.20677178E-01 0.92692098E+02</pdfrwt>
<pdfrwt beam="2">  1       -2 0.40678983E-02 0.92692098E+02</pdfrwt>
<totfact> 0.61830034E+04</totfact>
</mgrwt>
</event>
<event>
 6    1  0.2866116E-002  0.9307049E+02  0.7546771E-02  0.1385808E+00
         -2   -1    0    0    0  501 -0.00000000000E+00  0.00000000000E+00  0.22444049171E+01  0.22444049171E+01  0.00000000000E+00 0.  1.
          2   -1    0    0  501    0  0.00000000000E+00 -0.00000000000E+00 -0.20007681900E+04  0.20007681900E+04  0.00000000000E+00 0. -1.
         23    2    1    2    0    0  0.89222826787E+01  0.17330520501E+02 -0.19143597174E+04  0.19166207877E+04  0.91006384876E+02 0.  0.
         11    1    3    3    0    0 -0.28727740038E+02  0.39459808825E+02 -0.90218314662E+03  0.90350251223E+03  0.00000000000E+00 0.  1.
        -11    1    3    3    0    0  0.37650022716E+02 -0.22129288324E+02 -0.10121765708E+04  0.10131182754E+04  0.00000000000E+00 0. -1.
         22    1    1    2    0    0 -0.89222826787E+01 -0.17330520501E+02 -0.84164067682E+02  0.86391807238E+02  0.00000000000E+00 0.  1.
<mgrwt>
<rscale>  0 0.62961547E+02</rscale>
<asrwt>0</asrwt>
<pdfrwt beam="1">  1        2 0.30781096E+00 0.93070490E+02</pdfrwt>
<pdfrwt beam="2">  1       -2 0.34529253E-03 0.93070490E+02</pdfrwt>
<totfact> 0.67626205E+04</totfact>
</mgrwt>
</event>
<event>
 6    1  0.2866116E-002  0.8679723E+02  0.7546771E-02  0.1421668E+00
         -2   -1    0    0    0  501 -0.00000000000E+00  0.00000000000E+00  0.45668773605E+01  0.45668773605E+01  0.00000000000E+00 0.  1.
          2   -1    0    0  501    0  0.00000000000E+00 -0.00000000000E+00 -0.62472827557E+03  0.62472827557E+03  0.00000000000E+00 0. -1.
         23    2    1    2    0    0 -0.11587685337E+02 -0.72342037637E+01 -0.58772351321E+03  0.59409821359E+03  0.85715525188E+02 0.  0.
         11    1    3    3    0    0 -0.34466969067E+02  0.26360491722E+02 -0.22859004214E+03  0.23267198982E+03  0.00000000000E+00 0.  1.
        -11    1    3    3    0    0  0.22879283730E+02 -0.33594695486E+02 -0.35913347107E+03  0.36142622377E+03  0.00000000000E+00 0. -1.
         22    1    1    2    0    0  0.11587685337E+02  0.72342037637E+01 -0.32437885006E+02  0.35196939344E+02  0.00000000000E+00 0. -1.
<mgrwt>
<rscale>  0 0.54669579E+02</rscale>
<asrwt>0</asrwt>
<pdfrwt beam="1">  1        2 0.96112035E-01 0.86797232E+02</pdfrwt>
<pdfrwt beam="2">  1       -2 0.70259657E-03 0.86797232E+02</pdfrwt>
<totfact> 0.14653954E+05</totfact>
</mgrwt>
</event>
<event>
 6    1  0.2866116E-002  0.9198427E+02  0.7546771E-02  0.1390328E+00
         -2   -1    0    0    0  501 -0.00000000000E+00  0.00000000000E+00  0.74720049179E+01  0.74720049179E+01  0.00000000000E+00 0.  1.
          2   -1    0    0  501    0  0.00000000000E+00 -0.00000000000E+00 -0.41689416766E+03  0.41689416766E+03  0.00000000000E+00 0. -1.
         23    2    1    2    0    0 -0.67699500530E+01 -0.17509101878E+02 -0.35787137356E+03  0.36950375614E+03  0.90048347647E+02 0.  0.
         11    1    3    3    0    0 -0.28359648231E+02 -0.36363524685E+02 -0.10089955436E+03  0.11093825150E+03  0.00000000000E+00 0.  1.
        -11    1    3    3    0    0  0.21589698178E+02  0.18854422807E+02 -0.25697181920E+03  0.25856550464E+03  0.00000000000E+00 0. -1.
         22    1    1    2    0    0  0.67699500530E+01  0.17509101878E+02 -0.51550789177E+02  0.54862416435E+02  0.00000000000E+00 0.  1.
<mgrwt>
<rscale>  0 0.61825095E+02</rscale>
<asrwt>0</asrwt>
<pdfrwt beam="1">  1        2 0.64137578E-01 0.91984269E+02</pdfrwt>
<pdfrwt beam="2">  1       -2 0.11495390E-02 0.91984269E+02</pdfrwt>
<totfact> 0.11445099E+05</totfact>
</mgrwt>
</event>
<event>
 6    1  0.2866116E-002  0.9672436E+02  0.7546771E-02  0.1382866E+00
         -2   -1    0    0    0  501 -0.00000000000E+00  0.00000000000E+00  0.35881278010E+02  0.35881278010E+02  0.00000000000E+00 0.  1.
          2   -1    0    0  501    0  0.00000000000E+00 -0.00000000000E+00 -0.92117383202E+02  0.92117383202E+02  0.00000000000E+00 0. -1.
         23    2    1    2    0    0 -0.55243944574E+01 -0.17355783455E+02 -0.48619597473E+02  0.10825648952E+03  0.94994000391E+02 0.  0.
         13    1    3    3    0    0  0.37414959832E+02 -0.14214094986E+02 -0.51362018366E+02  0.65115103057E+02  0.00000000000E+00 0. -1.
        -13    1    3    3    0    0 -0.42939354289E+02 -0.31416884692E+01  0.27424208936E+01  0.43141386458E+02  0.00000000000E+00 0.  1.
         22    1    1    2    0    0  0.55243944574E+01  0.17355783455E+02 -0.76165077199E+01  0.19742171697E+02  0.00000000000E+00 0. -1.
<mgrwt>
<rscale>  0 0.63716511E+02</rscale>
<asrwt>0</asrwt>
<pdfrwt beam="1">  1        2 0.14171905E-01 0.96724362E+02</pdfrwt>
<pdfrwt beam="2">  1       -2 0.55201966E-02 0.96724362E+02</pdfrwt>
<totfact> 0.60820040E+04</totfact>
</mgrwt>
</event>
<event>
 6    1  0.2866116E-002  0.1089092E+03  0.7546771E-02  0.1293639E+00
          2   -1    0    0  501    0  0.00000000000E+00  0.00000000000E+00  0.28550903623E+03  0.28550903623E+03  0.00000000000E+00 0. -1.
         -2   -1    0    0    0  501 -0.00000000000E+00 -0.00000000000E+00 -0.28991463824E+02  0.28991463824E+02  0.00000000000E+00 0.  1.
         23    2    1    2    0    0  0.28153308911E+02  0.53234732797E+02  0.21604387058E+03  0.24194248107E+03  0.90745052512E+02 0.  0.
         11    1    3    3    0    0  0.30844044835E+02  0.69333159485E+02  0.21193594643E+03  0.22511172225E+03  0.00000000000E+00 0. -1.
        -11    1    3    3    0    0 -0.26907359244E+01 -0.16098426688E+02  0.41079241440E+01  0.16830758819E+02  0.00000000000E+00 0.  1.
         22    1    1    2    0    0 -0.28153308911E+02 -0.53234732797E+02  0.40473701828E+02  0.72558018979E+02  0.00000000000E+00 0.  1.
<mgrwt>
<rscale>  0 0.93915012E+02</rscale>
<asrwt>0</asrwt>
<pdfrwt beam="1">  1        2 0.43924465E-01 0.10890918E+03</pdfrwt>
<pdfrwt beam="2">  1       -2 0.44602254E-02 0.10890918E+03</pdfrwt>
<totfact> 0.24466650E+04</totfact>
</mgrwt>
</event>
<event>
 6    1  0.2866116E-002  0.9174708E+02  0.7546771E-02  0.1416290E+00
          2   -1    0    0  501    0  0.00000000000E+00  0.00000000000E+00  0.15096777868E+04  0.15096777868E+04  0.00000000000E+00 0. -1.
         -2   -1    0    0    0  501 -0.00000000000E+00 -0.00000000000E+00 -0.28721360155E+01  0.28721360155E+01  0.00000000000E+00 0.  1.
         23    2    1    2    0    0 -0.86704823822E+00  0.12535729310E+02  0.14810846261E+04  0.14839235819E+04  0.90882512378E+02 0.  0.
         13    1    3    3    0    0 -0.10771282418E+02  0.22750101314E+00  0.14378925502E+04  0.14379329116E+04  0.00000000000E+00 0. -1.
        -13    1    3    3    0    0  0.99042341796E+01  0.12308228297E+02  0.43192075847E+02  0.45990670298E+02  0.00000000000E+00 0.  1.
         22    1    1    2    0    0  0.86704823822E+00 -0.12535729310E+02  0.25721024736E+02  0.28626340937E+02  0.00000000000E+00 0.  1.
<mgrwt>
<rscale>  0 0.55813684E+02</rscale>
<asrwt>0</asrwt>
<pdfrwt beam="1">  1        2 0.23225749E+00 0.91747084E+02</pdfrwt>
<pdfrwt beam="2">  1       -2 0.44186828E-03 0.91747084E+02</pdfrwt>
<totfact> 0.84566039E+04</totfact>
</mgrwt>
</event>
<event>
 6    1  0.2866116E-002  0.1057920E+03  0.7546771E-02  0.1317243E+00
         -1   -1    0    0    0  501 -0.00000000000E+00  0.00000000000E+00  0.22720975464E+03  0.22720975464E+03  0.00000000000E+00 0.  1.
          1   -1    0    0  501    0  0.00000000000E+00 -0.00000000000E+00 -0.24692048549E+02  0.24692048549E+02  0.00000000000E+00 0. -1.
         23    2    1    2    0    0  0.20774798704E+02  0.37278641521E+02  0.12832606159E+03  0.16631156141E+03  0.96802210713E+02 0.  0.
         13    1    3    3    0    0 -0.17719267937E+02  0.57623978433E+02  0.58378360993E+02  0.83919773468E+02  0.00000000000E+00 0. -1.
        -13    1    3    3    0    0  0.38494066641E+02 -0.20345336912E+02  0.69947700600E+02  0.82391787939E+02  0.00000000000E+00 0.  1.
         22    1    1    2    0    0 -0.20774798704E+02 -0.37278641521E+02  0.74191644498E+02  0.85590241781E+02  0.00000000000E+00 0.  1.
<mgrwt>
<rscale>  0 0.84311562E+02</rscale>
<asrwt>0</asrwt>
<pdfrwt beam="1">  1        1 0.37987768E-02 0.10579205E+03</pdfrwt>
<pdfrwt beam="2">  1       -1 0.34955346E-01 0.10579205E+03</pdfrwt>
<totfact> 0.17352704E+04</totfact>
</mgrwt>
</event>
<event>
 6    1  0.2866116E-002  0.9213976E+02  0.7546771E-02  0.1415540E+00
         -1   -1    0    0    0  501 -0.00000000000E+00  0.00000000000E+00  0.77535536793E+01  0.77535536793E+01  0.00000000000E+00 0.  1.
          1   -1    0    0  501    0  0.00000000000E+00 -0.00000000000E+00 -0.11207492057E+04  0.11207492057E+04  0.00000000000E+00 0. -1.
         23    2    1    2    0    0  0.11473425505E+02 -0.50866369171E+01 -0.11121107501E+04  0.11159211688E+04  0.91281000901E+02 0.  0.
         13    1    3    3    0    0  0.85012701514E+01 -0.38109681803E+02 -0.23799293609E+03  0.24117474385E+03  0.00000000000E+00 0.  1.
        -13    1    3    3    0    0  0.29721553539E+01  0.33023044886E+02 -0.87411781405E+03  0.87474642500E+03  0.00000000000E+00 0. -1.
         22    1    1    2    0    0 -0.11473425505E+02  0.50866369171E+01 -0.88490183147E+00  0.12581590488E+02  0.00000000000E+00 0.  1.
<mgrwt>
<rscale>  0 0.55975756E+02</rscale>
<asrwt>0</asrwt>
<pdfrwt beam="1">  1        1 0.17242276E+00 0.92139755E+02</pdfrwt>
<pdfrwt beam="2">  1       -1 0.11928558E-02 0.92139755E+02</pdfrwt>
<totfact> 0.17661986E+04</totfact>
</mgrwt>
</event>
<event>
 6    1  0.2866116E-002  0.9062543E+02  0.7546771E-02  0.1425012E+00
         -2   -1    0    0    0  501 -0.00000000000E+00  0.00000000000E+00  0.64901332061E+02  0.64901332061E+02  0.00000000000E+00 0.  1.
          2   -1    0    0  501    0  0.00000000000E+00 -0.00000000000E+00 -0.40927325560E+02  0.40927325560E+02  0.00000000000E+00 0. -1.
         23    2    1    2    0    0  0.44333532500E+01  0.10505370923E+02  0.16287799510E+02  0.92077467957E+02  0.89905229287E+02 0.  0.
         11    1    3    3    0    0 -0.66201436725E+01 -0.20082587810E+02 -0.29265261577E+02  0.36105292833E+02  0.00000000000E+00 0. -1.
        -11    1    3    3    0    0  0.11053496922E+02  0.30587958734E+02  0.45553061086E+02  0.55972175124E+02  0.00000000000E+00 0.  1.
         22    1    1    2    0    0 -0.44333532500E+01 -0.10505370923E+02  0.76862069910E+01  0.13751189664E+02  0.00000000000E+00 0. -1.
<mgrwt>
<rscale>  0 0.53974390E+02</rscale>
<asrwt>0</asrwt>
<pdfrwt beam="1">  1        2 0.62965116E-02 0.90625425E+02</pdfrwt>
<pdfrwt beam="2">  1       -2 0.99848203E-02 0.90625425E+02</pdfrwt>
<totfact> 0.65701322E+04</totfact>
</mgrwt>
</event>
<event>
 6    1  0.2866116E-002  0.9942486E+02  0.7546771E-02  0.1329306E+00
          1   -1    0    0  501    0  0.00000000000E+00  0.00000000000E+00  0.47924050941E+02  0.47924050941E+02  0.00000000000E+00 0. -1.
         -1   -1    0    0    0  501 -0.00000000000E+00 -0.00000000000E+00 -0.26706174358E+03  0.26706174358E+03  0.00000000000E+00 0.  1.
         23    2    1    2    0    0 -0.33335197958E+02 -0.24699633476E+02 -0.79287268433E+01  0.99740505259E+02  0.90354835859E+02 0.  0.
         11    1    3    3    0    0 -0.19244150758E+00 -0.14162250507E+02  0.38906928381E+02  0.41404775682E+02  0.00000000000E+00 0. -1.
        -11    1    3    3    0    0 -0.33142756450E+02 -0.10537382969E+02 -0.46835655225E+02  0.58335729577E+02  0.00000000000E+00 0.  1.
         22    1    1    2    0    0  0.33335197958E+02  0.24699633476E+02 -0.21120896580E+03  0.21524528926E+03  0.00000000000E+00 0.  1.
<mgrwt>
<rscale>  0 0.79910447E+02</rscale>
<asrwt>0</asrwt>
<pdfrwt beam="1">  1        1 0.73729309E-02 0.99424864E+02</pdfrwt>
<pdfrwt beam="2">  1       -1 0.41086422E-01 0.99424864E+02</pdfrwt>
<totfact> 0.53251896E+03</totfact>
</mgrwt>
</event>
<event>
 6    1  0.2866116E-002  0.9586648E+02  0.7546771E-02  0.1338040E+00
         -2   -1    0    0    0  501 -0.00000000000E+00  0.00000000000E+00  0.36550386186E+02  0.36550386186E+02  0.00000000000E+00 0.  1.
          2   -1    0    0  501    0  0.00000000000E+00 -0.00000000000E+00 -0.14137325337E+03  0.14137325337E+03  0.00000000000E+00 0. -1.
         23    2    1    2    0    0 -0.18792753242E+01 -0.39679979059E+02 -0.44489257674E+02  0.10568669021E+03  0.87248782375E+02 0.  0.
         11    1    3    3    0    0 -0.24610075042E+01 -0.67400958230E+02 -0.25619603965E+02  0.72147833201E+02  0.00000000000E+00 0.  1.
        -11    1    3    3    0    0  0.58173218001E+00  0.27720979172E+02 -0.18869653709E+02  0.33538857012E+02  0.00000000000E+00 0. -1.
         22    1    1    2    0    0  0.18792753242E+01  0.39679979059E+02 -0.60333609509E+02  0.72236949342E+02  0.00000000000E+00 0. -1.
<mgrwt>
<rscale>  0 0.76915627E+02</rscale>
<asrwt>0</asrwt>
<pdfrwt beam="1">  1        2 0.21749731E-01 0.95866482E+02</pdfrwt>
<pdfrwt beam="2">  1       -2 0.56231363E-02 0.95866482E+02</pdfrwt>
<totfact> 0.36312312E+04</totfact>
</mgrwt>
</event>
<event>
 6    1  0.2866116E-002  0.7732029E+02  0.7546771E-02  0.1432652E+00
          3   -1    0    0  501    0  0.00000000000E+00  0.00000000000E+00  0.86346691154E+02  0.86346691154E+02  0.00000000000E+00 0. -1.
         -3   -1    0    0    0  501 -0.00000000000E+00 -0.00000000000E+00 -0.25650832431E+02  0.25650832431E+02  0.00000000000E+00 0.  1.
         23    2    1    2    0    0  0.99705749187E+01 -0.12956395652E+02  0.54104200111E+02  0.94369973678E+02  0.75572130510E+02 0.  0.
         11    1    3    3    0    0 -0.29860968279E+02 -0.19352873524E+02  0.16513145693E+02  0.39228753751E+02  0.00000000000E+00 0.  1.
        -11    1    3    3    0    0  0.39831543198E+02  0.63964778721E+01  0.37591054419E+02  0.55141219927E+02  0.00000000000E+00 0. -1.
         22    1    1    2    0    0 -0.99705749187E+01  0.12956395652E+02  0.65916586115E+01  0.17627549908E+02  0.00000000000E+00 0. -1.
<mgrwt>
<rscale>  0 0.52431349E+02</rscale>
<asrwt>0</asrwt>
<pdfrwt beam="1">  1        3 0.13284106E-01 0.77320291E+02</pdfrwt>
<pdfrwt beam="2">  1       -3 0.39462819E-02 0.77320291E+02</pdfrwt>
<totfact> 0.29364723E+04</totfact>
</mgrwt>
</event>
<event>
 6    1  0.2866116E-002  0.9311310E+02  0.7546771E-02  0.1387597E+00
         -4   -1    0    0    0  501 -0.00000000000E+00  0.00000000000E+00  0.21037990153E+02  0.21037990153E+02  0.00000000000E+00 0. -1.
          4   -1    0    0  501    0  0.00000000000E+00 -0.00000000000E+00 -0.50171818106E+03  0.50171818106E+03  0.00000000000E+00 0.  1.
         23    2    1    2    0    0 -0.13357966942E+02 -0.13386690448E+02 -0.49198817790E+03  0.50072189491E+03  0.91172419565E+02 0.  0.
         13    1    3    3    0    0  0.27435099947E+02 -0.28343508223E+02 -0.12266151044E+03  0.12884830349E+03  0.00000000000E+00 0. -1.
        -13    1    3    3    0    0 -0.40793066889E+02  0.14956817775E+02 -0.36932666746E+03  0.37187359142E+03  0.00000000000E+00 0.  1.
         22    1    1    2    0    0  0.13357966942E+02  0.13386690448E+02  0.11307986997E+02  0.22034276296E+02  0.00000000000E+00 0. -1.
<mgrwt>
<rscale>  0 0.62508439E+02</rscale>
<asrwt>0</asrwt>
<pdfrwt beam="1">  1        4 0.77187411E-01 0.93113097E+02</pdfrwt>
<pdfrwt beam="2">  1       -4 0.32366139E-02 0.93113097E+02</pdfrwt>
<totfact> 0.11161774E+03</totfact>
</mgrwt>
</event>
<event>
 6    1  0.2866116E-002  0.1050569E+03  0.7546771E-02  0.1306104E+00
         -2   -1    0    0    0  501 -0.00000000000E+00  0.00000000000E+00  0.21035407698E+02  0.21035407698E+02  0.00000000000E+00 0.  1.
          2   -1    0    0  501    0  0.00000000000E+00 -0.00000000000E+00 -0.31512969943E+03  0.31512969943E+03  0.00000000000E+00 0. -1.
         23    2    1    2    0    0  0.32091757308E+02  0.42573195422E+02 -0.22955759065E+03  0.25245522932E+03  0.90524016326E+02 0.  0.
         11    1    3    3    0    0 -0.15513041583E+02 -0.20699020639E+02 -0.55102788403E+02  0.60872171017E+02  0.00000000000E+00 0.  1.
        -11    1    3    3    0    0  0.47604798890E+02  0.63272216061E+02 -0.17445480225E+03  0.19158305831E+03  0.00000000000E+00 0. -1.
         22    1    1    2    0    0 -0.32091757308E+02 -0.42573195422E+02 -0.64536701076E+02  0.83709877800E+02  0.00000000000E+00 0.  1.
<mgrwt>
<rscale>  0 0.88670330E+02</rscale>
<asrwt>0</asrwt>
<pdfrwt beam="1">  1        2 0.48481486E-01 0.10505691E+03</pdfrwt>
<pdfrwt beam="2">  1       -2 0.32362170E-02 0.10505691E+03</pdfrwt>
<totfact> 0.35246605E+04</totfact>
</mgrwt>
</event>
<event>
 6    1  0.2866116E-002  0.9251342E+02  0.7546771E-02  0.1402561E+00
         -2   -1    0    0    0  501 -0.00000000000E+00  0.00000000000E+00  0.17952812335E+02  0.17952812335E+02  0.00000000000E+00 0.  1.
          2   -1    0    0  501    0  0.00000000000E+00 -0.00000000000E+00 -0.28918355258E+03  0.28918355258E+03  0.00000000000E+00 0. -1.
         23    2    1    2    0    0  0.13972834843E+02  0.59504244089E+01 -0.27610052152E+03  0.29118762096E+03  0.91258341803E+02 0.  0.
         13    1    3    3    0    0 -0.15914674898E+02  0.42129593100E+02 -0.11938662400E+03  0.12759837570E+03  0.00000000000E+00 0. -1.
        -13    1    3    3    0    0  0.29887509741E+02 -0.36179168691E+02 -0.15671389752E+03  0.16358924525E+03  0.00000000000E+00 0.  1.
         22    1    1    2    0    0 -0.13972834843E+02 -0.59504244089E+01  0.48697812775E+01  0.15948743959E+02  0.00000000000E+00 0.  1.
<mgrwt>
<rscale>  0 0.58887373E+02</rscale>
<asrwt>0</asrwt>
<pdfrwt beam="1">  1        2 0.44489780E-01 0.92513419E+02</pdfrwt>
<pdfrwt beam="2">  1       -2 0.27619710E-02 0.92513419E+02</pdfrwt>
<totfact> 0.47839370E+04</totfact>
</mgrwt>
</event>
<event>
 6    1  0.2866116E-002  0.9346038E+02  0.7546771E-02  0.1376811E+00
         -4   -1    0    0    0  501 -0.00000000000E+00  0.00000000000E+00  0.80432460661E+02  0.80432460661E+02  0.00000000000E+00 0.  1.
          4   -1    0    0  501    0  0.00000000000E+00 -0.00000000000E+00 -0.44471080274E+02  0.44471080274E+02  0.00000000000E+00 0. -1.
         23    2    1    2    0    0 -0.20754619287E+02 -0.81173900717E+01  0.15671635673E+02  0.94765193537E+02  0.90764505718E+02 0.  0.
         13    1    3    3    0    0  0.14212417217E+02  0.11391519034E+02  0.42722317523E+02  0.46443039561E+02  0.00000000000E+00 0.  1.
        -13    1    3    3    0    0 -0.34967036504E+02 -0.19508909106E+02 -0.27050681850E+02  0.48322153977E+02  0.00000000000E+00 0. -1.
         22    1    1    2    0    0  0.20754619287E+02  0.81173900717E+01  0.20289744714E+02  0.30138347398E+02  0.00000000000E+00 0.  1.
<mgrwt>
<rscale>  0 0.65309526E+02</rscale>
<asrwt>0</asrwt>
<pdfrwt beam="1">  1        4 0.68417047E-02 0.93460375E+02</pdfrwt>
<pdfrwt beam="2">  1       -4 0.12374225E-01 0.93460375E+02</pdfrwt>
<totfact> 0.11029632E+04</totfact>
</mgrwt>
</event>
<event>
 6    1  0.2866116E-002  0.9402925E+02  0.7546771E-02  0.1412290E+00
         -2   -1    0    0    0  501 -0.00000000000E+00  0.00000000000E+00  0.81946467072E+01  0.81946467072E+01  0.00000000000E+00 0.  1.
          2   -1    0    0  501    0  0.00000000000E+00 -0.00000000000E+00 -0.84315945774E+03  0.84315945774E+03  0.00000000000E+00 0. -1.
         23    2    1    2    0    0  0.12401806731E+02  0.66647132912E+00 -0.83356965457E+03  0.83885628641E+03  0.93205424849E+02 0.  0.
         13    1    3    3    0    0 -0.17896052246E+02  0.27167789285E+02 -0.12565198500E+03  0.12979514165E+03  0.00000000000E+00 0.  1.
        -13    1    3    3    0    0  0.30297858977E+02 -0.26501317956E+02 -0.70791766957E+03  0.70906114476E+03  0.00000000000E+00 0. -1.
         22    1    1    2    0    0 -0.12401806731E+02 -0.66647132912E+00 -0.13951564574E+01  0.12497818040E+02  0.00000000000E+00 0.  1.
<mgrwt>
<rscale>  0 0.56685898E+02</rscale>
<asrwt>0</asrwt>
<pdfrwt beam="1">  1        2 0.12971683E+00 0.94029252E+02</pdfrwt>
<pdfrwt beam="2">  1       -2 0.12607149E-02 0.94029252E+02</pdfrwt>
<totfact> 0.45448567E+04</totfact>
</mgrwt>
</event>
<event>
 6    1  0.2866116E-002  0.9294538E+02  0.7546771E-02  0.1427180E+00
         -1   -1    0    0    0  501 -0.00000000000E+00  0.00000000000E+00  0.11060543267E+02  0.11060543267E+02  0.00000000000E+00 0.  1.
          1   -1    0    0  501    0  0.00000000000E+00 -0.00000000000E+00 -0.27361199369E+03  0.27361199369E+03  0.00000000000E+00 0. -1.
         23    2    1    2    0    0  0.31327770208E+01 -0.97345229847E+01 -0.25642849749E+03  0.27275340183E+03  0.92381105502E+02 0.  0.
         13    1    3    3    0    0 -0.38449458030E+02 -0.11013033905E+02 -0.19156041966E+03  0.19569119070E+03  0.00000000000E+00 0. -1.
        -13    1    3    3    0    0  0.41582235051E+02  0.12785109208E+01 -0.64868077832E+02  0.77062211126E+02  0.00000000000E+00 0.  1.
         22    1    1    2    0    0 -0.31327770208E+01  0.97345229847E+01 -0.61229529332E+01  0.11919135129E+02  0.00000000000E+00 0.  1.
<mgrwt>
<rscale>  0 0.53530274E+02</rscale>
<asrwt>0</asrwt>
<pdfrwt beam="1">  1        1 0.42094148E-01 0.92945381E+02</pdfrwt>
<pdfrwt beam="2">  1       -1 0.17016222E-02 0.92945381E+02</pdfrwt>
<totfact> 0.74077304E+04</totfact>
</mgrwt>
</event>
<event>
 6    1  0.2866116E-002  0.9312731E+02  0.7546771E-02  0.1396520E+00
         -2   -1    0    0    0  501 -0.00000000000E+00  0.00000000000E+00  0.16518172672E+01  0.16518172672E+01  0.00000000000E+00 0.  1.
          2   -1    0    0  501    0  0.00000000000E+00 -0.00000000000E+00 -0.32629372750E+04  0.32629372750E+04  0.00000000000E+00 0. -1.
         23    2    1    2    0    0 -0.13666554885E+02  0.90373936831E+01 -0.31932825442E+04  0.31946402148E+04  0.91674674016E+02 0.  0.
         11    1    3    3    0    0  0.20836298059E+01  0.22693332678E+02 -0.20142326685E+03  0.20270831579E+03  0.00000000000E+00 0.  1.
        -11    1    3    3    0    0 -0.15750184691E+02 -0.13655938995E+02 -0.29918592774E+04  0.29919318991E+04  0.00000000000E+00 0. -1.
         22    1    1    2    0    0  0.13666554885E+02 -0.90373936831E+01 -0.68002913548E+02  0.69948877461E+02  0.00000000000E+00 0.  1.
<mgrwt>
<rscale>  0 0.60313641E+02</rscale>
<asrwt>0</asrwt>
<pdfrwt beam="1">  1        2 0.50198809E+00 0.93127306E+02</pdfrwt>
<pdfrwt beam="2">  1       -2 0.25412688E-03 0.93127306E+02</pdfrwt>
<totfact> 0.21521234E+04</totfact>
</mgrwt>
</event>
<event>
 6    1  0.2866116E-002  0.9830621E+02  0.7546771E-02  0.1338710E+00
         -2   -1    0    0    0  501 -0.00000000000E+00  0.00000000000E+00  0.41324261964E+01  0.41324261964E+01  0.00000000000E+00 0.  1.
          2   -1    0    0  501    0  0.00000000000E+00 -0.00000000000E+00 -0.19712445563E+04  0.19712445563E+04  0.00000000000E+00 0. -1.
         23    2    1    2    0    0 -0.20550912129E+02  0.30059190621E+02 -0.18527858426E+04  0.18553920045E+04  0.91313837337E+02 0.  0.
         11    1    3    3    0    0 -0.32529935432E+02 -0.18570152565E+02 -0.40182766494E+03  0.40356972084E+03  0.00000000000E+00 0.  1.
        -11    1    3    3    0    0  0.11979023303E+02  0.48629343186E+02 -0.14509581777E+04  0.14518222837E+04  0.00000000000E+00 0. -1.
         22    1    1    2    0    0  0.20550912129E+02 -0.30059190621E+02 -0.11432628745E+03  0.11998497795E+03  0.00000000000E+00 0.  1.
<mgrwt>
<rscale>  0 0.76691877E+02</rscale>
<asrwt>0</asrwt>
<pdfrwt beam="1">  1        2 0.30326760E+00 0.98306215E+02</pdfrwt>
<pdfrwt beam="2">  1       -2 0.63575954E-03 0.98306215E+02</pdfrwt>
<totfact> 0.29868500E+04</totfact>
</mgrwt>
</event>
<event>
 6    1  0.2866116E-002  0.8168761E+02  0.7546771E-02  0.1451415E+00
         -2   -1    0    0    0  501 -0.00000000000E+00  0.00000000000E+00  0.14897674216E+03  0.14897674216E+03  0.00000000000E+00 0.  1.
          2   -1    0    0  501    0  0.00000000000E+00 -0.00000000000E+00 -0.19381103048E+02  0.19381103048E+02  0.00000000000E+00 0. -1.
         23    2    1    2    0    0 -0.93478897761E+01  0.47430067174E+01  0.69197425921E+02  0.10705675784E+03  0.81012261349E+02 0.  0.
         13    1    3    3    0    0 -0.32004574365E+02  0.29565607285E+02  0.21178516309E+02  0.48445303875E+02  0.00000000000E+00 0. -1.
        -13    1    3    3    0    0  0.22656684589E+02 -0.24822600567E+02  0.48018909612E+02  0.58611453964E+02  0.00000000000E+00 0.  1.
         22    1    1    2    0    0  0.93478897761E+01 -0.47430067174E+01  0.60398213187E+02  0.61301087366E+02  0.00000000000E+00 0.  1.
<mgrwt>
<rscale>  0 0.48891297E+02</rscale>
<asrwt>0</asrwt>
<pdfrwt beam="1">  1        2 0.29817083E-02 0.81687610E+02</pdfrwt>
<pdfrwt beam="2">  1       -2 0.22919498E-01 0.81687610E+02</pdfrwt>
<totfact> 0.44380122E+04</totfact>
</mgrwt>
</event>
<event>
 6    1  0.2866116E-002  0.9149804E+02  0.7546771E-02  0.1410527E+00
         -2   -1    0    0    0  501 -0.00000000000E+00  0.00000000000E+00  0.47609181961E+02  0.47609181961E+02  0.00000000000E+00 0.  1.
          2   -1    0    0  501    0  0.00000000000E+00 -0.00000000000E+00 -0.73654322361E+02  0.73654322361E+02  0.00000000000E+00 0. -1.
         23    2    1    2    0    0 -0.11998037621E+02  0.69280120739E+01 -0.41532903915E+02  0.10048319930E+03  0.90443026134E+02 0.  0.
         13    1    3    3    0    0 -0.67166506238E+01 -0.15732121348E+02  0.24834307137E+02  0.30155527664E+02  0.00000000000E+00 0.  1.
        -13    1    3    3    0    0 -0.52813869977E+01  0.22660133422E+02 -0.66367211052E+02  0.70327671638E+02  0.00000000000E+00 0. -1.
         22    1    1    2    0    0  0.11998037621E+02 -0.69280120739E+01  0.15487763514E+02  0.20780305020E+02  0.00000000000E+00 0.  1.
<mgrwt>
<rscale>  0 0.57076513E+02</rscale>
<asrwt>0</asrwt>
<pdfrwt beam="1">  1        2 0.11331434E-01 0.91498040E+02</pdfrwt>
<pdfrwt beam="2">  1       -2 0.73244896E-02 0.91498040E+02</pdfrwt>
<totfact> 0.51327042E+04</totfact>
</mgrwt>
</event>
<event>
 6    1  0.2866116E-002  0.9208341E+02  0.7546771E-02  0.1420867E+00
          1   -1    0    0  501    0  0.00000000000E+00  0.00000000000E+00  0.14027528829E+02  0.14027528829E+02  0.00000000000E+00 0. -1.
         -1   -1    0    0    0  501 -0.00000000000E+00 -0.00000000000E+00 -0.22029491291E+03  0.22029491291E+03  0.00000000000E+00 0.  1.
         23    2    1    2    0    0  0.83389925288E+01  0.80374588321E+01 -0.14356010716E+03  0.17055456487E+03  0.91352152087E+02 0.  0.
         11    1    3    3    0    0  0.27677822455E+02 -0.27332843082E+02 -0.11431394909E+03  0.12075108746E+03  0.00000000000E+00 0.  1.
        -11    1    3    3    0    0 -0.19338829926E+02  0.35370301914E+02 -0.29246158068E+02  0.49803477410E+02  0.00000000000E+00 0. -1.
         22    1    1    2    0    0 -0.83389925288E+01 -0.80374588321E+01 -0.62707276922E+02  0.63767876864E+02  0.00000000000E+00 0.  1.
<mgrwt>
<rscale>  0 0.54837881E+02</rscale>
<asrwt>0</asrwt>
<pdfrwt beam="1">  1        1 0.21580814E-02 0.92083415E+02</pdfrwt>
<pdfrwt beam="2">  1       -1 0.33891524E-01 0.92083415E+02</pdfrwt>
<totfact> 0.39075310E+04</totfact>
</mgrwt>
</event>
<event>
 6    1  0.2866116E-002  0.9205247E+02  0.7546771E-02  0.1428323E+00
          2   -1    0    0  501    0  0.00000000000E+00  0.00000000000E+00  0.64071009743E+02  0.64071009743E+02  0.00000000000E+00 0. -1.
         -2   -1    0    0    0  501 -0.00000000000E+00 -0.00000000000E+00 -0.41919277203E+02  0.41919277203E+02  0.00000000000E+00 0.  1.
         23    2    1    2    0    0 -0.31095219373E+01 -0.98668711911E+01  0.24754124068E+02  0.95322732613E+02  0.91469297694E+02 0.  0.
         13    1    3    3    0    0  0.16740151303E+02 -0.15080359723E+02 -0.29613608348E+02  0.37210424808E+02  0.00000000000E+00 0.  1.
        -13    1    3    3    0    0 -0.19849673240E+02  0.52134885316E+01  0.54367732416E+02  0.58112307805E+02  0.00000000000E+00 0. -1.
         22    1    1    2    0    0  0.31095219373E+01  0.98668711911E+01 -0.26023915287E+01  0.10667554333E+02  0.00000000000E+00 0. -1.
<mgrwt>
<rscale>  0 0.53298116E+02</rscale>
<asrwt>0</asrwt>
<pdfrwt beam="1">  1        2 0.98570784E-02 0.92052467E+02</pdfrwt>
<pdfrwt beam="2">  1       -2 0.64491196E-02 0.92052467E+02</pdfrwt>
<totfact> 0.73673667E+04</totfact>
</mgrwt>
</event>
<event>
 6    1  0.2866116E-002  0.9106123E+02  0.7546771E-02  0.1420976E+00
         -2   -1    0    0    0  501 -0.00000000000E+00  0.00000000000E+00  0.13600737542E+02  0.13600737542E+02  0.00000000000E+00 0.  1.
          2   -1    0    0  501    0  0.00000000000E+00 -0.00000000000E+00 -0.24330028951E+04  0.24330028951E+04  0.00000000000E+00 0. -1.
         23    2    1    2    0    0  0.11692357427E+02  0.24978649923E+01 -0.24293464070E+04  0.24310524703E+04  0.90272906487E+02 0.  0.
         13    1    3    3    0    0  0.27434929751E+02 -0.23375576805E+01 -0.23423047173E+04  0.23424665480E+04  0.00000000000E+00 0. -1.
        -13    1    3    3    0    0 -0.15742572324E+02  0.48354226728E+01 -0.87041689703E+02  0.88585922370E+02  0.00000000000E+00 0.  1.
         22    1    1    2    0    0 -0.11692357427E+02 -0.24978649923E+01  0.99442494648E+01  0.15551162308E+02  0.00000000000E+00 0.  1.
<mgrwt>
<rscale>  0 0.54814868E+02</rscale>
<asrwt>0</asrwt>
<pdfrwt beam="1">  1        2 0.37430797E+00 0.91061233E+02</pdfrwt>
<pdfrwt beam="2">  1       -2 0.20924221E-02 0.91061233E+02</pdfrwt>
<totfact> 0.31828670E+03</totfact>
</mgrwt>
</event>
<event>
 6    1  0.2866116E-002  0.1099409E+03  0.7546771E-02  0.1365629E+00
         -2   -1    0    0    0  501 -0.00000000000E+00  0.00000000000E+00  0.63003720480E+02  0.63003720480E+02  0.00000000000E+00 0. -1.
          2   -1    0    0  501    0  0.00000000000E+00 -0.00000000000E+00 -0.67367207672E+02  0.67367207672E+02  0.00000000000E+00 0.  1.
         23    2    1    2    0    0 -0.11347755029E+02 -0.11936142799E+02 -0.14710754739E+02  0.11092076119E+03  0.10870034917E+03 0.  0.
         13    1    3    3    0    0 -0.58213019825E+02  0.47585365478E+01  0.19936966459E+01  0.58441202704E+02  0.00000000000E+00 0. -1.
        -13    1    3    3    0    0  0.46865264795E+02 -0.16694679347E+02 -0.16704451385E+02  0.52479558486E+02  0.00000000000E+00 0.  1.
         22    1    1    2    0    0  0.11347755029E+02  0.11936142799E+02  0.10347267547E+02  0.19450166961E+02  0.00000000000E+00 0.  1.
<mgrwt>
<rscale>  0 0.68397369E+02</rscale>
<asrwt>0</asrwt>
<pdfrwt beam="1">  1        2 0.10364186E-01 0.10994093E+03</pdfrwt>
<pdfrwt beam="2">  1       -2 0.96928801E-02 0.10994093E+03</pdfrwt>
<totfact> 0.38050570E+04</totfact>
</mgrwt>
</event>
<event>
 6    1  0.2866116E-002  0.9063482E+02  0.7546771E-02  0.1384933E+00
         -2   -1    0    0    0  501 -0.00000000000E+00  0.00000000000E+00  0.28442291585E+02  0.28442291585E+02  0.00000000000E+00 0.  1.
          2   -1    0    0  501    0  0.00000000000E+00 -0.00000000000E+00 -0.11245204801E+03  0.11245204801E+03  0.00000000000E+00 0. -1.
         23    2    1    2    0    0  0.11490514438E+02  0.18062352475E+02 -0.75103337085E+02  0.11770803320E+03  0.88070365836E+02 0.  0.
         13    1    3    3    0    0 -0.19502280532E+02 -0.39731553133E+01  0.11596631586E+02  0.23034903369E+02  0.00000000000E+00 0.  1.
        -13    1    3    3    0    0  0.30992794970E+02  0.22035507788E+02 -0.86699968671E+02  0.94673129826E+02  0.00000000000E+00 0. -1.
         22    1    1    2    0    0 -0.11490514438E+02 -0.18062352475E+02 -0.89064193381E+01  0.23186306398E+02  0.00000000000E+00 0.  1.
<mgrwt>
<rscale>  0 0.63184814E+02</rscale>
<asrwt>0</asrwt>
<pdfrwt beam="1">  1        2 0.17300315E-01 0.90634816E+02</pdfrwt>
<pdfrwt beam="2">  1       -2 0.43757371E-02 0.90634816E+02</pdfrwt>
<totfact> 0.67641543E+04</totfact>
</mgrwt>
</event>
<event>
 6    1  0.2866116E-002  0.9274780E+02  0.7546771E-02  0.1405484E+00
         -2   -1    0    0    0  501 -0.00000000000E+00  0.00000000000E+00  0.38072757829E+02  0.38072757829E+02  0.00000000000E+00 0.  1.
          2   -1    0    0  501    0  0.00000000000E+00 -0.00000000000E+00 -0.35921244191E+03  0.35921244191E+03  0.00000000000E+00 0. -1.
         23    2    1    2    0    0 -0.12469232673E+02  0.71913748842E+01 -0.35158281805E+03  0.36361054990E+03  0.91623994747E+02 0.  0.
         13    1    3    3    0    0  0.77408896781E+01  0.12776088334E+02 -0.40930947077E+01  0.15488809845E+02  0.00000000000E+00 0.  1.
        -13    1    3    3    0    0 -0.20210122351E+02 -0.55847134493E+01 -0.34748972334E+03  0.34812174005E+03  0.00000000000E+00 0. -1.
         22    1    1    2    0    0  0.12469232673E+02 -0.71913748842E+01  0.30443133968E+02  0.33674649842E+02  0.00000000000E+00 0.  1.
<mgrwt>
<rscale>  0 0.58213781E+02</rscale>
<asrwt>0</asrwt>
<pdfrwt beam="1">  1        2 0.55263453E-01 0.92747798E+02</pdfrwt>
<pdfrwt beam="2">  1       -2 0.58573473E-02 0.92747798E+02</pdfrwt>
<totfact> 0.12606690E+04</totfact>
</mgrwt>
</event>
<event>
 6    1  0.2866116E-002  0.9280273E+02  0.7546771E-02  0.1420647E+00
          2   -1    0    0  501    0  0.00000000000E+00  0.00000000000E+00  0.45375569226E+02  0.45375569226E+02  0.00000000000E+00 0. -1.
         -2   -1    0    0    0  501 -0.00000000000E+00 -0.00000000000E+00 -0.10382944382E+03  0.10382944382E+03  0.00000000000E+00 0.  1.
         23    2    1    2    0    0 -0.76431666485E+01  0.83947054583E+01 -0.32645967904E+01  0.92860133416E+02  0.92105687716E+02 0.  0.
         13    1    3    3    0    0  0.42281255020E+02  0.14300081203E+01  0.53996728075E+00  0.42308876302E+02  0.00000000000E+00 0.  1.
        -13    1    3    3    0    0 -0.49924421669E+02  0.69646973380E+01 -0.38045640712E+01  0.50551257113E+02  0.00000000000E+00 0. -1.
         22    1    1    2    0    0  0.76431666485E+01 -0.83947054583E+01 -0.55189277799E+02  0.56344879626E+02  0.00000000000E+00 0. -1.
<mgrwt>
<rscale>  0 0.54884231E+02</rscale>
<asrwt>0</asrwt>
<pdfrwt beam="1">  1        2 0.69808569E-02 0.92802730E+02</pdfrwt>
<pdfrwt beam="2">  1       -2 0.15973760E-01 0.92802730E+02</pdfrwt>
<totfact> 0.27411625E+04</totfact>
</mgrwt>
</event>
<event>
 6    1  0.2866116E-002  0.9269949E+02  0.7546771E-02  0.1379599E+00
         -2   -1    0    0    0  501 -0.00000000000E+00  0.00000000000E+00  0.23501787110E+02  0.23501787110E+02  0.00000000000E+00 0.  1.
          2   -1    0    0  501    0  0.00000000000E+00 -0.00000000000E+00 -0.20344295817E+03  0.20344295817E+03  0.00000000000E+00 0. -1.
         23    2    1    2    0    0  0.13497306650E+02  0.17145444659E+02 -0.18277698702E+03  0.20494053178E+03  0.90094678104E+02 0.  0.
         11    1    3    3    0    0  0.15625254550E+02  0.20879561746E+02 -0.43228756841E+01  0.26434672925E+02  0.00000000000E+00 0.  1.
        -11    1    3    3    0    0 -0.21279479008E+01 -0.37341170867E+01 -0.17845411134E+03  0.17850585886E+03  0.00000000000E+00 0. -1.
         22    1    1    2    0    0 -0.13497306650E+02 -0.17145444659E+02  0.28358159662E+01  0.22004213495E+02  0.00000000000E+00 0.  1.
<mgrwt>
<rscale>  0 0.64569174E+02</rscale>
<asrwt>0</asrwt>
<pdfrwt beam="1">  1        2 0.31298918E-01 0.92699485E+02</pdfrwt>
<pdfrwt beam="2">  1       -2 0.36156594E-02 0.92699485E+02</pdfrwt>
<totfact> 0.46818608E+04</totfact>
</mgrwt>
</event>
<event>
 6    1  0.2866116E-002  0.9060034E+02  0.7546771E-02  0.1410939E+00
          2   -1    0    0  501    0  0.00000000000E+00  0.00000000000E+00  0.12560356355E+03  0.12560356355E+03  0.00000000000E+00 0. -1.
         -2   -1    0    0    0  501 -0.00000000000E+00 -0.00000000000E+00 -0.23262807414E+02  0.23262807414E+02  0.00000000000E+00 0.  1.
         23    2    1    2    0    0  0.10449192737E+02 -0.95842575911E+01  0.99194073420E+02  0.13434241714E+03  0.89483949509E+02 0.  0.
         11    1    3    3    0    0  0.19034974304E+02  0.11392415301E+02  0.10782920008E+03  0.11008748232E+03  0.00000000000E+00 0. -1.
        -11    1    3    3    0    0 -0.85857815666E+01 -0.20976672892E+02 -0.86351266635E+01  0.24254934822E+02  0.00000000000E+00 0.  1.
         22    1    1    2    0    0 -0.10449192737E+02  0.95842575911E+01  0.31466827132E+01  0.14523953819E+02  0.00000000000E+00 0. -1.
<mgrwt>
<rscale>  0 0.56984749E+02</rscale>
<asrwt>0</asrwt>
<pdfrwt beam="1">  1        2 0.19323625E-01 0.90600336E+02</pdfrwt>
<pdfrwt beam="2">  1       -2 0.35788935E-02 0.90600336E+02</pdfrwt>
<totfact> 0.80213894E+04</totfact>
</mgrwt>
</event>
<event>
 6    1  0.2866116E-002  0.9039425E+02  0.7546771E-02  0.1433665E+00
          1   -1    0    0  501    0  0.00000000000E+00  0.00000000000E+00  0.12593251297E+04  0.12593251297E+04  0.00000000000E+00 0. -1.
         -1   -1    0    0    0  501 -0.00000000000E+00 -0.00000000000E+00 -0.42847709656E+01  0.42847709656E+01  0.00000000000E+00 0.  1.
         23    2    1    2    0    0  0.45226035826E+01  0.90043971307E+01  0.12481127623E+04  0.12513818713E+04  0.89830880992E+02 0.  0.
         13    1    3    3    0    0  0.61986548144E+01  0.39821318795E+02  0.29164482638E+03  0.29441614342E+03  0.00000000000E+00 0.  1.
        -13    1    3    3    0    0 -0.16760512318E+01 -0.30816921664E+02  0.95646793596E+03  0.95696572787E+03  0.00000000000E+00 0. -1.
         22    1    1    2    0    0 -0.45226035826E+01 -0.90043971307E+01  0.69275964298E+01  0.12228029406E+02  0.00000000000E+00 0.  1.
<mgrwt>
<rscale>  0 0.52231388E+02</rscale>
<asrwt>0</asrwt>
<pdfrwt beam="1">  1        1 0.19374203E+00 0.90394249E+02</pdfrwt>
<pdfrwt beam="2">  1       -1 0.65919654E-03 0.90394249E+02</pdfrwt>
<totfact> 0.32773946E+04</totfact>
</mgrwt>
</event>
<event>
 6    1  0.2866116E-002  0.9454815E+02  0.7546771E-02  0.1370336E+00
         -2   -1    0    0    0  501 -0.00000000000E+00  0.00000000000E+00  0.31946483232E+01  0.31946483232E+01  0.00000000000E+00 0.  1.
          2   -1    0    0  501    0  0.00000000000E+00 -0.00000000000E+00 -0.11870792492E+04  0.11870792492E+04  0.00000000000E+00 0. -1.
         23    2    1    2    0    0  0.16533014980E+02 -0.17324187045E+02 -0.10513834778E+04  0.10556261510E+04  0.91465212701E+02 0.  0.
         11    1    3    3    0    0 -0.73233154405E+01  0.34352209808E+02 -0.52521579372E+03  0.52638895813E+03  0.00000000000E+00 0. -1.
        -11    1    3    3    0    0  0.23856330420E+02 -0.51676396853E+02 -0.52616768409E+03  0.52923719283E+03  0.00000000000E+00 0.  1.
         22    1    1    2    0    0 -0.16533014980E+02  0.17324187045E+02 -0.13250112309E+03  0.13464774659E+03  0.00000000000E+00 0.  1.
<mgrwt>
<rscale>  0 0.67073881E+02</rscale>
<asrwt>0</asrwt>
<pdfrwt beam="1">  1        2 0.18262756E+00 0.94548153E+02</pdfrwt>
<pdfrwt beam="2">  1       -2 0.49148439E-03 0.94548153E+02</pdfrwt>
<totfact> 0.10802593E+05</totfact>
</mgrwt>
</event>
<event>
 6    1  0.2866116E-002  0.9626122E+02  0.7546771E-02  0.1341700E+00
          2   -1    0    0  501    0  0.00000000000E+00  0.00000000000E+00  0.24886370009E+03  0.24886370009E+03  0.00000000000E+00 0. -1.
         -2   -1    0    0    0  501 -0.00000000000E+00 -0.00000000000E+00 -0.18514844870E+02  0.18514844870E+02  0.00000000000E+00 0.  1.
         23    2    1    2    0    0  0.15932943079E+02  0.33201240826E+02  0.18833488072E+03  0.21150945583E+03  0.88938414311E+02 0.  0.
         13    1    3    3    0    0  0.49769606023E+01 -0.60394629146E+01 -0.78821630483E+01  0.11107373382E+02  0.00000000000E+00 0.  1.
        -13    1    3    3    0    0  0.10955982477E+02  0.39240703741E+02  0.19621704377E+03  0.20040208245E+03  0.00000000000E+00 0. -1.
         22    1    1    2    0    0 -0.15932943079E+02 -0.33201240826E+02  0.42013974497E+02  0.55869089133E+02  0.00000000000E+00 0.  1.
<mgrwt>
<rscale>  0 0.75705640E+02</rscale>
<asrwt>0</asrwt>
<pdfrwt beam="1">  1        2 0.38286721E-01 0.96261221E+02</pdfrwt>
<pdfrwt beam="2">  1       -2 0.28484378E-02 0.96261221E+02</pdfrwt>
<totfact> 0.53822457E+04</totfact>
</mgrwt>
</event>
<event>
 6    1  0.2866116E-002  0.9883768E+02  0.7546771E-02  0.1409638E+00
          2   -1    0    0  501    0  0.00000000000E+00  0.00000000000E+00  0.74017762181E+03  0.74017762181E+03  0.00000000000E+00 0. -1.
         -2   -1    0    0    0  501 -0.00000000000E+00 -0.00000000000E+00 -0.55758925622E+01  0.55758925622E+01  0.00000000000E+00 0.  1.
         23    2    1    2    0    0  0.64105834972E+01  0.91167782020E+01  0.72277990058E+03  0.72950645745E+03  0.98207309055E+02 0.  0.
         11    1    3    3    0    0  0.94306083037E+01 -0.39940623400E+02  0.48303725851E+03  0.48477745707E+03  0.00000000000E+00 0. -1.
        -11    1    3    3    0    0 -0.30200248065E+01  0.49057401602E+02  0.23974264207E+03  0.24472900038E+03  0.00000000000E+00 0.  1.
         22    1    1    2    0    0 -0.64105834972E+01 -0.91167782020E+01  0.11821828662E+02  0.16247056917E+02  0.00000000000E+00 0.  1.
<mgrwt>
<rscale>  0 0.57274593E+02</rscale>
<asrwt>0</asrwt>
<pdfrwt beam="1">  1        2 0.11387340E+00 0.98837679E+02</pdfrwt>
<pdfrwt beam="2">  1       -2 0.85783021E-03 0.98837679E+02</pdfrwt>
<totfact> 0.92551804E+04</totfact>
</mgrwt>
</event>
<event>
 6    1  0.2866116E-002  0.9642575E+02  0.7546771E-02  0.1349086E+00
          2   -1    0    0  501    0  0.00000000000E+00  0.00000000000E+00  0.11677297496E+04  0.11677297496E+04  0.00000000000E+00 0. -1.
         -2   -1    0    0    0  501 -0.00000000000E+00 -0.00000000000E+00 -0.38500263674E+01  0.38500263674E+01  0.00000000000E+00 0.  1.
         23    2    1    2    0    0  0.19928548826E+02 -0.25382694185E+02  0.99368534671E+03  0.99835289000E+03  0.90865265543E+02 0.  0.
         13    1    3    3    0    0 -0.40202335212E+01 -0.54086500534E+02  0.42609580379E+03  0.42953363759E+03  0.00000000000E+00 0.  1.
        -13    1    3    3    0    0  0.23948782347E+02  0.28703806349E+02  0.56758954292E+03  0.56881925240E+03  0.00000000000E+00 0. -1.
         22    1    1    2    0    0 -0.19928548826E+02  0.25382694185E+02  0.17019437657E+03  0.17322688601E+03  0.00000000000E+00 0.  1.
<mgrwt>
<rscale>  0 0.73341270E+02</rscale>
<asrwt>0</asrwt>
<pdfrwt beam="1">  1        2 0.17965045E+00 0.96425747E+02</pdfrwt>
<pdfrwt beam="2">  1       -2 0.59231268E-03 0.96425747E+02</pdfrwt>
<totfact> 0.85378172E+04</totfact>
</mgrwt>
</event>
<event>
 6    1  0.2866116E-002  0.9316693E+02  0.7546771E-02  0.1375250E+00
         -2   -1    0    0    0  501 -0.00000000000E+00  0.00000000000E+00  0.51427906159E+01  0.51427906159E+01  0.00000000000E+00 0.  1.
          2   -1    0    0  501    0  0.00000000000E+00 -0.00000000000E+00 -0.66113174765E+03  0.66113174765E+03  0.00000000000E+00 0. -1.
         23    2    1    2    0    0  0.14686518584E+02  0.17804843945E+02 -0.54575439137E+03  0.55364964864E+03  0.90262791026E+02 0.  0.
         13    1    3    3    0    0 -0.69337486893E+01  0.51743808357E+02 -0.27358323259E+03  0.27851980851E+03  0.00000000000E+00 0. -1.
        -13    1    3    3    0    0  0.21620267273E+02 -0.33938964412E+02 -0.27217115877E+03  0.27512984013E+03  0.00000000000E+00 0.  1.
         22    1    1    2    0    0 -0.14686518584E+02 -0.17804843945E+02 -0.11023456566E+03  0.11262488962E+03  0.00000000000E+00 0.  1.
<mgrwt>
<rscale>  0 0.65729047E+02</rscale>
<asrwt>0</asrwt>
<pdfrwt beam="1">  1        2 0.10171257E+00 0.93166935E+02</pdfrwt>
<pdfrwt beam="2">  1       -2 0.79119861E-03 0.93166935E+02</pdfrwt>
<totfact> 0.11745495E+05</totfact>
</mgrwt>
</event>
<event>
 6    1  0.2866116E-002  0.9344079E+02  0.7546771E-02  0.1380743E+00
         -2   -1    0    0    0  501 -0.00000000000E+00  0.00000000000E+00  0.43556712840E+02  0.43556712840E+02  0.00000000000E+00 0.  1.
          2   -1    0    0  501    0  0.00000000000E+00 -0.00000000000E+00 -0.77842854853E+02  0.77842854853E+02  0.00000000000E+00 0. -1.
         23    2    1    2    0    0  0.68854198011E+01 -0.19745919928E+02 -0.18638911830E+02  0.95281639520E+02  0.91070694714E+02 0.  0.
         13    1    3    3    0    0 -0.25774998574E+02 -0.29650399885E+02 -0.39149628673E+02  0.55463413076E+02  0.00000000000E+00 0. -1.
        -13    1    3    3    0    0  0.32660418375E+02  0.99044799566E+01  0.20510716843E+02  0.39818226443E+02  0.00000000000E+00 0.  1.
         22    1    1    2    0    0 -0.68854198011E+01  0.19745919928E+02 -0.15647230183E+02  0.26117928173E+02  0.00000000000E+00 0.  1.
<mgrwt>
<rscale>  0 0.64268936E+02</rscale>
<asrwt>0</asrwt>
<pdfrwt beam="1">  1        2 0.11975824E-01 0.93440793E+02</pdfrwt>
<pdfrwt beam="2">  1       -2 0.67010328E-02 0.93440793E+02</pdfrwt>
<totfact> 0.55145657E+04</totfact>
</mgrwt>
</event>
<event>
 6    1  0.2866116E-002  0.9268989E+02  0.7546771E-02  0.1419538E+00
         -1   -1    0    0    0  501 -0.00000000000E+00  0.00000000000E+00  0.45785562858E+01  0.45785562858E+01  0.00000000000E+00 0.  1.
          1   -1    0    0  501    0  0.00000000000E+00 -0.00000000000E+00 -0.66109289066E+03  0.66109289066E+03  0.00000000000E+00 0. -1.
         23    2    1    2    0    0 -0.10470698185E+02 -0.49702387771E+01 -0.62933174205E+03  0.63612094577E+03  0.91962368980E+02 0.  0.
         11    1    3    3    0    0 -0.31397542750E+02 -0.30867210063E+02 -0.17086233496E+03  0.17644412106E+03  0.00000000000E+00 0. -1.
        -11    1    3    3    0    0  0.20926844565E+02  0.25896971286E+02 -0.45846940709E+03  0.45967682472E+03  0.00000000000E+00 0.  1.
         22    1    1    2    0    0  0.10470698185E+02  0.49702387771E+01 -0.27182592329E+02  0.29550501175E+02  0.00000000000E+00 0.  1.
<mgrwt>
<rscale>  0 0.55118763E+02</rscale>
<asrwt>0</asrwt>
<pdfrwt beam="1">  1        1 0.10170658E+00 0.92689892E+02</pdfrwt>
<pdfrwt beam="2">  1       -1 0.70439338E-03 0.92689892E+02</pdfrwt>
<totfact> 0.84111412E+04</totfact>
</mgrwt>
</event>
<event>
 6    1  0.2866116E-002  0.1019229E+03  0.7546771E-02  0.1312083E+00
          2   -1    0    0  501    0  0.00000000000E+00  0.00000000000E+00  0.25299444285E+03  0.25299444285E+03  0.00000000000E+00 0. -1.
         -2   -1    0    0    0  501 -0.00000000000E+00 -0.00000000000E+00 -0.35956391196E+02  0.35956391196E+02  0.00000000000E+00 0.  1.
         23    2    1    2    0    0 -0.21743318386E+02  0.47645575611E+02  0.21335379489E+03  0.23644896248E+03  0.87437962549E+02 0.  0.
         11    1    3    3    0    0  0.13370107113E+02 -0.38765973696E+01  0.13775134597E+03  0.13845295623E+03  0.00000000000E+00 0. -1.
        -11    1    3    3    0    0 -0.35113425499E+02  0.51522172980E+02  0.75602448915E+02  0.97996006250E+02  0.00000000000E+00 0.  1.
         22    1    1    2    0    0  0.21743318386E+02 -0.47645575611E+02  0.36842567625E+01  0.52501871563E+02  0.00000000000E+00 0.  1.
<mgrwt>
<rscale>  0 0.86293765E+02</rscale>
<asrwt>0</asrwt>
<pdfrwt beam="1">  1        2 0.38922221E-01 0.10192286E+03</pdfrwt>
<pdfrwt beam="2">  1       -2 0.55317527E-02 0.10192286E+03</pdfrwt>
<totfact> 0.20016303E+04</totfact>
</mgrwt>
</event>
<event>
 6    1  0.2866116E-002  0.9272470E+02  0.7546771E-02  0.1391594E+00
         -2   -1    0    0    0  501 -0.00000000000E+00  0.00000000000E+00  0.27186159649E+02  0.27186159649E+02  0.00000000000E+00 0.  1.
          2   -1    0    0  501    0  0.00000000000E+00 -0.00000000000E+00 -0.23339730203E+03  0.23339730203E+03  0.00000000000E+00 0. -1.
         23    2    1    2    0    0  0.22201804525E+00 -0.17956526001E+02 -0.21947477431E+03  0.23825836257E+03  0.90969141259E+02 0.  0.
         13    1    3    3    0    0  0.28844290598E+00  0.31582205668E+02 -0.34538223622E+02  0.46801792756E+02  0.00000000000E+00 0.  1.
        -13    1    3    3    0    0 -0.66424860727E-01 -0.49538731668E+02 -0.18493655069E+03  0.19145656982E+03  0.00000000000E+00 0. -1.
         22    1    1    2    0    0 -0.22201804525E+00  0.17956526001E+02  0.13263631928E+02  0.22325099103E+02  0.00000000000E+00 0.  1.
<mgrwt>
<rscale>  0 0.61512088E+02</rscale>
<asrwt>0</asrwt>
<pdfrwt beam="1">  1        2 0.35907275E-01 0.92724704E+02</pdfrwt>
<pdfrwt beam="2">  1       -2 0.41824863E-02 0.92724704E+02</pdfrwt>
<totfact> 0.32674983E+04</totfact>
</mgrwt>
</event>
<event>
 6    1  0.2866116E-002  0.9100010E+02  0.7546771E-02  0.1428376E+00
         -2   -1    0    0    0  501 -0.00000000000E+00  0.00000000000E+00  0.32267384739E+01  0.32267384739E+01  0.00000000000E+00 0.  1.
          2   -1    0    0  501    0  0.00000000000E+00 -0.00000000000E+00 -0.82077720370E+03  0.82077720370E+03  0.00000000000E+00 0. -1.
         23    2    1    2    0    0  0.37205781762E+01  0.10032063452E+02 -0.76355465401E+03  0.76895821002E+03  0.90368877958E+02 0.  0.
         11    1    3    3    0    0 -0.49227490455E+01  0.23266508598E+02 -0.74119005411E+03  0.74157148016E+03  0.00000000000E+00 0. -1.
        -11    1    3    3    0    0  0.86433272216E+01 -0.13234445146E+02 -0.22364599904E+02  0.27386729864E+02  0.00000000000E+00 0.  1.
         22    1    1    2    0    0 -0.37205781762E+01 -0.10032063452E+02 -0.53995811216E+02  0.55045732150E+02  0.00000000000E+00 0.  1.
<mgrwt>
<rscale>  0 0.53287457E+02</rscale>
<asrwt>0</asrwt>
<pdfrwt beam="1">  1        2 0.12627352E+00 0.91000105E+02</pdfrwt>
<pdfrwt beam="2">  1       -2 0.49642088E-03 0.91000105E+02</pdfrwt>
<totfact> 0.17433712E+05</totfact>
</mgrwt>
</event>
<event>
 6    1  0.2866116E-002  0.9160301E+02  0.7546771E-02  0.1390486E+00
          2   -1    0    0  501    0  0.00000000000E+00  0.00000000000E+00  0.37548530035E+02  0.37548530035E+02  0.00000000000E+00 0. -1.
         -2   -1    0    0    0  501 -0.00000000000E+00 -0.00000000000E+00 -0.86581311647E+02  0.86581311647E+02  0.00000000000E+00 0.  1.
         23    2    1    2    0    0  0.67181235913E+01 -0.17729475534E+02 -0.27942008162E+02  0.95769866153E+02  0.89619439608E+02 0.  0.
         13    1    3    3    0    0 -0.49820292541E+01  0.15794299140E+02  0.26216645699E+02  0.31009563243E+02  0.00000000000E+00 0. -1.
        -13    1    3    3    0    0  0.11700152845E+02 -0.33523774674E+02 -0.54158653861E+02  0.64760302910E+02  0.00000000000E+00 0.  1.
         22    1    1    2    0    0 -0.67181235913E+01  0.17729475534E+02 -0.21090773449E+02  0.28359975529E+02  0.00000000000E+00 0. -1.
<mgrwt>
<rscale>  0 0.61785955E+02</rscale>
<asrwt>0</asrwt>
<pdfrwt beam="1">  1        2 0.57766970E-02 0.91603010E+02</pdfrwt>
<pdfrwt beam="2">  1       -2 0.13320202E-01 0.91603010E+02</pdfrwt>
<totfact> 0.46628363E+04</totfact>
</mgrwt>
</event>
<event>
 6    1  0.2866116E-002  0.1102725E+03  0.7546771E-02  0.1311708E+00
          2   -1    0    0  501    0  0.00000000000E+00  0.00000000000E+00  0.50686341627E+03  0.50686341627E+03  0.00000000000E+00 0. -1.
         -2   -1    0    0    0  501 -0.00000000000E+00 -0.00000000000E+00 -0.12568517581E+02  0.12568517581E+02  0.00000000000E+00 0.  1.
         23    2    1    2    0    0 -0.22584885679E+02 -0.34978356888E+02  0.42032173786E+03  0.43454618101E+03  0.10211002695E+03 0.  0.
         13    1    3    3    0    0 -0.15972295791E+02 -0.47048130686E+02  0.41756464079E+03  0.42051024967E+03  0.00000000000E+00 0. -1.
        -13    1    3    3    0    0 -0.66125898887E+01  0.12069773798E+02  0.27570970674E+01  0.14035931348E+02  0.00000000000E+00 0.  1.
         22    1    1    2    0    0  0.22584885679E+02  0.34978356888E+02  0.73973160824E+02  0.84885752834E+02  0.00000000000E+00 0. -1.
<mgrwt>
<rscale>  0 0.86440605E+02</rscale>
<asrwt>0</asrwt>
<pdfrwt beam="1">  1        2 0.77978971E-01 0.11027248E+03</pdfrwt>
<pdfrwt beam="2">  1       -2 0.19336185E-02 0.11027248E+03</pdfrwt>
<totfact> 0.45171117E+04</totfact>
</mgrwt>
</event>
<event>
 6    1  0.2866116E-002  0.1112181E+03  0.7546771E-02  0.1290547E+00
         -2   -1    0    0    0  501 -0.00000000000E+00  0.00000000000E+00  0.10158645318E+02  0.10158645318E+02  0.00000000000E+00 0.  1.
          2   -1    0    0  501    0  0.00000000000E+00 -0.00000000000E+00 -0.86830667100E+03  0.86830667100E+03  0.00000000000E+00 0. -1.
         23    2    1    2    0    0  0.53887980884E+02  0.26170830236E+02 -0.71008639820E+03  0.71874345692E+03  0.93705053802E+02 0.  0.
         11    1    3    3    0    0  0.83319109617E+01  0.31667485473E+02 -0.73013139118E+02  0.80019802926E+02  0.00000000000E+00 0.  1.
        -11    1    3    3    0    0  0.45556069922E+02 -0.54966552369E+01 -0.63707325908E+03  0.63872365399E+03  0.00000000000E+00 0. -1.
         22    1    1    2    0    0 -0.53887980884E+02 -0.26170830236E+02 -0.14806162748E+03  0.15972185940E+03  0.00000000000E+00 0. -1.
<mgrwt>
<rscale>  0 0.95279757E+02</rscale>
<asrwt>0</asrwt>
<pdfrwt beam="1">  1        2 0.13358567E+00 0.11121809E+03</pdfrwt>
<pdfrwt beam="2">  1       -2 0.15628682E-02 0.11121809E+03</pdfrwt>
<totfact> 0.32778280E+04</totfact>
</mgrwt>
</event>
<event>
 6    1  0.2866116E-002  0.1056999E+03  0.7546771E-02  0.1329671E+00
         -2   -1    0    0    0  501 -0.00000000000E+00  0.00000000000E+00  0.31427208268E+01  0.31427208268E+01  0.00000000000E+00 0. -1.
          2   -1    0    0  501    0  0.00000000000E+00 -0.00000000000E+00 -0.18716850754E+04  0.18716850754E+04  0.00000000000E+00 0.  1.
         23    2    1    2    0    0 -0.21812685076E+02  0.26481089581E+02 -0.16701052489E+04  0.16734467489E+04  0.99977184825E+02 0.  0.
         11    1    3    3    0    0 -0.12260864061E+02 -0.24222182674E+02 -0.12342121797E+04  0.12345107320E+04  0.00000000000E+00 0.  1.
        -11    1    3    3    0    0 -0.95518210144E+01  0.50703272255E+02 -0.43589306922E+03  0.43893601686E+03  0.00000000000E+00 0. -1.
         22    1    1    2    0    0  0.21812685076E+02 -0.26481089581E+02 -0.19843710559E+03  0.20138104730E+03  0.00000000000E+00 0. -1.
<mgrwt>
<rscale>  0 0.79782023E+02</rscale>
<asrwt>0</asrwt>
<pdfrwt beam="1">  1        2 0.28795152E+00 0.10569995E+03</pdfrwt>
<pdfrwt beam="2">  1       -2 0.48349556E-03 0.10569995E+03</pdfrwt>
<totfact> 0.49561503E+04</totfact>
</mgrwt>
</event>
<event>
 6    1  0.2866116E-002  0.9935368E+02  0.7546771E-02  0.1328923E+00
         -2   -1    0    0    0  501 -0.00000000000E+00  0.00000000000E+00  0.46215100985E+02  0.46215100985E+02  0.00000000000E+00 0.  1.
          2   -1    0    0  501    0  0.00000000000E+00 -0.00000000000E+00 -0.15787282959E+03  0.15787282959E+03  0.00000000000E+00 0. -1.
         23    2    1    2    0    0  0.21972017012E+02  0.35628924711E+02 -0.12543851414E+03  0.16001866852E+03  0.90105291945E+02 0.  0.
         13    1    3    3    0    0 -0.18255812356E+02 -0.17262412024E+02 -0.10453106186E+02  0.27212735669E+02  0.00000000000E+00 0.  1.
        -13    1    3    3    0    0  0.40227829368E+02  0.52891336734E+02 -0.11498540796E+03  0.13280593285E+03  0.00000000000E+00 0. -1.
         22    1    1    2    0    0 -0.21972017012E+02 -0.35628924711E+02  0.13780785543E+02  0.44069262052E+02  0.00000000000E+00 0.  1.
<mgrwt>
<rscale>  0 0.80045258E+02</rscale>
<asrwt>0</asrwt>
<pdfrwt beam="1">  1        2 0.24288128E-01 0.99353679E+02</pdfrwt>
<pdfrwt beam="2">  1       -2 0.71100154E-02 0.99353679E+02</pdfrwt>
<totfact> 0.22666593E+04</totfact>
</mgrwt>
</event>
<event>
 6    1  0.2866116E-002  0.9146441E+02  0.7546771E-02  0.1404808E+00
          2   -1    0    0  501    0  0.00000000000E+00  0.00000000000E+00  0.24655841213E+03  0.24655841213E+03  0.00000000000E+00 0. -1.
         -2   -1    0    0    0  501 -0.00000000000E+00 -0.00000000000E+00 -0.39250314578E+02  0.39250314578E+02  0.00000000000E+00 0.  1.
         23    2    1    2    0    0  0.14016588449E+02  0.57998051872E+01  0.23613732213E+03  0.25323225235E+03  0.90197761817E+02 0.  0.
         11    1    3    3    0    0  0.19419476395E+00 -0.39027497367E+02  0.15169266057E+03  0.15663283989E+03  0.00000000000E+00 0. -1.
        -11    1    3    3    0    0  0.13822393685E+02  0.44827302554E+02  0.84444661562E+02  0.96599412461E+02  0.00000000000E+00 0.  1.
         22    1    1    2    0    0 -0.14016588449E+02 -0.57998051872E+01 -0.28829224575E+02  0.32576474357E+02  0.00000000000E+00 0.  1.
<mgrwt>
<rscale>  0 0.58368600E+02</rscale>
<asrwt>0</asrwt>
<pdfrwt beam="1">  1        2 0.37932063E-01 0.91464412E+02</pdfrwt>
<pdfrwt beam="2">  1       -2 0.60385101E-02 0.91464412E+02</pdfrwt>
<totfact> 0.17835965E+04</totfact>
</mgrwt>
</event>
<event>
 6    1  0.2866116E-002  0.1095161E+03  0.7546771E-02  0.1289777E+00
         -2   -1    0    0    0  501 -0.00000000000E+00  0.00000000000E+00  0.22503790401E+02  0.22503790401E+02  0.00000000000E+00 0.  1.
          2   -1    0    0  501    0  0.00000000000E+00 -0.00000000000E+00 -0.18932784612E+04  0.18932784612E+04  0.00000000000E+00 0. -1.
         23    2    1    2    0    0  0.59274631463E+02 -0.23205939877E+02 -0.18431340784E+04  0.18463848458E+04  0.89116611550E+02 0.  0.
         11    1    3    3    0    0 -0.17701449375E+02  0.13424315927E+02 -0.54659450583E+03  0.54704580007E+03  0.00000000000E+00 0.  1.
        -11    1    3    3    0    0  0.76976080838E+02 -0.36630255804E+02 -0.12965395726E+04  0.12993390458E+04  0.00000000000E+00 0. -1.
         22    1    1    2    0    0 -0.59274631463E+02  0.23205939877E+02 -0.27640592451E+02  0.69397405800E+02  0.00000000000E+00 0.  1.
<mgrwt>
<rscale>  0 0.95624024E+02</rscale>
<asrwt>0</asrwt>
<pdfrwt beam="1">  1        2 0.29127362E+00 0.10951606E+03</pdfrwt>
<pdfrwt beam="2">  1       -2 0.34621215E-02 0.10951606E+03</pdfrwt>
<totfact> 0.28899929E+03</totfact>
</mgrwt>
</event>
<event>
 6    1  0.2866116E-002  0.8580636E+02  0.7546771E-02  0.1418150E+00
          2   -1    0    0  501    0  0.00000000000E+00  0.00000000000E+00  0.68360968352E+02  0.68360968352E+02  0.00000000000E+00 0. -1.
         -2   -1    0    0    0  501 -0.00000000000E+00 -0.00000000000E+00 -0.97556715666E+02  0.97556715666E+02  0.00000000000E+00 0.  1.
         23    2    1    2    0    0  0.12361336676E+02  0.83644535509E+01  0.40327385293E+02  0.94810492434E+02  0.84498312074E+02 0.  0.
         11    1    3    3    0    0 -0.27539605616E+02  0.15143621998E+00 -0.10674356306E+02  0.29536328360E+02  0.00000000000E+00 0.  1.
        -11    1    3    3    0    0  0.39900942292E+02  0.82130173309E+01  0.51001741599E+02  0.65274164074E+02  0.00000000000E+00 0. -1.
         22    1    1    2    0    0 -0.12361336676E+02 -0.83644535509E+01 -0.69523132607E+02  0.71107191585E+02  0.00000000000E+00 0.  1.
<mgrwt>
<rscale>  0 0.55414179E+02</rscale>
<asrwt>0</asrwt>
<pdfrwt beam="1">  1        2 0.10517072E-01 0.85806360E+02</pdfrwt>
<pdfrwt beam="2">  1       -2 0.15008726E-01 0.85806360E+02</pdfrwt>
<totfact> 0.18143673E+04</totfact>
</mgrwt>
</event>
<event>
 6    1  0.2866116E-002  0.9288933E+02  0.7546771E-02  0.1423117E+00
         -2   -1    0    0    0  501 -0.00000000000E+00  0.00000000000E+00  0.94432539035E+01  0.94432539035E+01  0.00000000000E+00 0.  1.
          2   -1    0    0  501    0  0.00000000000E+00 -0.00000000000E+00 -0.28572755127E+03  0.28572755127E+03  0.00000000000E+00 0. -1.
         23    2    1    2    0    0 -0.10316305712E+02 -0.35202306676E+01 -0.25100972780E+03  0.26764587004E+03  0.92247547990E+02 0.  0.
         13    1    3    3    0    0 -0.49978249324E+01 -0.36245386210E+02 -0.21731935406E+03  0.22037787531E+03  0.00000000000E+00 0. -1.
        -13    1    3    3    0    0 -0.53184807798E+01  0.32725155542E+02 -0.33690373738E+02  0.47267994729E+02  0.00000000000E+00 0.  1.
         22    1    1    2    0    0  0.10316305712E+02  0.35202306676E+01 -0.25274569571E+02  0.27524935141E+02  0.00000000000E+00 0. -1.
<mgrwt>
<rscale>  0 0.54366923E+02</rscale>
<asrwt>0</asrwt>
<pdfrwt beam="1">  1        2 0.43958084E-01 0.92889334E+02</pdfrwt>
<pdfrwt beam="2">  1       -2 0.14528083E-02 0.92889334E+02</pdfrwt>
<totfact> 0.12206977E+05</totfact>
</mgrwt>
</event>
<event>
 6    1  0.2866116E-002  0.9181477E+02  0.7546771E-02  0.1405493E+00
         -2   -1    0    0    0  501 -0.00000000000E+00  0.00000000000E+00  0.14689479296E+02  0.14689479296E+02  0.00000000000E+00 0.  1.
          2   -1    0    0  501    0  0.00000000000E+00 -0.00000000000E+00 -0.21248767890E+03  0.21248767890E+03  0.00000000000E+00 0. -1.
         23    2    1    2    0    0  0.11258958684E+02  0.96610029566E+01 -0.18849123043E+03  0.20966376892E+03  0.90608238688E+02 0.  0.
         13    1    3    3    0    0  0.48602505971E+02  0.14909391346E+02 -0.13466939175E+03  0.14394560991E+03  0.00000000000E+00 0. -1.
        -13    1    3    3    0    0 -0.37343547287E+02 -0.52483883892E+01 -0.53821838680E+02  0.65718159010E+02  0.00000000000E+00 0.  1.
         22    1    1    2    0    0 -0.11258958684E+02 -0.96610029566E+01 -0.93069691675E+01  0.17513389274E+02  0.00000000000E+00 0.  1.
<mgrwt>
<rscale>  0 0.58211891E+02</rscale>
<asrwt>0</asrwt>
<pdfrwt beam="1">  1        2 0.32690411E-01 0.91814770E+02</pdfrwt>
<pdfrwt beam="2">  1       -2 0.22599200E-02 0.91814770E+02</pdfrwt>
<totfact> 0.88349174E+04</totfact>
</mgrwt>
</event>
<event>
 6    1  0.2866116E-002  0.8857808E+02  0.7546771E-02  0.1435335E+00
         -2   -1    0    0    0  501 -0.00000000000E+00  0.00000000000E+00  0.46686765700E+01  0.46686765700E+01  0.00000000000E+00 0.  1.
          2   -1    0    0  501    0  0.00000000000E+00 -0.00000000000E+00 -0.53728358720E+03  0.53728358720E+03  0.00000000000E+00 0. -1.
         23    2    1    2    0    0 -0.10011138404E+02 -0.29715960591E+01 -0.49724566681E+03  0.50507358858E+03  0.87960351556E+02 0.  0.
         13    1    3    3    0    0 -0.10658572522E+02 -0.86231263937E+01 -0.49894762051E+03  0.49913594490E+03  0.00000000000E+00 0. -1.
        -13    1    3    3    0    0  0.64743411820E+00  0.56515303346E+01  0.17019537032E+01  0.59376436798E+01  0.00000000000E+00 0.  1.
         22    1    1    2    0    0  0.10011138404E+02  0.29715960591E+01 -0.35369243822E+02  0.36878675191E+02  0.00000000000E+00 0. -1.
<mgrwt>
<rscale>  0 0.51903847E+02</rscale>
<asrwt>0</asrwt>
<pdfrwt beam="1">  1        2 0.82658946E-01 0.88578083E+02</pdfrwt>
<pdfrwt beam="2">  1       -2 0.71825852E-03 0.88578083E+02</pdfrwt>
<totfact> 0.16845508E+05</totfact>
</mgrwt>
</event>
<event>
 6    1  0.2866116E-002  0.9183933E+02  0.7546771E-02  0.1426582E+00
         -2   -1    0    0    0  501 -0.00000000000E+00  0.00000000000E+00  0.30137334774E+01  0.30137334774E+01  0.00000000000E+00 0.  1.
          2   -1    0    0  501    0  0.00000000000E+00 -0.00000000000E+00 -0.94422188917E+03  0.94422188917E+03  0.00000000000E+00 0. -1.
         23    2    1    2    0    0 -0.16894346289E+01 -0.10562807830E+02 -0.89954924783E+03  0.90422525526E+03  0.91214230673E+02 0.  0.
         13    1    3    3    0    0  0.22438315263E+02 -0.36565348008E+02 -0.24590873218E+03  0.24962293010E+03  0.00000000000E+00 0.  1.
        -13    1    3    3    0    0 -0.24127749892E+02  0.26002540178E+02 -0.65364051565E+03  0.65460232516E+03  0.00000000000E+00 0. -1.
         22    1    1    2    0    0  0.16894346289E+01  0.10562807830E+02 -0.41658907866E+02  0.43010367392E+02  0.00000000000E+00 0. -1.
<mgrwt>
<rscale>  0 0.53652214E+02</rscale>
<asrwt>0</asrwt>
<pdfrwt beam="1">  1        2 0.14526494E+00 0.91839332E+02</pdfrwt>
<pdfrwt beam="2">  1       -2 0.46365121E-03 0.91839332E+02</pdfrwt>
<totfact> 0.16074875E+05</totfact>
</mgrwt>
</event>
<event>
 6    1  0.2866116E-002  0.8505528E+02  0.7546771E-02  0.1397680E+00
         -1   -1    0    0    0  501 -0.00000000000E+00  0.00000000000E+00  0.33532776141E+03  0.33532776141E+03  0.00000000000E+00 0.  1.
          1   -1    0    0  501    0  0.00000000000E+00 -0.00000000000E+00 -0.84088276384E+01  0.84088276384E+01  0.00000000000E+00 0. -1.
         23    2    1    2    0    0  0.96712165451E+01 -0.18767554260E+02  0.25838314919E+03  0.27202252285E+03  0.82393249910E+02 0.  0.
         11    1    3    3    0    0 -0.17588807554E+02 -0.16942902240E+02  0.18626931900E+02  0.30714665545E+02  0.00000000000E+00 0. -1.
        -11    1    3    3    0    0  0.27260024099E+02 -0.18246520199E+01  0.23975621729E+03  0.24130785731E+03  0.00000000000E+00 0.  1.
         22    1    1    2    0    0 -0.96712165451E+01  0.18767554260E+02  0.68535784587E+02  0.71714066202E+02  0.00000000000E+00 0.  1.
<mgrwt>
<rscale>  0 0.60036148E+02</rscale>
<asrwt>0</asrwt>
<pdfrwt beam="1">  1        1 0.12936661E-02 0.85055283E+02</pdfrwt>
<pdfrwt beam="2">  1       -1 0.51588876E-01 0.85055283E+02</pdfrwt>
<totfact> 0.37546553E+04</totfact>
</mgrwt>
</event>
<event>
 6    1  0.2866116E-002  0.9360538E+02  0.7546771E-02  0.1382675E+00
         -1   -1    0    0    0  501 -0.00000000000E+00  0.00000000000E+00  0.39396031467E+02  0.39396031467E+02  0.00000000000E+00 0.  1.
          1   -1    0    0  501    0  0.00000000000E+00 -0.00000000000E+00 -0.89414352441E+02  0.89414352441E+02  0.00000000000E+00 0. -1.
         23    2    1    2    0    0 -0.11505861832E+02  0.16551978046E+02 -0.54282538641E+02  0.10820610314E+03  0.91409047263E+02 0.  0.
         11    1    3    3    0    0 -0.30286604608E+02 -0.29917518155E+02 -0.32485762416E+02  0.53550546878E+02  0.00000000000E+00 0. -1.
        -11    1    3    3    0    0  0.18780742776E+02  0.46469496201E+02 -0.21796776225E+02  0.54655556261E+02  0.00000000000E+00 0.  1.
         22    1    1    2    0    0  0.11505861832E+02 -0.16551978046E+02  0.42642176670E+01  0.20604280769E+02  0.00000000000E+00 0.  1.
<mgrwt>
<rscale>  0 0.63765903E+02</rscale>
<asrwt>0</asrwt>
<pdfrwt beam="1">  1        1 0.13756054E-01 0.93605378E+02</pdfrwt>
<pdfrwt beam="2">  1       -1 0.60609280E-02 0.93605378E+02</pdfrwt>
<totfact> 0.47632574E+04</totfact>
</mgrwt>
</event>
<event>
 6    1  0.2866116E-002  0.9158069E+02  0.7546771E-02  0.1426418E+00
          2   -1    0    0  501    0  0.00000000000E+00  0.00000000000E+00  0.90240902037E+03  0.90240902037E+03  0.00000000000E+00 0.  1.
         -2   -1    0    0    0  501 -0.00000000000E+00 -0.00000000000E+00 -0.31781927132E+01  0.31781927132E+01  0.00000000000E+00 0. -1.
         23    2    1    2    0    0  0.13105587646E+01 -0.10735284070E+02  0.86097827133E+03  0.86583520743E+03  0.90939863782E+02 0.  0.
         11    1    3    3    0    0  0.11893234439E+02  0.62350955165E+01  0.82122271877E+03  0.82133250226E+03  0.00000000000E+00 0.  1.
        -11    1    3    3    0    0 -0.10582675674E+02 -0.16970379587E+02  0.39755552559E+02  0.44502705165E+02  0.00000000000E+00 0. -1.
         22    1    1    2    0    0 -0.13105587646E+01  0.10735284070E+02  0.38252556322E+02  0.39752005654E+02  0.00000000000E+00 0. -1.
<mgrwt>
<rscale>  0 0.53685797E+02</rscale>
<asrwt>0</asrwt>
<pdfrwt beam="1">  1        2 0.13883195E+00 0.91580690E+02</pdfrwt>
<pdfrwt beam="2">  1       -2 0.48895344E-03 0.91580690E+02</pdfrwt>
<totfact> 0.15819445E+05</totfact>
</mgrwt>
</event>
<event>
 6    1  0.2866116E-002  0.1327398E+03  0.7546771E-02  0.1238552E+00
          2   -1    0    0  501    0  0.00000000000E+00  0.00000000000E+00  0.12725878918E+04  0.12725878918E+04  0.00000000000E+00 0.  1.
         -2   -1    0    0    0  501 -0.00000000000E+00 -0.00000000000E+00 -0.54563530005E+02  0.54563530005E+02  0.00000000000E+00 0. -1.
         23    2    1    2    0    0  0.51116900882E+02  0.82696743508E+02  0.12226376621E+04  0.12298222305E+04  0.90377966246E+02 0.  0.
         13    1    3    3    0    0 -0.19786180893E+02  0.50902577971E+02  0.45708008772E+03  0.46033115470E+03  0.00000000000E+00 0. -1.
        -13    1    3    3    0    0  0.70903081776E+02  0.31794165537E+02  0.76555757442E+03  0.76949107579E+03  0.00000000000E+00 0.  1.
         22    1    1    2    0    0 -0.51116900882E+02 -0.82696743508E+02 -0.46133003416E+01  0.97329191319E+02  0.00000000000E+00 0. -1.
<mgrwt>
<rscale>  0 0.12279754E+03</rscale>
<asrwt>0</asrwt>
<pdfrwt beam="1">  1        2 0.19578273E+00 0.13273984E+03</pdfrwt>
<pdfrwt beam="2">  1       -2 0.83943901E-02 0.13273984E+03</pdfrwt>
<totfact> 0.15965982E+03</totfact>
</mgrwt>
</event>
<event>
 6    1  0.2866116E-002  0.9510542E+02  0.7546771E-02  0.1357928E+00
         -3   -1    0    0    0  501 -0.00000000000E+00  0.00000000000E+00  0.23263340444E+03  0.23263340444E+03  0.00000000000E+00 0.  1.
          3   -1    0    0  501    0  0.00000000000E+00 -0.00000000000E+00 -0.20607274851E+02  0.20607274851E+02  0.00000000000E+00 0. -1.
         23    2    1    2    0    0  0.63028554513E+01  0.28252329935E+02  0.10195498322E+03  0.13942689543E+03  0.90593158862E+02 0.  0.
         11    1    3    3    0    0  0.11046194931E+02  0.49255882232E+02  0.10610257359E+03  0.11749858076E+03  0.00000000000E+00 0.  1.
        -11    1    3    3    0    0 -0.47433394795E+01 -0.21003552297E+02 -0.41475903735E+01  0.21928314674E+02  0.00000000000E+00 0. -1.
         22    1    1    2    0    0 -0.63028554513E+01 -0.28252329935E+02  0.11007114637E+03  0.11381378386E+03  0.00000000000E+00 0. -1.
<mgrwt>
<rscale>  0 0.70640583E+02</rscale>
<asrwt>0</asrwt>
<pdfrwt beam="1">  1        3 0.31703501E-02 0.95105418E+02</pdfrwt>
<pdfrwt beam="2">  1       -3 0.35789753E-01 0.95105418E+02</pdfrwt>
<totfact> 0.75530760E+03</totfact>
</mgrwt>
</event>
<event>
 6    1  0.2866116E-002  0.9207284E+02  0.7546771E-02  0.1423858E+00
          2   -1    0    0  501    0  0.00000000000E+00  0.00000000000E+00  0.18840565664E+04  0.18840565664E+04  0.00000000000E+00 0. -1.
         -2   -1    0    0    0  501 -0.00000000000E+00 -0.00000000000E+00 -0.22692758033E+01  0.22692758033E+01  0.00000000000E+00 0.  1.
         23    2    1    2    0    0  0.11061250239E+02 -0.34715498414E+00  0.18557703259E+04  0.18580529890E+04  0.91405338298E+02 0.  0.
         11    1    3    3    0    0 -0.31330368661E+02 -0.26172791696E+02  0.66842995442E+03  0.66967545198E+03  0.00000000000E+00 0.  1.
        -11    1    3    3    0    0  0.42391618899E+02  0.25825636712E+02  0.11873403714E+04  0.11883775370E+04  0.00000000000E+00 0. -1.
         22    1    1    2    0    0 -0.11061250239E+02  0.34715498414E+00  0.26016964758E+02  0.28272853210E+02  0.00000000000E+00 0.  1.
<mgrwt>
<rscale>  0 0.54212964E+02</rscale>
<asrwt>0</asrwt>
<pdfrwt beam="1">  1        2 0.28985361E+00 0.92072839E+02</pdfrwt>
<pdfrwt beam="2">  1       -2 0.34912086E-03 0.92072839E+02</pdfrwt>
<totfact> 0.76139439E+04</totfact>
</mgrwt>
</event>
<event>
 6    1  0.2866116E-002  0.9347123E+02  0.7546771E-02  0.1411918E+00
          2   -1    0    0  501    0  0.00000000000E+00  0.00000000000E+00  0.16735050144E+04  0.16735050144E+04  0.00000000000E+00 0. -1.
         -2   -1    0    0    0  501 -0.00000000000E+00 -0.00000000000E+00 -0.20357524323E+01  0.20357524323E+01  0.00000000000E+00 0.  1.
         23    2    1    2    0    0 -0.97589827390E+01  0.81536951883E+01  0.16129306406E+04  0.16156367546E+04  0.92602110966E+02 0.  0.
         13    1    3    3    0    0  0.10961180887E+02  0.12227656813E+02  0.15290728950E+04  0.15291610711E+04  0.00000000000E+00 0. -1.
        -13    1    3    3    0    0 -0.20720163626E+02 -0.40739616245E+01  0.83857745538E+02  0.86475683465E+02  0.00000000000E+00 0.  1.
         22    1    1    2    0    0  0.97589827390E+01 -0.81536951883E+01  0.58538621387E+02  0.59904012246E+02  0.00000000000E+00 0. -1.
<mgrwt>
<rscale>  0 0.56768068E+02</rscale>
<asrwt>0</asrwt>
<pdfrwt beam="1">  1        2 0.25746121E+00 0.93471233E+02</pdfrwt>
<pdfrwt beam="2">  1       -2 0.31319402E-03 0.93471233E+02</pdfrwt>
<totfact> 0.11320249E+05</totfact>
</mgrwt>
</event>
<event>
 6    1  0.2866116E-002  0.9534916E+02  0.7546771E-02  0.1415533E+00
          2   -1    0    0  501    0  0.00000000000E+00  0.00000000000E+00  0.16750148948E+03  0.16750148948E+03  0.00000000000E+00 0. -1.
         -2   -1    0    0    0  501 -0.00000000000E+00 -0.00000000000E+00 -0.21510103839E+02  0.21510103839E+02  0.00000000000E+00 0.  1.
         23    2    1    2    0    0  0.82788407770E+01 -0.77297723341E+01  0.14935532761E+03  0.17719615044E+03  0.94674036887E+02 0.  0.
         13    1    3    3    0    0  0.35685845315E+02 -0.34204284580E+02  0.11769541505E+03  0.12765431196E+03  0.00000000000E+00 0. -1.
        -13    1    3    3    0    0 -0.27407004538E+02  0.26474512246E+02  0.31659912566E+02  0.49541838481E+02  0.00000000000E+00 0.  1.
         22    1    1    2    0    0 -0.82788407770E+01  0.77297723341E+01 -0.33639419655E+01  0.11815442882E+02  0.00000000000E+00 0.  1.
<mgrwt>
<rscale>  0 0.55977197E+02</rscale>
<asrwt>0</asrwt>
<pdfrwt beam="1">  1        2 0.25769459E-01 0.95349158E+02</pdfrwt>
<pdfrwt beam="2">  1       -2 0.33092469E-02 0.95349158E+02</pdfrwt>
<totfact> 0.65944661E+04</totfact>
</mgrwt>
</event>
<event>
 6    1  0.2866116E-002  0.9157255E+02  0.7546771E-02  0.1413324E+00
         -4   -1    0    0    0  501 -0.00000000000E+00  0.00000000000E+00  0.13781431357E+03  0.13781431357E+03  0.00000000000E+00 0.  1.
          4   -1    0    0  501    0  0.00000000000E+00 -0.00000000000E+00 -0.21518597491E+02  0.21518597491E+02  0.00000000000E+00 0. -1.
         23    2    1    2    0    0 -0.74927389989E+01  0.10906131924E+02  0.83335013438E+02  0.12381541157E+03  0.90611515973E+02 0.  0.
         11    1    3    3    0    0 -0.10110643732E+02  0.34498815083E+02 -0.12411151047E+01  0.35971290295E+02  0.00000000000E+00 0. -1.
        -11    1    3    3    0    0  0.26179047332E+01 -0.23592683159E+02  0.84576128542E+02  0.87844121278E+02  0.00000000000E+00 0.  1.
         22    1    1    2    0    0  0.74927389989E+01 -0.10906131924E+02  0.32960702638E+02  0.35517499484E+02  0.00000000000E+00 0.  1.
<mgrwt>
<rscale>  0 0.56458593E+02</rscale>
<asrwt>0</asrwt>
<pdfrwt beam="1">  1        4 0.33105535E-02 0.91572549E+02</pdfrwt>
<pdfrwt beam="2">  1       -4 0.21202202E-01 0.91572549E+02</pdfrwt>
<totfact> 0.13589322E+04</totfact>
</mgrwt>
</event>
<event>
 6    1  0.2866116E-002  0.9101567E+02  0.7546771E-02  0.1405525E+00
         -2   -1    0    0    0  501 -0.00000000000E+00  0.00000000000E+00  0.75783973035E+02  0.75783973035E+02  0.00000000000E+00 0.  1.
          2   -1    0    0  501    0  0.00000000000E+00 -0.00000000000E+00 -0.37418274091E+02  0.37418274091E+02  0.00000000000E+00 0. -1.
         23    2    1    2    0    0  0.11536453537E+02 -0.99310400437E+01  0.35602882972E+02  0.97731356115E+02  0.89733702563E+02 0.  0.
         11    1    3    3    0    0  0.24570994941E+02  0.34806962026E+02  0.26728065469E+02  0.50295604993E+02  0.00000000000E+00 0.  1.
        -11    1    3    3    0    0 -0.13034541403E+02 -0.44738002070E+02  0.88748175031E+01  0.47435751122E+02  0.00000000000E+00 0. -1.
         22    1    1    2    0    0 -0.11536453537E+02  0.99310400437E+01  0.27628159729E+01  0.15470891011E+02  0.00000000000E+00 0.  1.
<mgrwt>
<rscale>  0 0.58204489E+02</rscale>
<asrwt>0</asrwt>
<pdfrwt beam="1">  1        2 0.57566576E-02 0.91015673E+02</pdfrwt>
<pdfrwt beam="2">  1       -2 0.11659073E-01 0.91015673E+02</pdfrwt>
<totfact> 0.57805402E+04</totfact>
</mgrwt>
</event>
<event>
 6    1  0.2866116E-002  0.9584573E+02  0.7546771E-02  0.1370517E+00
         -2   -1    0    0    0  501 -0.00000000000E+00  0.00000000000E+00  0.21085790521E+01  0.21085790521E+01  0.00000000000E+00 0. -1.
          2   -1    0    0  501    0  0.00000000000E+00 -0.00000000000E+00 -0.24859538053E+04  0.24859538053E+04  0.00000000000E+00 0.  1.
         23    2    1    2    0    0  0.60509376756E+01 -0.22105858174E+02 -0.23697767027E+04  0.23717141533E+04  0.93065145653E+02 0.  0.
         11    1    3    3    0    0 -0.26570863908E+01 -0.25797649992E+02 -0.17445937939E+03  0.17637645509E+03  0.00000000000E+00 0. -1.
        -11    1    3    3    0    0  0.87080240664E+01  0.36917918176E+01 -0.21953173233E+04  0.21953376982E+04  0.00000000000E+00 0.  1.
         22    1    1    2    0    0 -0.60509376756E+01  0.22105858174E+02 -0.11406852359E+03  0.11634823112E+03  0.00000000000E+00 0. -1.
<mgrwt>
<rscale>  0 0.67023751E+02</rscale>
<asrwt>0</asrwt>
<pdfrwt beam="1">  1        2 0.38245578E+00 0.95845731E+02</pdfrwt>
<pdfrwt beam="2">  1       -2 0.32439563E-03 0.95845731E+02</pdfrwt>
<totfact> 0.41724889E+04</totfact>
</mgrwt>
</event>
<event>
 6    1  0.2866116E-002  0.9507347E+02  0.7546771E-02  0.1367239E+00
         -1   -1    0    0    0  501 -0.00000000000E+00  0.00000000000E+00  0.17482850441E+02  0.17482850441E+02  0.00000000000E+00 0.  1.
          1   -1    0    0  501    0  0.00000000000E+00 -0.00000000000E+00 -0.20593053025E+03  0.20593053025E+03  0.00000000000E+00 0. -1.
         23    2    1    2    0    0 -0.21887052207E+02 -0.11648625044E+02 -0.15366651279E+03  0.18069964638E+03  0.91783612527E+02 0.  0.
         13    1    3    3    0    0 -0.36767367132E+02 -0.44529139707E+02 -0.10824566299E+03  0.12268580654E+03  0.00000000000E+00 0. -1.
        -13    1    3    3    0    0  0.14880314926E+02  0.32880514664E+02 -0.45420849794E+02  0.58013839838E+02  0.00000000000E+00 0.  1.
         22    1    1    2    0    0  0.21887052207E+02  0.11648625044E+02 -0.34781167023E+02  0.42713734316E+02  0.00000000000E+00 0.  1.
<mgrwt>
<rscale>  0 0.67940756E+02</rscale>
<asrwt>0</asrwt>
<pdfrwt beam="1">  1        1 0.31681619E-01 0.95073472E+02</pdfrwt>
<pdfrwt beam="2">  1       -1 0.26896694E-02 0.95073472E+02</pdfrwt>
<totfact> 0.54648721E+04</totfact>
</mgrwt>
</event>
<event>
 6    1  0.2866116E-002  0.8903083E+02  0.7546771E-02  0.1425073E+00
          2   -1    0    0  501    0  0.00000000000E+00  0.00000000000E+00  0.15474887547E+04  0.15474887547E+04  0.00000000000E+00 0. -1.
         -2   -1    0    0    0  501 -0.00000000000E+00 -0.00000000000E+00 -0.29167879819E+01  0.29167879819E+01  0.00000000000E+00 0.  1.
         23    2    1    2    0    0  0.11256746727E+01 -0.11962216234E+02  0.15238771924E+04  0.15264757402E+04  0.88216360699E+02 0.  0.
         13    1    3    3    0    0 -0.11974818619E+02  0.25174534450E+02  0.11834737329E+04  0.11838020231E+04  0.00000000000E+00 0. -1.
        -13    1    3    3    0    0  0.13100493291E+02 -0.37136750684E+02  0.34040345944E+03  0.34267371708E+03  0.00000000000E+00 0.  1.
         22    1    1    2    0    0 -0.11256746727E+01  0.11962216234E+02  0.20694774374E+02  0.23929802487E+02  0.00000000000E+00 0.  1.
<mgrwt>
<rscale>  0 0.53961849E+02</rscale>
<asrwt>0</asrwt>
<pdfrwt beam="1">  1        2 0.23807454E+00 0.89030826E+02</pdfrwt>
<pdfrwt beam="2">  1       -2 0.44873785E-03 0.89030826E+02</pdfrwt>
<totfact> 0.78911447E+04</totfact>
</mgrwt>
</event>
<event>
 6    1  0.2866116E-002  0.9049791E+02  0.7546771E-02  0.1375873E+00
          2   -1    0    0  501    0  0.00000000000E+00  0.00000000000E+00  0.66976815977E+02  0.66976815977E+02  0.00000000000E+00 0.  1.
         -2   -1    0    0    0  501 -0.00000000000E+00 -0.00000000000E+00 -0.49986699655E+02  0.49986699655E+02  0.00000000000E+00 0. -1.
         23    2    1    2    0    0 -0.22851014342E+02  0.99594563280E+01  0.16751828110E+02  0.92035290503E+02  0.86997191484E+02 0.  0.
         11    1    3    3    0    0 -0.17043678736E+02  0.39330345536E+02 -0.17714907437E+02  0.46380825891E+02  0.00000000000E+00 0. -1.
        -11    1    3    3    0    0 -0.58073356060E+01 -0.29370889208E+02  0.34466735547E+02  0.45654464612E+02  0.00000000000E+00 0.  1.
         22    1    1    2    0    0  0.22851014342E+02 -0.99594563280E+01  0.23828821149E+00  0.24928225129E+02  0.00000000000E+00 0. -1.
<mgrwt>
<rscale>  0 0.65561182E+02</rscale>
<asrwt>0</asrwt>
<pdfrwt beam="1">  1        2 0.10304126E-01 0.90497906E+02</pdfrwt>
<pdfrwt beam="2">  1       -2 0.76902615E-02 0.90497906E+02</pdfrwt>
<totfact> 0.53342219E+04</totfact>
</mgrwt>
</event>
<event>
 6    1  0.2866116E-002  0.9633459E+02  0.7546771E-02  0.1346829E+00
          2   -1    0    0  501    0  0.00000000000E+00  0.00000000000E+00  0.13750209684E+04  0.13750209684E+04  0.00000000000E+00 0.  1.
         -2   -1    0    0    0  501 -0.00000000000E+00 -0.00000000000E+00 -0.15746047630E+02  0.15746047630E+02  0.00000000000E+00 0. -1.
         23    2    1    2    0    0  0.23250207992E+02 -0.24308792121E+02  0.13531518089E+04  0.13565766366E+04  0.90271055804E+02 0.  0.
         11    1    3    3    0    0 -0.24434828759E+02 -0.32054986796E+02  0.35976074574E+03  0.36201157055E+03  0.00000000000E+00 0. -1.
        -11    1    3    3    0    0  0.47685036751E+02  0.77461946753E+01  0.99339106316E+03  0.99456506606E+03  0.00000000000E+00 0.  1.
         22    1    1    2    0    0 -0.23250207992E+02  0.24308792121E+02  0.61231118704E+01  0.34190379422E+02  0.00000000000E+00 0. -1.
<mgrwt>
<rscale>  0 0.74053059E+02</rscale>
<asrwt>0</asrwt>
<pdfrwt beam="1">  1        2 0.21154159E+00 0.96334589E+02</pdfrwt>
<pdfrwt beam="2">  1       -2 0.24224700E-02 0.96334589E+02</pdfrwt>
<totfact> 0.89033062E+03</totfact>
</mgrwt>
</event>
<event>
 6    1  0.2866116E-002  0.1025564E+03  0.7546771E-02  0.1401635E+00
         -2   -1    0    0    0  501 -0.00000000000E+00  0.00000000000E+00  0.90090076417E+01  0.90090076417E+01  0.00000000000E+00 0.  1.
          2   -1    0    0  501    0  0.00000000000E+00 -0.00000000000E+00 -0.41787750254E+03  0.41787750254E+03  0.00000000000E+00 0. -1.
         23    2    1    2    0    0 -0.91010328997E+01  0.67184651062E+01 -0.39868982676E+03  0.41166902490E+03  0.10193057209E+03 0.  0.
         13    1    3    3    0    0  0.53166341325E+01 -0.31298838345E+02 -0.33233393310E+03  0.33384686155E+03  0.00000000000E+00 0. -1.
        -13    1    3    3    0    0 -0.14417667032E+02  0.38017303451E+02 -0.66355893658E+02  0.77822163343E+02  0.00000000000E+00 0.  1.
         22    1    1    2    0    0  0.91010328997E+01 -0.67184651062E+01 -0.10178668139E+02  0.15217485282E+02  0.00000000000E+00 0.  1.
<mgrwt>
<rscale>  0 0.59102933E+02</rscale>
<asrwt>0</asrwt>
<pdfrwt beam="1">  1        2 0.64288863E-01 0.10255637E+03</pdfrwt>
<pdfrwt beam="2">  1       -2 0.13860008E-02 0.10255637E+03</pdfrwt>
<totfact> 0.88842067E+04</totfact>
</mgrwt>
</event>
<event>
 6    1  0.2866116E-002  0.9345148E+02  0.7546771E-02  0.1396217E+00
         -2   -1    0    0    0  501 -0.00000000000E+00  0.00000000000E+00  0.15503258973E+03  0.15503258973E+03  0.00000000000E+00 0.  1.
          2   -1    0    0  501    0  0.00000000000E+00 -0.00000000000E+00 -0.37605093340E+02  0.37605093340E+02  0.00000000000E+00 0. -1.
         23    2    1    2    0    0  0.91039222019E+00 -0.16267399715E+02  0.22234111438E+02  0.96060058094E+02  0.92020225723E+02 0.  0.
         11    1    3    3    0    0  0.11932809931E+02 -0.17811438625E+02 -0.33199464461E+02  0.39520168765E+02  0.00000000000E+00 0. -1.
        -11    1    3    3    0    0 -0.11022417710E+02  0.15440389103E+01  0.55433575899E+02  0.56539889328E+02  0.00000000000E+00 0.  1.
         22    1    1    2    0    0 -0.91039222019E+00  0.16267399715E+02  0.95193384953E+02  0.96577624978E+02  0.00000000000E+00 0.  1.
<mgrwt>
<rscale>  0 0.60386371E+02</rscale>
<asrwt>0</asrwt>
<pdfrwt beam="1">  1        2 0.57853991E-02 0.93451480E+02</pdfrwt>
<pdfrwt beam="2">  1       -2 0.23851167E-01 0.93451480E+02</pdfrwt>
<totfact> 0.17800968E+04</totfact>
</mgrwt>
</event>
<event>
 6    1  0.2866116E-002  0.9517480E+02  0.7546771E-02  0.1359080E+00
         -2   -1    0    0    0  501 -0.00000000000E+00  0.00000000000E+00  0.49705822844E+01  0.49705822844E+01  0.00000000000E+00 0.  1.
          2   -1    0    0  501    0  0.00000000000E+00 -0.00000000000E+00 -0.83111845756E+03  0.83111845756E+03  0.00000000000E+00 0. -1.
         23    2    1    2    0    0  0.20742030610E+02 -0.19294674448E+02 -0.71849522378E+03  0.72477143266E+03  0.90861029628E+02 0.  0.
         13    1    3    3    0    0  0.21369873138E+02 -0.21670242437E+02 -0.70711286328E+02  0.76982835095E+02  0.00000000000E+00 0.  1.
        -13    1    3    3    0    0 -0.62784252749E+00  0.23755679893E+01 -0.64778393746E+03  0.64778859757E+03  0.00000000000E+00 0. -1.
         22    1    1    2    0    0 -0.20742030610E+02  0.19294674448E+02 -0.10765265149E+03  0.11131760718E+03  0.00000000000E+00 0.  1.
<mgrwt>
<rscale>  0 0.70298850E+02</rscale>
<asrwt>0</asrwt>
<pdfrwt beam="1">  1        2 0.12786445E+00 0.95174802E+02</pdfrwt>
<pdfrwt beam="2">  1       -2 0.76470455E-03 0.95174802E+02</pdfrwt>
<totfact> 0.94089245E+04</totfact>
</mgrwt>
</event>
<event>
 6    1  0.2866116E-002  0.9174033E+02  0.7546771E-02  0.1412150E+00
         -2   -1    0    0    0  501 -0.00000000000E+00  0.00000000000E+00  0.77015311447E+01  0.77015311447E+01  0.00000000000E+00 0.  1.
          2   -1    0    0  501    0  0.00000000000E+00 -0.00000000000E+00 -0.38438599877E+03  0.38438599877E+03  0.00000000000E+00 0. -1.
         23    2    1    2    0    0 -0.60987668186E+01  0.11933925708E+02 -0.35441793658E+03  0.36609884114E+03  0.90756124718E+02 0.  0.
         13    1    3    3    0    0  0.28284579150E+02  0.38650801369E+02 -0.20042247160E+03  0.20606569095E+03  0.00000000000E+00 0. -1.
        -13    1    3    3    0    0 -0.34383345969E+02 -0.26716875661E+02 -0.15399546498E+03  0.16003315019E+03  0.00000000000E+00 0.  1.
         22    1    1    2    0    0  0.60987668186E+01 -0.11933925708E+02 -0.22266531044E+02  0.25988688775E+02  0.00000000000E+00 0.  1.
<mgrwt>
<rscale>  0 0.56716915E+02</rscale>
<asrwt>0</asrwt>
<pdfrwt beam="1">  1        2 0.59136306E-01 0.91740328E+02</pdfrwt>
<pdfrwt beam="2">  1       -2 0.11848510E-02 0.91740328E+02</pdfrwt>
<totfact> 0.11938086E+05</totfact>
</mgrwt>
</event>
<event>
 6    1  0.2866116E-002  0.9242895E+02  0.7546771E-02  0.1391840E+00
         -2   -1    0    0    0  501 -0.00000000000E+00  0.00000000000E+00  0.73135103477E+01  0.73135103477E+01  0.00000000000E+00 0.  1.
          2   -1    0    0  501    0  0.00000000000E+00 -0.00000000000E+00 -0.63108422852E+03  0.63108422852E+03  0.00000000000E+00 0. -1.
         23    2    1    2    0    0  0.10055882462E+02 -0.15000716899E+02 -0.60618317322E+03  0.61318932723E+03  0.90647500020E+02 0.  0.
         11    1    3    3    0    0  0.20273657346E+02 -0.32398399582E+02 -0.10738751144E+03  0.11398576705E+03  0.00000000000E+00 0.  1.
        -11    1    3    3    0    0 -0.10217774885E+02  0.17397682683E+02 -0.49879566178E+03  0.49920356018E+03  0.00000000000E+00 0. -1.
         22    1    1    2    0    0 -0.10055882462E+02  0.15000716899E+02 -0.17587544949E+02  0.25208411630E+02  0.00000000000E+00 0.  1.
<mgrwt>
<rscale>  0 0.61451419E+02</rscale>
<asrwt>0</asrwt>
<pdfrwt beam="1">  1        2 0.97089901E-01 0.92428954E+02</pdfrwt>
<pdfrwt beam="2">  1       -2 0.11251552E-02 0.92428954E+02</pdfrwt>
<totfact> 0.75173810E+04</totfact>
</mgrwt>
</event>
<event>
 6    1  0.2866116E-002  0.9523430E+02  0.7546771E-02  0.1369426E+00
          2   -1    0    0  501    0  0.00000000000E+00  0.00000000000E+00  0.32606970760E+03  0.32606970760E+03  0.00000000000E+00 0. -1.
         -2   -1    0    0    0  501 -0.00000000000E+00 -0.00000000000E+00 -0.11412118138E+02  0.11412118138E+02  0.00000000000E+00 0.  1.
         23    2    1    2    0    0 -0.16163685157E+02  0.17454342480E+02  0.27725355320E+03  0.29315372271E+03  0.92215256807E+02 0.  0.
         11    1    3    3    0    0  0.11202600548E+02  0.27741928543E+02  0.25411220357E+03  0.25586739703E+03  0.00000000000E+00 0. -1.
        -11    1    3    3    0    0 -0.27366285705E+02 -0.10287586062E+02  0.23141349631E+02  0.37286325684E+02  0.00000000000E+00 0.  1.
         22    1    1    2    0    0  0.16163685157E+02 -0.17454342480E+02  0.37404036266E+02  0.44328103030E+02  0.00000000000E+00 0. -1.
<mgrwt>
<rscale>  0 0.67327009E+02</rscale>
<asrwt>0</asrwt>
<pdfrwt beam="1">  1        2 0.50164563E-01 0.95234303E+02</pdfrwt>
<pdfrwt beam="2">  1       -2 0.17557107E-02 0.95234303E+02</pdfrwt>
<totfact> 0.81393934E+04</totfact>
</mgrwt>
</event>
<event>
 6    1  0.2866116E-002  0.9310464E+02  0.7546771E-02  0.1379311E+00
         -1   -1    0    0    0  501 -0.00000000000E+00  0.00000000000E+00  0.52137671820E+01  0.52137671820E+01  0.00000000000E+00 0.  1.
          1   -1    0    0  501    0  0.00000000000E+00 -0.00000000000E+00 -0.97962953899E+03  0.97962953899E+03  0.00000000000E+00 0. -1.
         23    2    1    2    0    0  0.17706964545E+02  0.12437796045E+02 -0.93705108582E+03  0.94166512739E+03  0.90555172936E+02 0.  0.
         11    1    3    3    0    0 -0.14176084193E+02 -0.16001447435E+02 -0.72694339798E+03  0.72725766517E+03  0.00000000000E+00 0. -1.
        -11    1    3    3    0    0  0.31883048738E+02  0.28439243480E+02 -0.21010768783E+03  0.21440746222E+03  0.00000000000E+00 0.  1.
         22    1    1    2    0    0 -0.17706964545E+02 -0.12437796045E+02 -0.37364685993E+02  0.43178178786E+02  0.00000000000E+00 0.  1.
<mgrwt>
<rscale>  0 0.64645237E+02</rscale>
<asrwt>0</asrwt>
<pdfrwt beam="1">  1        1 0.15071226E+00 0.93104644E+02</pdfrwt>
<pdfrwt beam="2">  1       -1 0.80211788E-03 0.93104644E+02</pdfrwt>
<totfact> 0.38937959E+04</totfact>
</mgrwt>
</event>
<event>
 6    1  0.2866116E-002  0.9581856E+02  0.7546771E-02  0.1337813E+00
         -1   -1    0    0    0  501 -0.00000000000E+00  0.00000000000E+00  0.82500534352E+02  0.82500534352E+02  0.00000000000E+00 0.  1.
          1   -1    0    0  501    0  0.00000000000E+00 -0.00000000000E+00 -0.58855357336E+02  0.58855357336E+02  0.00000000000E+00 0. -1.
         23    2    1    2    0    0 -0.12298567010E+02 -0.38000582483E+02  0.31070817901E+02  0.10073029431E+03  0.87097057630E+02 0.  0.
         13    1    3    3    0    0 -0.47226295166E+02 -0.11194472234E+02  0.29242918944E+02  0.56663810956E+02  0.00000000000E+00 0.  1.
        -13    1    3    3    0    0  0.34927728156E+02 -0.26806110249E+02  0.18278989562E+01  0.44066483357E+02  0.00000000000E+00 0. -1.
         22    1    1    2    0    0  0.12298567010E+02  0.38000582483E+02 -0.74256408849E+01  0.40625597375E+02  0.00000000000E+00 0. -1.
<mgrwt>
<rscale>  0 0.76991449E+02</rscale>
<asrwt>0</asrwt>
<pdfrwt beam="1">  1        1 0.90546703E-02 0.95818560E+02</pdfrwt>
<pdfrwt beam="2">  1       -1 0.12692390E-01 0.95818560E+02</pdfrwt>
<totfact> 0.27144723E+04</totfact>
</mgrwt>
</event>
<event>
 6    1  0.2866116E-002  0.9439364E+02  0.7546771E-02  0.1394759E+00
         -2   -1    0    0    0  501 -0.00000000000E+00  0.00000000000E+00  0.18430873984E+03  0.18430873984E+03  0.00000000000E+00 0.  1.
          2   -1    0    0  501    0  0.00000000000E+00 -0.00000000000E+00 -0.22707226301E+02  0.22707226301E+02  0.00000000000E+00 0. -1.
         23    2    1    2    0    0 -0.73444845577E+01 -0.14418976336E+02  0.79727630925E+02  0.12355830630E+03  0.92996298800E+02 0.  0.
         13    1    3    3    0    0  0.40526551574E+02 -0.13933656813E+02  0.54850700996E+02  0.69607094282E+02  0.00000000000E+00 0. -1.
        -13    1    3    3    0    0 -0.47871036132E+02 -0.48531952360E+00  0.24876929930E+02  0.53951212017E+02  0.00000000000E+00 0.  1.
         22    1    1    2    0    0  0.73444845577E+01  0.14418976336E+02  0.81873882613E+02  0.83457659841E+02  0.00000000000E+00 0.  1.
<mgrwt>
<rscale>  0 0.60738392E+02</rscale>
<asrwt>0</asrwt>
<pdfrwt beam="1">  1        2 0.34934196E-02 0.94393643E+02</pdfrwt>
<pdfrwt beam="2">  1       -2 0.28355190E-01 0.94393643E+02</pdfrwt>
<totfact> 0.25396522E+04</totfact>
</mgrwt>
</event>
<event>
 6    1  0.2866116E-002  0.1050176E+03  0.7546771E-02  0.1310092E+00
         -4   -1    0    0    0  501 -0.00000000000E+00  0.00000000000E+00  0.33136771106E+02  0.33136771106E+02  0.00000000000E+00 0.  1.
          4   -1    0    0  501    0  0.00000000000E+00 -0.00000000000E+00 -0.18297302664E+03  0.18297302664E+03  0.00000000000E+00 0. -1.
         23    2    1    2    0    0  0.39167268111E+02 -0.30491714855E+02 -0.11323687563E+03  0.15443861991E+03  0.92546624748E+02 0.  0.
         13    1    3    3    0    0  0.85910921973E+01  0.32811469950E+02 -0.46072567105E+02  0.57210845694E+02  0.00000000000E+00 0.  1.
        -13    1    3    3    0    0  0.30576175914E+02 -0.63303184805E+02 -0.67164308523E+02  0.97227774217E+02  0.00000000000E+00 0. -1.
         22    1    1    2    0    0 -0.39167268111E+02  0.30491714855E+02 -0.36599379908E+02  0.61671177836E+02  0.00000000000E+00 0.  1.
<mgrwt>
<rscale>  0 0.87075844E+02</rscale>
<asrwt>0</asrwt>
<pdfrwt beam="1">  1        4 0.28149696E-01 0.10501760E+03</pdfrwt>
<pdfrwt beam="2">  1       -4 0.50979648E-02 0.10501760E+03</pdfrwt>
<totfact> 0.42543650E+03</totfact>
</mgrwt>
</event>
<event>
 6    1  0.2866116E-002  0.9014894E+02  0.7546771E-02  0.1422956E+00
         -1   -1    0    0    0  501 -0.00000000000E+00  0.00000000000E+00  0.37099863801E+01  0.37099863801E+01  0.00000000000E+00 0.  1.
          1   -1    0    0  501    0  0.00000000000E+00 -0.00000000000E+00 -0.75989783855E+03  0.75989783855E+03  0.00000000000E+00 0. -1.
         23    2    1    2    0    0  0.11628145932E+02 -0.27735923367E+01 -0.71677865817E+03  0.72242541165E+03  0.89352806281E+02 0.  0.
         11    1    3    3    0    0  0.46837865303E+02  0.16794111474E+02 -0.37831636370E+03  0.38157449974E+03  0.00000000000E+00 0. -1.
        -11    1    3    3    0    0 -0.35209719371E+02 -0.19567703810E+02 -0.33846229447E+03  0.34085091191E+03  0.00000000000E+00 0.  1.
         22    1    1    2    0    0 -0.11628145932E+02  0.27735923367E+01 -0.39409193999E+02  0.41182413284E+02  0.00000000000E+00 0. -1.
<mgrwt>
<rscale>  0 0.54400386E+02</rscale>
<asrwt>0</asrwt>
<pdfrwt beam="1">  1        1 0.11690752E+00 0.90148936E+02</pdfrwt>
<pdfrwt beam="2">  1       -1 0.57076637E-03 0.90148936E+02</pdfrwt>
<totfact> 0.92434240E+04</totfact>
</mgrwt>
</event>
<event>
 6    1  0.2866116E-002  0.9717193E+02  0.7546771E-02  0.1396030E+00
         -2   -1    0    0    0  501 -0.00000000000E+00  0.00000000000E+00  0.14219601874E+02  0.14219601874E+02  0.00000000000E+00 0. -1.
          2   -1    0    0  501    0  0.00000000000E+00 -0.00000000000E+00 -0.21946608973E+03  0.21946608973E+03  0.00000000000E+00 0.  1.
         23    2    1    2    0    0  0.20922606628E+01  0.14384144209E+02 -0.17997772349E+03  0.20453450618E+03  0.96078624598E+02 0.  0.
         11    1    3    3    0    0 -0.95870664205E+01  0.13946824614E+02  0.61748490244E+01  0.18015396744E+02  0.00000000000E+00 0. -1.
        -11    1    3    3    0    0  0.11679327083E+02  0.43731959501E+00 -0.18615257251E+03  0.18651910943E+03  0.00000000000E+00 0.  1.
         22    1    1    2    0    0 -0.20922606628E+01 -0.14384144209E+02 -0.25268764366E+02  0.29151185429E+02  0.00000000000E+00 0.  1.
<mgrwt>
<rscale>  0 0.60431477E+02</rscale>
<asrwt>0</asrwt>
<pdfrwt beam="1">  1        2 0.33764014E-01 0.97171926E+02</pdfrwt>
<pdfrwt beam="2">  1       -2 0.21876310E-02 0.97171926E+02</pdfrwt>
<totfact> 0.90210564E+04</totfact>
</mgrwt>
</event>
<event>
 6    1  0.2866116E-002  0.9180729E+02  0.7546771E-02  0.1392319E+00
          1   -1    0    0  501    0  0.00000000000E+00  0.00000000000E+00  0.57613974489E+03  0.57613974489E+03  0.00000000000E+00 0. -1.
         -1   -1    0    0    0  501 -0.00000000000E+00 -0.00000000000E+00 -0.58435498196E+01  0.58435498196E+01  0.00000000000E+00 0.  1.
         23    2    1    2    0    0 -0.39504411467E+01 -0.17856115278E+02  0.52770965034E+03  0.53563611971E+03  0.89967387655E+02 0.  0.
         13    1    3    3    0    0  0.99793650991E+01  0.17052625758E+02  0.43702131828E+03  0.43746772727E+03  0.00000000000E+00 0. -1.
        -13    1    3    3    0    0 -0.13929806246E+02 -0.34908741036E+02  0.90688332059E+02  0.98168392440E+02  0.00000000000E+00 0.  1.
         22    1    1    2    0    0  0.39504411467E+01  0.17856115278E+02  0.42586544731E+02  0.46347174997E+02  0.00000000000E+00 0. -1.
<mgrwt>
<rscale>  0 0.61333641E+02</rscale>
<asrwt>0</asrwt>
<pdfrwt beam="1">  1        1 0.88636839E-01 0.91807286E+02</pdfrwt>
<pdfrwt beam="2">  1       -1 0.89900812E-03 0.91807286E+02</pdfrwt>
<totfact> 0.71780203E+04</totfact>
</mgrwt>
</event>
<event>
 6    1  0.2866116E-002  0.9302381E+02  0.7546771E-02  0.1389586E+00
          2   -1    0    0  501    0  0.00000000000E+00  0.00000000000E+00  0.26726265346E+03  0.26726265346E+03  0.00000000000E+00 0. -1.
         -2   -1    0    0    0  501 -0.00000000000E+00 -0.00000000000E+00 -0.21712028116E+02  0.21712028116E+02  0.00000000000E+00 0.  1.
         23    2    1    2    0    0  0.12051063561E+02  0.13861815808E+02  0.25268950532E+03  0.26926829485E+03  0.91192381497E+02 0.  0.
         13    1    3    3    0    0  0.38643372955E+01 -0.33939065915E+02  0.48008634849E+02  0.58920474523E+02  0.00000000000E+00 0.  1.
        -13    1    3    3    0    0  0.81867262660E+01  0.47800881723E+02  0.20468087047E+03  0.21034782033E+03  0.00000000000E+00 0. -1.
         22    1    1    2    0    0 -0.12051063561E+02 -0.13861815808E+02 -0.71388799760E+01  0.19706386725E+02  0.00000000000E+00 0.  1.
<mgrwt>
<rscale>  0 0.62009779E+02</rscale>
<asrwt>0</asrwt>
<pdfrwt beam="1">  1        2 0.41117329E-01 0.93023806E+02</pdfrwt>
<pdfrwt beam="2">  1       -2 0.33403122E-02 0.93023806E+02</pdfrwt>
<totfact> 0.39421194E+04</totfact>
</mgrwt>
</event>
<event>
 6    1  0.2866116E-002  0.9260050E+02  0.7546771E-02  0.1388483E+00
         -3   -1    0    0    0  501 -0.00000000000E+00  0.00000000000E+00  0.12975976840E+02  0.12975976840E+02  0.00000000000E+00 0.  1.
          3   -1    0    0  501    0  0.00000000000E+00 -0.00000000000E+00 -0.27240568077E+03  0.27240568077E+03  0.00000000000E+00 0. -1.
         23    2    1    2    0    0 -0.16436498267E+02  0.94399545674E+01 -0.24386891470E+03  0.26085800823E+03  0.90639846001E+02 0.  0.
         11    1    3    3    0    0  0.51149711169E+01 -0.72387806320E+01  0.52175638629E+01  0.10285224705E+02  0.00000000000E+00 0.  1.
        -11    1    3    3    0    0 -0.21551469384E+02  0.16678735199E+02 -0.24908647857E+03  0.25057278353E+03  0.00000000000E+00 0. -1.
         22    1    1    2    0    0  0.16436498267E+02 -0.94399545674E+01 -0.15560789229E+02  0.24523649381E+02  0.00000000000E+00 0.  1.
<mgrwt>
<rscale>  0 0.62285622E+02</rscale>
<asrwt>0</asrwt>
<pdfrwt beam="1">  1        3 0.41908566E-01 0.92600502E+02</pdfrwt>
<pdfrwt beam="2">  1       -3 0.19963041E-02 0.92600502E+02</pdfrwt>
<totfact> 0.11249255E+04</totfact>
</mgrwt>
</event>
<event>
 6    1  0.2866116E-002  0.9475100E+02  0.7546771E-02  0.1393107E+00
          2   -1    0    0  501    0  0.00000000000E+00  0.00000000000E+00  0.82667836440E+03  0.82667836440E+03  0.00000000000E+00 0. -1.
         -2   -1    0    0    0  501 -0.00000000000E+00 -0.00000000000E+00 -0.37659064561E+01  0.37659064561E+01  0.00000000000E+00 0.  1.
         23    2    1    2    0    0 -0.20528354329E+01  0.16298566630E+02  0.72461913541E+03  0.73078768722E+03  0.93316102473E+02 0.  0.
         11    1    3    3    0    0 -0.30539584302E+02 -0.28070774422E+02  0.35835630302E+03  0.36074904643E+03  0.00000000000E+00 0. -1.
        -11    1    3    3    0    0  0.28486748869E+02  0.44369341052E+02  0.36626283239E+03  0.37003864079E+03  0.00000000000E+00 0.  1.
         22    1    1    2    0    0  0.20528354329E+01 -0.16298566630E+02  0.98293322534E+02  0.99656583637E+02  0.00000000000E+00 0. -1.
<mgrwt>
<rscale>  0 0.61140594E+02</rscale>
<asrwt>0</asrwt>
<pdfrwt beam="1">  1        2 0.12718114E+00 0.94751002E+02</pdfrwt>
<pdfrwt beam="2">  1       -2 0.57937088E-03 0.94751002E+02</pdfrwt>
<totfact> 0.13993327E+05</totfact>
</mgrwt>
</event>
<event>
 6    1  0.2866116E-002  0.9359523E+02  0.7546771E-02  0.1416501E+00
         -2   -1    0    0    0  501 -0.00000000000E+00  0.00000000000E+00  0.16315505463E+02  0.16315505463E+02  0.00000000000E+00 0.  1.
          2   -1    0    0  501    0  0.00000000000E+00 -0.00000000000E+00 -0.20831757414E+03  0.20831757414E+03  0.00000000000E+00 0. -1.
         23    2    1    2    0    0 -0.11796569737E+02 -0.12833425895E+00 -0.19111470576E+03  0.21280248620E+03  0.92848757933E+02 0.  0.
         13    1    3    3    0    0 -0.13566980397E+02 -0.18686599325E+01 -0.20158106144E+03  0.20204573536E+03  0.00000000000E+00 0. -1.
        -13    1    3    3    0    0  0.17704106595E+01  0.17403256736E+01  0.10466355682E+02  0.10756750839E+02  0.00000000000E+00 0.  1.
         22    1    1    2    0    0  0.11796569737E+02  0.12833425895E+00 -0.88736291759E+00  0.11830593400E+02  0.00000000000E+00 0.  1.
<mgrwt>
<rscale>  0 0.55768075E+02</rscale>
<asrwt>0</asrwt>
<pdfrwt beam="1">  1        2 0.32048856E-01 0.93595232E+02</pdfrwt>
<pdfrwt beam="2">  1       -2 0.25100778E-02 0.93595232E+02</pdfrwt>
<totfact> 0.77753363E+04</totfact>
</mgrwt>
</event>
<event>
 6    1  0.2866116E-002  0.9040564E+02  0.7546771E-02  0.1421509E+00
         -2   -1    0    0    0  501 -0.00000000000E+00  0.00000000000E+00  0.75715933629E+02  0.75715933629E+02  0.00000000000E+00 0.  1.
          2   -1    0    0  501    0  0.00000000000E+00 -0.00000000000E+00 -0.41201451623E+02  0.41201451623E+02  0.00000000000E+00 0. -1.
         23    2    1    2    0    0 -0.30400559308E+01 -0.11731226874E+02  0.11800271924E+02  0.91172502971E+02  0.89589705081E+02 0.  0.
         11    1    3    3    0    0  0.10301239997E+02 -0.16152171524E+02 -0.36308589503E+02  0.41052671802E+02  0.00000000000E+00 0. -1.
        -11    1    3    3    0    0 -0.13341295928E+02  0.44209446503E+01  0.48108861427E+02  0.50119831169E+02  0.00000000000E+00 0.  1.
         22    1    1    2    0    0  0.30400559308E+01  0.11731226874E+02  0.22714210081E+02  0.25744882281E+02  0.00000000000E+00 0.  1.
<mgrwt>
<rscale>  0 0.54702970E+02</rscale>
<asrwt>0</asrwt>
<pdfrwt beam="1">  1        2 0.63386849E-02 0.90405635E+02</pdfrwt>
<pdfrwt beam="2">  1       -2 0.11648605E-01 0.90405635E+02</pdfrwt>
<totfact> 0.51165855E+04</totfact>
</mgrwt>
</event>
<event>
 6    1  0.2866116E-002  0.9426561E+02  0.7546771E-02  0.1399964E+00
         -4   -1    0    0    0  501 -0.00000000000E+00  0.00000000000E+00  0.13935187880E+03  0.13935187880E+03  0.00000000000E+00 0. -1.
          4   -1    0    0  501    0  0.00000000000E+00 -0.00000000000E+00 -0.21634824102E+02  0.21634824102E+02  0.00000000000E+00 0.  1.
         23    2    1    2    0    0  0.91425894547E+01 -0.11837969038E+02  0.10691160407E+03  0.14253454270E+03  0.93071372209E+02 0.  0.
         13    1    3    3    0    0 -0.35352466848E+02  0.15858040473E+02  0.63922015451E+02  0.74748233552E+02  0.00000000000E+00 0. -1.
        -13    1    3    3    0    0  0.44495056302E+02 -0.27696009512E+02  0.42989588620E+02  0.67786309148E+02  0.00000000000E+00 0.  1.
         22    1    1    2    0    0 -0.91425894547E+01  0.11837969038E+02  0.10805450629E+02  0.18452160204E+02  0.00000000000E+00 0.  1.
<mgrwt>
<rscale>  0 0.59494817E+02</rscale>
<asrwt>0</asrwt>
<pdfrwt beam="1">  1        4 0.33284346E-02 0.94265608E+02</pdfrwt>
<pdfrwt beam="2">  1       -4 0.21438750E-01 0.94265608E+02</pdfrwt>
<totfact> 0.13324750E+04</totfact>
</mgrwt>
</event>
<event>
 6    1  0.2866116E-002  0.8419612E+02  0.7546771E-02  0.1420310E+00
          2   -1    0    0  501    0  0.00000000000E+00  0.00000000000E+00  0.48801094840E+02  0.48801094840E+02  0.00000000000E+00 0. -1.
         -2   -1    0    0    0  501 -0.00000000000E+00 -0.00000000000E+00 -0.51136488387E+02  0.51136488387E+02  0.00000000000E+00 0.  1.
         23    2    1    2    0    0  0.14444675051E+02  0.49876531226E+01 -0.53328808761E+01  0.84364842579E+02  0.82797715693E+02 0.  0.
         13    1    3    3    0    0  0.37562070935E+01  0.43224472756E+02 -0.95901856528E+01  0.44434623861E+02  0.00000000000E+00 0.  1.
        -13    1    3    3    0    0  0.10688467957E+02 -0.38236819634E+02  0.42573047767E+01  0.39930218719E+02  0.00000000000E+00 0. -1.
         22    1    1    2    0    0 -0.14444675051E+02 -0.49876531226E+01  0.29974873299E+01  0.15572740648E+02  0.00000000000E+00 0. -1.
<mgrwt>
<rscale>  0 0.54955456E+02</rscale>
<asrwt>0</asrwt>
<pdfrwt beam="1">  1        2 0.75078608E-02 0.84196123E+02</pdfrwt>
<pdfrwt beam="2">  1       -2 0.78671520E-02 0.84196123E+02</pdfrwt>
<totfact> 0.75154235E+04</totfact>
</mgrwt>
</event>
<event>
 6    1  0.2866116E-002  0.9047689E+02  0.7546771E-02  0.1424478E+00
          2   -1    0    0  501    0  0.00000000000E+00  0.00000000000E+00  0.76890486129E+03  0.76890486129E+03  0.00000000000E+00 0. -1.
         -2   -1    0    0    0  501 -0.00000000000E+00 -0.00000000000E+00 -0.39802133658E+01  0.39802133658E+01  0.00000000000E+00 0.  1.
         23    2    1    2    0    0 -0.74275770271E+00 -0.11528794887E+02  0.73880682936E+03  0.74432627134E+03  0.89736293052E+02 0.  0.
         11    1    3    3    0    0 -0.66339317424E+01 -0.29990433560E+02  0.70250197650E+03  0.70317313810E+03  0.00000000000E+00 0. -1.
        -11    1    3    3    0    0  0.58911740397E+01  0.18461638674E+02  0.36304852856E+02  0.41153133234E+02  0.00000000000E+00 0.  1.
         22    1    1    2    0    0  0.74275770271E+00  0.11528794887E+02  0.26117818565E+02  0.28558803322E+02  0.00000000000E+00 0.  1.
<mgrwt>
<rscale>  0 0.54084657E+02</rscale>
<asrwt>0</asrwt>
<pdfrwt beam="1">  1        2 0.11829294E+00 0.90476887E+02</pdfrwt>
<pdfrwt beam="2">  1       -2 0.61234113E-03 0.90476887E+02</pdfrwt>
<totfact> 0.14050596E+05</totfact>
</mgrwt>
</event>
<event>
 6    1  0.2866116E-002  0.9195968E+02  0.7546771E-02  0.1428084E+00
         -2   -1    0    0    0  501 -0.00000000000E+00  0.00000000000E+00  0.90192843135E+01  0.90192843135E+01  0.00000000000E+00 0. -1.
          2   -1    0    0  501    0  0.00000000000E+00 -0.00000000000E+00 -0.46081022819E+03  0.46081022819E+03  0.00000000000E+00 0.  1.
         23    2    1    2    0    0  0.57225183924E+01 -0.87012192350E+01 -0.44995322790E+03  0.45925427573E+03  0.91368069036E+02 0.  0.
         11    1    3    3    0    0  0.70768472262E+01  0.19839172191E+02 -0.22401963310E+02  0.30749349262E+02  0.00000000000E+00 0. -1.
        -11    1    3    3    0    0 -0.13543288338E+01 -0.28540391426E+02 -0.42755126459E+03  0.42850492646E+03  0.00000000000E+00 0.  1.
         22    1    1    2    0    0 -0.57225183924E+01  0.87012192350E+01 -0.18377159751E+01  0.10575236779E+02  0.00000000000E+00 0. -1.
<mgrwt>
<rscale>  0 0.53346508E+02</rscale>
<asrwt>0</asrwt>
<pdfrwt beam="1">  1        2 0.70893914E-01 0.91959679E+02</pdfrwt>
<pdfrwt beam="2">  1       -2 0.13875816E-02 0.91959679E+02</pdfrwt>
<totfact> 0.78733860E+04</totfact>
</mgrwt>
</event>
<event>
 6    1  0.2866116E-002  0.9149190E+02  0.7546771E-02  0.1431617E+00
         -4   -1    0    0    0  501 -0.00000000000E+00  0.00000000000E+00  0.36540455964E+02  0.36540455964E+02  0.00000000000E+00 0. -1.
          4   -1    0    0  501    0  0.00000000000E+00 -0.00000000000E+00 -0.98792173790E+02  0.98792173790E+02  0.00000000000E+00 0.  1.
         23    2    1    2    0    0  0.45817993857E+01 -0.89148332472E+01 -0.75568671910E+02  0.11866504434E+03  0.90941197688E+02 0.  0.
         11    1    3    3    0    0 -0.20224845364E+02 -0.30823385981E+02 -0.77176634937E+02  0.85529868897E+02  0.00000000000E+00 0.  1.
        -11    1    3    3    0    0  0.24806644750E+02  0.21908552734E+02  0.16079630273E+01  0.33135175445E+02  0.00000000000E+00 0. -1.
         22    1    1    2    0    0 -0.45817993857E+01  0.89148332472E+01  0.13316954084E+02  0.16667585413E+02  0.00000000000E+00 0. -1.
<mgrwt>
<rscale>  0 0.52636864E+02</rscale>
<asrwt>0</asrwt>
<pdfrwt beam="1">  1        4 0.15198796E-01 0.91491904E+02</pdfrwt>
<pdfrwt beam="2">  1       -4 0.56216086E-02 0.91491904E+02</pdfrwt>
<totfact> 0.10575592E+04</totfact>
</mgrwt>
</event>
<event>
 6    1  0.2866116E-002  0.9164215E+02  0.7546771E-02  0.1430461E+00
          2   -1    0    0  501    0  0.00000000000E+00  0.00000000000E+00  0.70061594060E+01  0.70061594060E+01  0.00000000000E+00 0. -1.
         -2   -1    0    0    0  501 -0.00000000000E+00 -0.00000000000E+00 -0.37224997369E+03  0.37224997369E+03  0.00000000000E+00 0.  1.
         23    2    1    2    0    0 -0.41316750607E+01  0.92710922494E+01 -0.31843737748E+03  0.33136180758E+03  0.91078319354E+02 0.  0.
         11    1    3    3    0    0 -0.37746928754E+02 -0.22231275787E+02 -0.12300704060E+03  0.13057485321E+03  0.00000000000E+00 0. -1.
        -11    1    3    3    0    0  0.33615253693E+02  0.31502368036E+02 -0.19543033688E+03  0.20078695437E+03  0.00000000000E+00 0.  1.
         22    1    1    2    0    0  0.41316750607E+01 -0.92710922494E+01 -0.46806436801E+02  0.47894325513E+02  0.00000000000E+00 0.  1.
<mgrwt>
<rscale>  0 0.52867492E+02</rscale>
<asrwt>0</asrwt>
<pdfrwt beam="1">  1        2 0.10778708E-02 0.91642153E+02</pdfrwt>
<pdfrwt beam="2">  1       -2 0.57269219E-01 0.91642153E+02</pdfrwt>
<totfact> 0.32828842E+04</totfact>
</mgrwt>
</event>
<event>
 6    1  0.2866116E-002  0.1009500E+03  0.7546771E-02  0.1395432E+00
          4   -1    0    0  501    0  0.00000000000E+00  0.00000000000E+00  0.65701306726E+02  0.65701306726E+02  0.00000000000E+00 0. -1.
         -4   -1    0    0    0  501 -0.00000000000E+00 -0.00000000000E+00 -0.95251724841E+02  0.95251724841E+02  0.00000000000E+00 0.  1.
         23    2    1    2    0    0 -0.47659183435E+01  0.12189289594E+02  0.25702935455E+02  0.10417076462E+03  0.10009802472E+03 0.  0.
         11    1    3    3    0    0  0.21227165963E+01  0.25138971990E+02 -0.34199870153E+02  0.42498293577E+02  0.00000000000E+00 0.  1.
        -11    1    3    3    0    0 -0.68886349397E+01 -0.12949682396E+02  0.59902805608E+02  0.61672471048E+02  0.00000000000E+00 0. -1.
         22    1    1    2    0    0  0.47659183435E+01 -0.12189289594E+02 -0.55253353569E+02  0.56782266942E+02  0.00000000000E+00 0.  1.
<mgrwt>
<rscale>  0 0.60575526E+02</rscale>
<asrwt>0</asrwt>
<pdfrwt beam="1">  1        4 0.10107893E-01 0.10095002E+03</pdfrwt>
<pdfrwt beam="2">  1       -4 0.14654112E-01 0.10095002E+03</pdfrwt>
<totfact> 0.44298977E+03</totfact>
</mgrwt>
</event>
<event>
 6    1  0.2866116E-002  0.9167890E+02  0.7546771E-02  0.1428409E+00
         -2   -1    0    0    0  501 -0.00000000000E+00  0.00000000000E+00  0.35600020658E+02  0.35600020658E+02  0.00000000000E+00 0.  1.
          2   -1    0    0  501    0  0.00000000000E+00 -0.00000000000E+00 -0.11435618471E+03  0.11435618471E+03  0.00000000000E+00 0. -1.
         23    2    1    2    0    0  0.15356637306E+01  0.10345118664E+02 -0.94106734705E+02  0.13138149777E+03  0.91080407858E+02 0.  0.
         11    1    3    3    0    0 -0.15544868006E+02  0.22013580003E+02 -0.10472003664E+03  0.10813198740E+03  0.00000000000E+00 0. -1.
        -11    1    3    3    0    0  0.17080531736E+02 -0.11668461339E+02  0.10613301932E+02  0.23249510367E+02  0.00000000000E+00 0.  1.
         22    1    1    2    0    0 -0.15356637306E+01 -0.10345118664E+02  0.15350570650E+02  0.18574707603E+02  0.00000000000E+00 0.  1.
<mgrwt>
<rscale>  0 0.53280606E+02</rscale>
<asrwt>0</asrwt>
<pdfrwt beam="1">  1        2 0.17593259E-01 0.91678899E+02</pdfrwt>
<pdfrwt beam="2">  1       -2 0.54769262E-02 0.91678899E+02</pdfrwt>
<totfact> 0.47634995E+04</totfact>
</mgrwt>
</event>
<event>
 6    1  0.2866116E-002  0.9279215E+02  0.7546771E-02  0.1412719E+00
          2   -1    0    0  501    0  0.00000000000E+00  0.00000000000E+00  0.82033942082E+02  0.82033942082E+02  0.00000000000E+00 0. -1.
         -2   -1    0    0    0  501 -0.00000000000E+00 -0.00000000000E+00 -0.40321811537E+02  0.40321811537E+02  0.00000000000E+00 0.  1.
         23    2    1    2    0    0  0.11789484603E+02 -0.50797847855E+01  0.51579688549E+02  0.10616424777E+03  0.91899875261E+02 0.  0.
         13    1    3    3    0    0  0.46163972075E+01 -0.32429002695E+02  0.66547732624E+02  0.74172448095E+02  0.00000000000E+00 0. -1.
        -13    1    3    3    0    0  0.71730873952E+01  0.27349217910E+02 -0.14968044074E+02  0.31991799675E+02  0.00000000000E+00 0.  1.
         22    1    1    2    0    0 -0.11789484603E+02  0.50797847855E+01 -0.98675580044E+01  0.16191505848E+02  0.00000000000E+00 0.  1.
<mgrwt>
<rscale>  0 0.56591580E+02</rscale>
<asrwt>0</asrwt>
<pdfrwt beam="1">  1        2 0.12620606E-01 0.92792151E+02</pdfrwt>
<pdfrwt beam="2">  1       -2 0.62033557E-02 0.92792151E+02</pdfrwt>
<totfact> 0.58161599E+04</totfact>
</mgrwt>
</event>
<event>
 6    1  0.2866116E-002  0.8695177E+02  0.7546771E-02  0.1427205E+00
         -4   -1    0    0    0  501 -0.00000000000E+00  0.00000000000E+00  0.31892591217E+02  0.31892591217E+02  0.00000000000E+00 0.  1.
          4   -1    0    0  501    0  0.00000000000E+00 -0.00000000000E+00 -0.78603840127E+02  0.78603840127E+02  0.00000000000E+00 0. -1.
         23    2    1    2    0    0 -0.12403207736E+02  0.14294102046E+01 -0.44963613143E+02  0.97889409236E+02  0.86050724332E+02 0.  0.
         13    1    3    3    0    0 -0.40938736058E+01 -0.34497774503E+02  0.57230698838E+01  0.35208092474E+02  0.00000000000E+00 0. -1.
        -13    1    3    3    0    0 -0.83093341305E+01  0.35927184708E+02 -0.50686683027E+02  0.62681316762E+02  0.00000000000E+00 0.  1.
         22    1    1    2    0    0  0.12403207736E+02 -0.14294102046E+01 -0.17476357667E+01  0.12607022109E+02  0.00000000000E+00 0.  1.
<mgrwt>
<rscale>  0 0.53525234E+02</rscale>
<asrwt>0</asrwt>
<pdfrwt beam="1">  1        4 0.12092898E-01 0.86951768E+02</pdfrwt>
<pdfrwt beam="2">  1       -4 0.49065525E-02 0.86951768E+02</pdfrwt>
<totfact> 0.19136912E+04</totfact>
</mgrwt>
</event>
<event>
 6    1  0.2866116E-002  0.9901151E+02  0.7546771E-02  0.1337254E+00
         -1   -1    0    0    0  501 -0.00000000000E+00  0.00000000000E+00  0.41792010725E+03  0.41792010725E+03  0.00000000000E+00 0.  1.
          1   -1    0    0  501    0  0.00000000000E+00 -0.00000000000E+00 -0.11052162174E+02  0.11052162174E+02  0.00000000000E+00 0. -1.
         23    2    1    2    0    0 -0.21730287599E+02 -0.29393399118E+02  0.31052032968E+03  0.32592354161E+03  0.92016859995E+02 0.  0.
         11    1    3    3    0    0  0.16072185733E+02 -0.10434970174E+02  0.85109075309E+01  0.20967577441E+02  0.00000000000E+00 0. -1.
        -11    1    3    3    0    0 -0.37802473332E+02 -0.18958428944E+02  0.30200942215E+03  0.30495596417E+03  0.00000000000E+00 0.  1.
         22    1    1    2    0    0  0.21730287599E+02  0.29393399118E+02  0.96347615400E+02  0.10304872781E+03  0.00000000000E+00 0.  1.
<mgrwt>
<rscale>  0 0.77178669E+02</rscale>
<asrwt>0</asrwt>
<pdfrwt beam="1">  1        1 0.17003330E-02 0.99011514E+02</pdfrwt>
<pdfrwt beam="2">  1       -1 0.64295389E-01 0.99011514E+02</pdfrwt>
<totfact> 0.17412990E+04</totfact>
</mgrwt>
</event>
<event>
 6    1  0.2866116E-002  0.9953421E+02  0.7546771E-02  0.1363601E+00
          2   -1    0    0  501    0  0.00000000000E+00  0.00000000000E+00  0.21649284995E+03  0.21649284995E+03  0.00000000000E+00 0. -1.
         -2   -1    0    0    0  501 -0.00000000000E+00 -0.00000000000E+00 -0.18393401244E+02  0.18393401244E+02  0.00000000000E+00 0.  1.
         23    2    1    2    0    0 -0.11998430968E+02 -0.19573439764E+02  0.17986120284E+03  0.20556534565E+03  0.96850282158E+02 0.  0.
         11    1    3    3    0    0  0.24338623602E+02  0.52207924586E+01  0.51738611426E+01  0.25424281934E+02  0.00000000000E+00 0.  1.
        -11    1    3    3    0    0 -0.36337054571E+02 -0.24794232223E+02  0.17468734170E+03  0.18014106371E+03  0.00000000000E+00 0. -1.
         22    1    1    2    0    0  0.11998430968E+02  0.19573439764E+02  0.18238245869E+02  0.29320905550E+02  0.00000000000E+00 0.  1.
<mgrwt>
<rscale>  0 0.68978547E+02</rscale>
<asrwt>0</asrwt>
<pdfrwt beam="1">  1        2 0.33306591E-01 0.99534210E+02</pdfrwt>
<pdfrwt beam="2">  1       -2 0.28297542E-02 0.99534210E+02</pdfrwt>
<totfact> 0.63258987E+04</totfact>
</mgrwt>
</event>
<event>
 6    1  0.2866116E-002  0.7728084E+02  0.7546771E-02  0.1434998E+00
          2   -1    0    0  501    0  0.00000000000E+00  0.00000000000E+00  0.79603999522E+03  0.79603999522E+03  0.00000000000E+00 0. -1.
         -2   -1    0    0    0  501 -0.00000000000E+00 -0.00000000000E+00 -0.38352531239E+01  0.38352531239E+01  0.00000000000E+00 0.  1.
         23    2    1    2    0    0 -0.13611676839E+02  0.80316257399E+01  0.76082843898E+03  0.76474325217E+03  0.75647494409E+02 0.  0.
         13    1    3    3    0    0  0.14371355063E+02  0.26820722240E+02  0.58017232086E+03  0.58096971425E+03  0.00000000000E+00 0.  1.
        -13    1    3    3    0    0 -0.27983031903E+02 -0.18789096500E+02  0.18065611812E+03  0.18377353791E+03  0.00000000000E+00 0. -1.
         22    1    1    2    0    0  0.13611676839E+02 -0.80316257399E+01  0.31376303118E+02  0.35131996182E+02  0.00000000000E+00 0. -1.
<mgrwt>
<rscale>  0 0.51969629E+02</rscale>
<asrwt>0</asrwt>
<pdfrwt beam="1">  1        2 0.12246756E+00 0.77280840E+02</pdfrwt>
<pdfrwt beam="2">  1       -2 0.59003957E-03 0.77280840E+02</pdfrwt>
<totfact> 0.13864118E+05</totfact>
</mgrwt>
</event>
<event>
 6    1  0.2866116E-002  0.9574490E+02  0.7546771E-02  0.1354127E+00
          1   -1    0    0  501    0  0.00000000000E+00  0.00000000000E+00  0.20370067540E+03  0.20370067540E+03  0.00000000000E+00 0. -1.
         -1   -1    0    0    0  501 -0.00000000000E+00 -0.00000000000E+00 -0.20168281023E+02  0.20168281023E+02  0.00000000000E+00 0.  1.
         23    2    1    2    0    0  0.11968182841E+02  0.27785841293E+02  0.12012241341E+03  0.15361145815E+03  0.90839393963E+02 0.  0.
         11    1    3    3    0    0  0.59656161022E+00  0.21620198197E+02 -0.93007759871E+01  0.23543434113E+02  0.00000000000E+00 0.  1.
        -11    1    3    3    0    0  0.11371621231E+02  0.61656430956E+01  0.12942318939E+03  0.13006802404E+03  0.00000000000E+00 0. -1.
         22    1    1    2    0    0 -0.11968182841E+02 -0.27785841293E+02  0.63409980970E+02  0.70257498273E+02  0.00000000000E+00 0.  1.
<mgrwt>
<rscale>  0 0.71784652E+02</rscale>
<asrwt>0</asrwt>
<pdfrwt beam="1">  1        1 0.31338564E-01 0.95744900E+02</pdfrwt>
<pdfrwt beam="2">  1       -1 0.31028126E-02 0.95744900E+02</pdfrwt>
<totfact> 0.45120310E+04</totfact>
</mgrwt>
</event>
<event>
 6    1  0.2866116E-002  0.9842164E+02  0.7546771E-02  0.1334264E+00
          2   -1    0    0  501    0  0.00000000000E+00  0.00000000000E+00  0.11224129257E+04  0.11224129257E+04  0.00000000000E+00 0. -1.
         -2   -1    0    0    0  501 -0.00000000000E+00 -0.00000000000E+00 -0.45802869870E+01  0.45802869870E+01  0.00000000000E+00 0.  1.
         23    2    1    2    0    0  0.17365131776E+02  0.35151889209E+02  0.92456274175E+03  0.92978657946E+03  0.90275228026E+02 0.  0.
         13    1    3    3    0    0  0.40027025573E+02  0.17718891488E+02  0.82604098936E+03  0.82719999879E+03  0.00000000000E+00 0. -1.
        -13    1    3    3    0    0 -0.22661893797E+02  0.17432997721E+02  0.98521752388E+02  0.10258658067E+03  0.00000000000E+00 0.  1.
         22    1    1    2    0    0 -0.17365131776E+02 -0.35151889209E+02  0.19326989695E+03  0.19720663321E+03  0.00000000000E+00 0. -1.
<mgrwt>
<rscale>  0 0.78191468E+02</rscale>
<asrwt>0</asrwt>
<pdfrwt beam="1">  1        2 0.17267869E+00 0.98421644E+02</pdfrwt>
<pdfrwt beam="2">  1       -2 0.70466043E-03 0.98421644E+02</pdfrwt>
<totfact> 0.70998240E+04</totfact>
</mgrwt>
</event>
<event>
 6    1  0.2866116E-002  0.9066466E+02  0.7546771E-02  0.1404629E+00
         -2   -1    0    0    0  501 -0.00000000000E+00  0.00000000000E+00  0.40932977900E+01  0.40932977900E+01  0.00000000000E+00 0.  1.
          2   -1    0    0  501    0  0.00000000000E+00 -0.00000000000E+00 -0.98091875879E+03  0.98091875879E+03  0.00000000000E+00 0. -1.
         23    2    1    2    0    0 -0.15008907504E+02 -0.43190232789E+01 -0.94713371530E+03  0.95146327077E+03  0.89309348340E+02 0.  0.
         13    1    3    3    0    0 -0.22270924751E+02 -0.40564447539E+02 -0.70574357035E+03  0.70725911488E+03  0.00000000000E+00 0. -1.
        -13    1    3    3    0    0  0.72620172474E+01  0.36245424260E+02 -0.24139014496E+03  0.24420415589E+03  0.00000000000E+00 0.  1.
         22    1    1    2    0    0  0.15008907504E+02  0.43190232789E+01 -0.29691745696E+02  0.33548785806E+02  0.00000000000E+00 0.  1.
<mgrwt>
<rscale>  0 0.58409669E+02</rscale>
<asrwt>0</asrwt>
<pdfrwt beam="1">  1        2 0.15091074E+00 0.90664662E+02</pdfrwt>
<pdfrwt beam="2">  1       -2 0.62973743E-03 0.90664662E+02</pdfrwt>
<totfact> 0.99293842E+04</totfact>
</mgrwt>
</event>
<event>
 6    1  0.2866116E-002  0.8974644E+02  0.7546771E-02  0.1422093E+00
         -4   -1    0    0    0  501 -0.00000000000E+00  0.00000000000E+00  0.82113505934E+01  0.82113505934E+01  0.00000000000E+00 0. -1.
          4   -1    0    0  501    0  0.00000000000E+00 -0.00000000000E+00 -0.32995095745E+03  0.32995095745E+03  0.00000000000E+00 0.  1.
         23    2    1    2    0    0  0.11527674119E+02 -0.42238249736E+01 -0.30065248477E+03  0.31376159727E+03  0.88902729766E+02 0.  0.
         11    1    3    3    0    0 -0.73128534297E+01 -0.38810438677E+01 -0.29348360478E+03  0.29360035184E+03  0.00000000000E+00 0.  1.
        -11    1    3    3    0    0  0.18840527548E+02 -0.34278110596E+00 -0.71688799884E+01  0.20161245435E+02  0.00000000000E+00 0. -1.
         22    1    1    2    0    0 -0.11527674119E+02  0.42238249736E+01 -0.21087122091E+02  0.24400710770E+02  0.00000000000E+00 0. -1.
<mgrwt>
<rscale>  0 0.54580455E+02</rscale>
<asrwt>0</asrwt>
<pdfrwt beam="1">  1        4 0.50761681E-01 0.89746439E+02</pdfrwt>
<pdfrwt beam="2">  1       -4 0.12632848E-02 0.89746439E+02</pdfrwt>
<totfact> 0.11218651E+04</totfact>
</mgrwt>
</event>
<event>
 6    1  0.2866116E-002  0.9411044E+02  0.7546771E-02  0.1366135E+00
          2   -1    0    0  501    0  0.00000000000E+00  0.00000000000E+00  0.53983835675E+03  0.53983835675E+03  0.00000000000E+00 0.  1.
         -2   -1    0    0    0  501 -0.00000000000E+00 -0.00000000000E+00 -0.70040663892E+01  0.70040663892E+01  0.00000000000E+00 0. -1.
         23    2    1    2    0    0 -0.25585319632E+02 -0.48263846518E+01  0.45909078752E+03  0.46863752060E+03  0.90437116063E+02 0.  0.
         11    1    3    3    0    0 -0.26082401446E+02 -0.28183910874E+02  0.79093592582E+02  0.87922812084E+02  0.00000000000E+00 0. -1.
        -11    1    3    3    0    0  0.49708181470E+00  0.23357526222E+02  0.37999719493E+03  0.38071470851E+03  0.00000000000E+00 0.  1.
         22    1    1    2    0    0  0.25585319632E+02  0.48263846518E+01  0.73743502842E+02  0.78204902537E+02  0.00000000000E+00 0. -1.
<mgrwt>
<rscale>  0 0.68253395E+02</rscale>
<asrwt>0</asrwt>
<pdfrwt beam="1">  1        2 0.83052022E-01 0.94110438E+02</pdfrwt>
<pdfrwt beam="2">  1       -2 0.10775491E-02 0.94110438E+02</pdfrwt>
<totfact> 0.95344395E+04</totfact>
</mgrwt>
</event>
<event>
 6    1  0.2866116E-002  0.9175157E+02  0.7546771E-02  0.1412686E+00
          2   -1    0    0  501    0  0.00000000000E+00  0.00000000000E+00  0.18782690912E+03  0.18782690912E+03  0.00000000000E+00 0. -1.
         -2   -1    0    0    0  501 -0.00000000000E+00 -0.00000000000E+00 -0.17311909778E+02  0.17311909778E+02  0.00000000000E+00 0.  1.
         23    2    1    2    0    0  0.11627982381E+02 -0.64265206892E+01  0.16827820172E+03  0.19166612778E+03  0.90784586899E+02 0.  0.
         11    1    3    3    0    0  0.58870772768E+01  0.33128586705E+02  0.13654953509E+03  0.14063405160E+03  0.00000000000E+00 0. -1.
        -11    1    3    3    0    0  0.57409051042E+01 -0.39555107395E+02  0.31728666633E+02  0.51032076175E+02  0.00000000000E+00 0.  1.
         22    1    1    2    0    0 -0.11627982381E+02  0.64265206892E+01  0.22367976149E+01  0.13472691119E+02  0.00000000000E+00 0. -1.
<mgrwt>
<rscale>  0 0.56598686E+02</rscale>
<asrwt>0</asrwt>
<pdfrwt beam="1">  1        2 0.28896446E-01 0.91751574E+02</pdfrwt>
<pdfrwt beam="2">  1       -2 0.26633709E-02 0.91751574E+02</pdfrwt>
<totfact> 0.79481416E+04</totfact>
</mgrwt>
</event>
<event>
 6    1  0.2866116E-002  0.9263300E+02  0.7546771E-02  0.1388959E+00
         -4   -1    0    0    0  501 -0.00000000000E+00  0.00000000000E+00  0.12859032659E+03  0.12859032659E+03  0.00000000000E+00 0.  1.
          4   -1    0    0  501    0  0.00000000000E+00 -0.00000000000E+00 -0.24560154930E+02  0.24560154930E+02  0.00000000000E+00 0. -1.
         23    2    1    2    0    0 -0.62666079776E+01 -0.17714233827E+02  0.78314258101E+02  0.12130126386E+03  0.90707271678E+02 0.  0.
         11    1    3    3    0    0  0.20509189106E+02  0.21059231460E+02  0.66522378827E+02  0.72727882908E+02  0.00000000000E+00 0.  1.
        -11    1    3    3    0    0 -0.26775797084E+02 -0.38773465287E+02  0.11791879275E+02  0.48573380948E+02  0.00000000000E+00 0. -1.
         22    1    1    2    0    0  0.62666079776E+01  0.17714233827E+02  0.25715913557E+02  0.31849217662E+02  0.00000000000E+00 0.  1.
<mgrwt>
<rscale>  0 0.62166449E+02</rscale>
<asrwt>0</asrwt>
<pdfrwt beam="1">  1        4 0.37784854E-02 0.92633005E+02</pdfrwt>
<pdfrwt beam="2">  1       -4 0.19783127E-01 0.92633005E+02</pdfrwt>
<totfact> 0.12549509E+04</totfact>
</mgrwt>
</event>
<event>
 6    1  0.2866116E-002  0.9439955E+02  0.7546771E-02  0.1361007E+00
         -3   -1    0    0    0  501 -0.00000000000E+00  0.00000000000E+00  0.10219680641E+02  0.10219680641E+02  0.00000000000E+00 0.  1.
          3   -1    0    0  501    0  0.00000000000E+00 -0.00000000000E+00 -0.48388518036E+03  0.48388518036E+03  0.00000000000E+00 0. -1.
         23    2    1    2    0    0 -0.25412068211E+01 -0.27991938668E+02 -0.44109592229E+03  0.45108412488E+03  0.90118081954E+02 0.  0.
         11    1    3    3    0    0 -0.15415622276E+02 -0.33325539535E+02 -0.64413332704E+02  0.74143849546E+02  0.00000000000E+00 0.  1.
        -11    1    3    3    0    0  0.12874415455E+02  0.53336008668E+01 -0.37668258959E+03  0.37694027533E+03  0.00000000000E+00 0. -1.
         22    1    1    2    0    0  0.25412068211E+01  0.27991938668E+02 -0.32569577427E+02  0.43020736120E+02  0.00000000000E+00 0.  1.
<mgrwt>
<rscale>  0 0.69731863E+02</rscale>
<asrwt>0</asrwt>
<pdfrwt beam="1">  1        3 0.74443869E-01 0.94399550E+02</pdfrwt>
<pdfrwt beam="2">  1       -3 0.15722587E-02 0.94399550E+02</pdfrwt>
<totfact> 0.50777727E+03</totfact>
</mgrwt>
</event>
<event>
 6    1  0.2866116E-002  0.9836602E+02  0.7546771E-02  0.1341407E+00
         -1   -1    0    0    0  501 -0.00000000000E+00  0.00000000000E+00  0.80448436307E+01  0.80448436307E+01  0.00000000000E+00 0.  1.
          1   -1    0    0  501    0  0.00000000000E+00 -0.00000000000E+00 -0.59114896757E+03  0.59114896757E+03  0.00000000000E+00 0. -1.
         23    2    1    2    0    0  0.33494277781E+02 -0.90214536651E+01 -0.49139779436E+03  0.50114635251E+03  0.92046841687E+02 0.  0.
         11    1    3    3    0    0 -0.29283728032E+01 -0.41551258943E+02 -0.32719084481E+03  0.32983167133E+03  0.00000000000E+00 0. -1.
        -11    1    3    3    0    0  0.36422650585E+02  0.32529805278E+02 -0.16420694954E+03  0.17131468117E+03  0.00000000000E+00 0.  1.
         22    1    1    2    0    0 -0.33494277781E+02  0.90214536651E+01 -0.91706329586E+02  0.98047458694E+02  0.00000000000E+00 0.  1.
<mgrwt>
<rscale>  0 0.75801616E+02</rscale>
<asrwt>0</asrwt>
<pdfrwt beam="1">  1        1 0.90946049E-01 0.98366022E+02</pdfrwt>
<pdfrwt beam="2">  1       -1 0.12376675E-02 0.98366022E+02</pdfrwt>
<totfact> 0.44530629E+04</totfact>
</mgrwt>
</event>
<event>
 6    1  0.2866116E-002  0.9712389E+02  0.7546771E-02  0.1395211E+00
          1   -1    0    0  501    0  0.00000000000E+00  0.00000000000E+00  0.88859522261E+03  0.88859522261E+03  0.00000000000E+00 0. -1.
         -1   -1    0    0    0  501 -0.00000000000E+00 -0.00000000000E+00 -0.42190039998E+01  0.42190039998E+01  0.00000000000E+00 0.  1.
         23    2    1    2    0    0  0.91334104006E+01 -0.11579849650E+02  0.84826952744E+03  0.85381159528E+03  0.95997588230E+02 0.  0.
         13    1    3    3    0    0  0.51240371231E+02  0.18228426029E+01  0.37610011924E+03  0.37957897478E+03  0.00000000000E+00 0. -1.
        -13    1    3    3    0    0 -0.42106960830E+02 -0.13402692253E+02  0.47216940820E+03  0.47423262050E+03  0.00000000000E+00 0.  1.
         22    1    1    2    0    0 -0.91334104006E+01  0.11579849650E+02  0.36106691168E+02  0.39002631328E+02  0.00000000000E+00 0. -1.
<mgrwt>
<rscale>  0 0.60628938E+02</rscale>
<asrwt>0</asrwt>
<pdfrwt beam="1">  1        1 0.13670681E+00 0.97123885E+02</pdfrwt>
<pdfrwt beam="2">  1       -1 0.64907825E-03 0.97123885E+02</pdfrwt>
<totfact> 0.61590323E+04</totfact>
</mgrwt>
</event>
<event>
 6    1  0.2866116E-002  0.9448729E+02  0.7546771E-02  0.1358551E+00
          4   -1    0    0  501    0  0.00000000000E+00  0.00000000000E+00  0.90237482114E+02  0.90237482114E+02  0.00000000000E+00 0. -1.
         -4   -1    0    0    0  501 -0.00000000000E+00 -0.00000000000E+00 -0.42588671680E+02  0.42588671680E+02  0.00000000000E+00 0.  1.
         23    2    1    2    0    0  0.29198419663E+02 -0.83306446000E+00  0.40183507004E+02  0.10267698361E+03  0.89858817162E+02 0.  0.
         11    1    3    3    0    0  0.39423291379E+02 -0.28721639855E+02  0.51461383855E+02  0.70904178490E+02  0.00000000000E+00 0. -1.
        -11    1    3    3    0    0 -0.10224871716E+02  0.27888575395E+02 -0.11277876850E+02  0.31772805124E+02  0.00000000000E+00 0.  1.
         22    1    1    2    0    0 -0.29198419663E+02  0.83306446000E+00  0.74653034300E+01  0.30149170180E+02  0.00000000000E+00 0.  1.
<mgrwt>
<rscale>  0 0.70455365E+02</rscale>
<asrwt>0</asrwt>
<pdfrwt beam="1">  1        4 0.13882690E-01 0.94487294E+02</pdfrwt>
<pdfrwt beam="2">  1       -4 0.65521034E-02 0.94487294E+02</pdfrwt>
<totfact> 0.97502170E+03</totfact>
</mgrwt>
</event>
<event>
 6    1  0.2866116E-002  0.1154976E+03  0.7546771E-02  0.1274575E+00
         -1   -1    0    0    0  501 -0.00000000000E+00  0.00000000000E+00  0.10349077422E+03  0.10349077422E+03  0.00000000000E+00 0.  1.
          1   -1    0    0  501    0  0.00000000000E+00 -0.00000000000E+00 -0.93867758695E+02  0.93867758695E+02  0.00000000000E+00 0. -1.
         23    2    1    2    0    0 -0.60740434912E+02  0.39407488765E+02 -0.23293869308E+02  0.11782318284E+03  0.89985262482E+02 0.  0.
         11    1    3    3    0    0 -0.27941985054E+01 -0.51938013027E+01 -0.41945794427E+02  0.42358385090E+02  0.00000000000E+00 0.  1.
        -11    1    3    3    0    0 -0.57946236406E+02  0.44601290068E+02  0.18651925120E+02  0.75464797754E+02  0.00000000000E+00 0. -1.
         22    1    1    2    0    0  0.60740434912E+02 -0.39407488765E+02  0.32916884835E+02  0.79535350073E+02  0.00000000000E+00 0.  1.
<mgrwt>
<rscale>  0 0.10277098E+03</rscale>
<asrwt>0</asrwt>
<pdfrwt beam="1">  1        1 0.14441194E-01 0.11549761E+03</pdfrwt>
<pdfrwt beam="2">  1       -1 0.15921658E-01 0.11549761E+03</pdfrwt>
<totfact> 0.10589558E+04</totfact>
</mgrwt>
</event>
<event>
 6    1  0.2866116E-002  0.1290120E+03  0.7546771E-02  0.1273302E+00
          4   -1    0    0  501    0  0.00000000000E+00  0.00000000000E+00  0.16924769880E+02  0.16924769880E+02  0.00000000000E+00 0. -1.
         -4   -1    0    0    0  501 -0.00000000000E+00 -0.00000000000E+00 -0.50197442244E+03  0.50197442244E+03  0.00000000000E+00 0.  1.
         23    2    1    2    0    0 -0.50291412420E+02 -0.17462743953E+02 -0.37664921381E+03  0.39813152814E+03  0.11751557279E+03 0.  0.
         13    1    3    3    0    0 -0.67781555358E+02  0.29864069435E+02 -0.27276409094E+03  0.28264191337E+03  0.00000000000E+00 0. -1.
        -13    1    3    3    0    0  0.17490142938E+02 -0.47326813387E+02 -0.10388512287E+03  0.11548961477E+03  0.00000000000E+00 0.  1.
         22    1    1    2    0    0  0.50291412420E+02  0.17462743953E+02 -0.10840043875E+03  0.12076766418E+03  0.00000000000E+00 0.  1.
<mgrwt>
<rscale>  0 0.10340124E+03</rscale>
<asrwt>0</asrwt>
<pdfrwt beam="1">  1        4 0.26038110E-02 0.12901195E+03</pdfrwt>
<pdfrwt beam="2">  1       -4 0.77226827E-01 0.12901195E+03</pdfrwt>
<totfact> 0.16890074E+03</totfact>
</mgrwt>
</event>
<event>
 6    1  0.2866116E-002  0.9473719E+02  0.7546771E-02  0.1371709E+00
         -3   -1    0    0    0  501 -0.00000000000E+00  0.00000000000E+00  0.16567108026E+03  0.16567108026E+03  0.00000000000E+00 0.  1.
          3   -1    0    0  501    0  0.00000000000E+00 -0.00000000000E+00 -0.22377697530E+02  0.22377697530E+02  0.00000000000E+00 0. -1.
         23    2    1    2    0    0  0.18145502187E+01 -0.23198981929E+02  0.93599932013E+02  0.13317688700E+03  0.91834909497E+02 0.  0.
         11    1    3    3    0    0  0.22667807910E+02 -0.37985482248E+02  0.94544979554E+01  0.45233990634E+02  0.00000000000E+00 0. -1.
        -11    1    3    3    0    0 -0.20853257691E+02  0.14786500319E+02  0.84145434058E+02  0.87942896363E+02  0.00000000000E+00 0.  1.
         22    1    1    2    0    0 -0.18145502187E+01  0.23198981929E+02  0.49693450712E+02  0.54871890789E+02  0.00000000000E+00 0.  1.
<mgrwt>
<rscale>  0 0.66694301E+02</rscale>
<asrwt>0</asrwt>
<pdfrwt beam="1">  1        3 0.34427228E-02 0.94737194E+02</pdfrwt>
<pdfrwt beam="2">  1       -3 0.25487858E-01 0.94737194E+02</pdfrwt>
<totfact> 0.12398627E+04</totfact>
</mgrwt>
</event>
<event>
 6    1  0.2866116E-002  0.8645004E+02  0.7546771E-02  0.1405670E+00
          4   -1    0    0  501    0  0.00000000000E+00  0.00000000000E+00  0.35632409150E+03  0.35632409150E+03  0.00000000000E+00 0. -1.
         -4   -1    0    0    0  501 -0.00000000000E+00 -0.00000000000E+00 -0.95133659218E+01  0.95133659218E+01  0.00000000000E+00 0.  1.
         23    2    1    2    0    0 -0.17507742293E+02  0.27540087051E+01  0.33094613685E+03  0.34205110041E+03  0.84613853449E+02 0.  0.
         11    1    3    3    0    0 -0.26581247934E+02 -0.28859482274E+02  0.81573443439E+02  0.90518833031E+02  0.00000000000E+00 0.  1.
        -11    1    3    3    0    0  0.90735056409E+01  0.31613490979E+02  0.24937269341E+03  0.25153226738E+03  0.00000000000E+00 0. -1.
         22    1    1    2    0    0  0.17507742293E+02 -0.27540087051E+01  0.15864588731E+02  0.23786357009E+02  0.00000000000E+00 0.  1.
<mgrwt>
<rscale>  0 0.58171246E+02</rscale>
<asrwt>0</asrwt>
<pdfrwt beam="1">  1        4 0.54819081E-01 0.86450042E+02</pdfrwt>
<pdfrwt beam="2">  1       -4 0.14635950E-02 0.86450042E+02</pdfrwt>
<totfact> 0.75991311E+03</totfact>
</mgrwt>
</event>
<event>
 6    1  0.2866116E-002  0.9228602E+02  0.7546771E-02  0.1425351E+00
          2   -1    0    0  501    0  0.00000000000E+00  0.00000000000E+00  0.13468086324E+02  0.13468086324E+02  0.00000000000E+00 0. -1.
         -2   -1    0    0    0  501 -0.00000000000E+00 -0.00000000000E+00 -0.21385451771E+03  0.21385451771E+03  0.00000000000E+00 0.  1.
         23    2    1    2    0    0  0.10717816310E+02 -0.72446285252E+00 -0.15253035691E+03  0.17827568469E+03  0.91658679565E+02 0.  0.
         11    1    3    3    0    0 -0.13531684980E+02 -0.20859794243E+02 -0.25222837976E+01  0.24991987312E+02  0.00000000000E+00 0. -1.
        -11    1    3    3    0    0  0.24249501290E+02  0.20135331390E+02 -0.15000807311E+03  0.15328369738E+03  0.00000000000E+00 0.  1.
         22    1    1    2    0    0 -0.10717816310E+02  0.72446285252E+00 -0.47856074482E+02  0.49046919349E+02  0.00000000000E+00 0.  1.
<mgrwt>
<rscale>  0 0.53904621E+02</rscale>
<asrwt>0</asrwt>
<pdfrwt beam="1">  1        2 0.20720134E-02 0.92286023E+02</pdfrwt>
<pdfrwt beam="2">  1       -2 0.32900693E-01 0.92286023E+02</pdfrwt>
<totfact> 0.38969281E+04</totfact>
</mgrwt>
</event>
<event>
 6    1  0.2866116E-002  0.9901618E+02  0.7546771E-02  0.1332523E+00
         -1   -1    0    0    0  501 -0.00000000000E+00  0.00000000000E+00  0.35422834486E+03  0.35422834486E+03  0.00000000000E+00 0.  1.
          1   -1    0    0  501    0  0.00000000000E+00 -0.00000000000E+00 -0.14373443078E+02  0.14373443078E+02  0.00000000000E+00 0. -1.
         23    2    1    2    0    0 -0.92659753229E+01 -0.38599349205E+02  0.27797771419E+03  0.29508611340E+03  0.90710730790E+02 0.  0.
         11    1    3    3    0    0 -0.79967342856E+01  0.22050480528E+02  0.22491817368E+02  0.32496973694E+02  0.00000000000E+00 0. -1.
        -11    1    3    3    0    0 -0.12692410373E+01 -0.60649829733E+02  0.25548589682E+03  0.26258913971E+03  0.00000000000E+00 0.  1.
         22    1    1    2    0    0  0.92659753229E+01  0.38599349205E+02  0.61877187595E+02  0.73515674536E+02  0.00000000000E+00 0. -1.
<mgrwt>
<rscale>  0 0.78789107E+02</rscale>
<asrwt>0</asrwt>
<pdfrwt beam="1">  1        1 0.22112992E-02 0.99016184E+02</pdfrwt>
<pdfrwt beam="2">  1       -1 0.54496662E-01 0.99016184E+02</pdfrwt>
<totfact> 0.16521429E+04</totfact>
</mgrwt>
</event>
<event>
 6    1  0.2866116E-002  0.9593651E+02  0.7546771E-02  0.1387471E+00
          2   -1    0    0  501    0  0.00000000000E+00  0.00000000000E+00  0.18592496467E+03  0.18592496467E+03  0.00000000000E+00 0. -1.
         -2   -1    0    0    0  501 -0.00000000000E+00 -0.00000000000E+00 -0.23697626355E+02  0.23697626355E+02  0.00000000000E+00 0.  1.
         23    2    1    2    0    0  0.17229990636E+02  0.18157958233E+01  0.16615027002E+03  0.19185860822E+03  0.94359120542E+02 0.  0.
         13    1    3    3    0    0  0.26243597513E+02 -0.25952548116E+02  0.15697558910E+03  0.16125630759E+03  0.00000000000E+00 0. -1.
        -13    1    3    3    0    0 -0.90136068773E+01  0.27768343939E+02  0.91746809211E+01  0.30602300633E+02  0.00000000000E+00 0.  1.
         22    1    1    2    0    0 -0.17229990636E+02 -0.18157958233E+01 -0.39229317070E+01  0.17763982801E+02  0.00000000000E+00 0. -1.
<mgrwt>
<rscale>  0 0.62540130E+02</rscale>
<asrwt>0</asrwt>
<pdfrwt beam="1">  1        2 0.28603840E-01 0.95936507E+02</pdfrwt>
<pdfrwt beam="2">  1       -2 0.36457888E-02 0.95936507E+02</pdfrwt>
<totfact> 0.51162099E+04</totfact>
</mgrwt>
</event>
<event>
 6    1  0.2866116E-002  0.9580009E+02  0.7546771E-02  0.1383994E+00
         -2   -1    0    0    0  501 -0.00000000000E+00  0.00000000000E+00  0.63682827295E+02  0.63682827295E+02  0.00000000000E+00 0.  1.
          2   -1    0    0  501    0  0.00000000000E+00 -0.00000000000E+00 -0.73397509253E+02  0.73397509253E+02  0.00000000000E+00 0. -1.
         23    2    1    2    0    0  0.15924875339E+02  0.92289834282E+01 -0.38225246419E+02  0.10314469046E+03  0.94015328091E+02 0.  0.
         13    1    3    3    0    0  0.45828467225E+02  0.25983722825E+02 -0.43681167904E+02  0.68435712092E+02  0.00000000000E+00 0. -1.
        -13    1    3    3    0    0 -0.29903591886E+02 -0.16754739397E+02  0.54559214851E+01  0.34708978365E+02  0.00000000000E+00 0.  1.
         22    1    1    2    0    0 -0.15924875339E+02 -0.92289834282E+01  0.28510564461E+02  0.33935646091E+02  0.00000000000E+00 0.  1.
<mgrwt>
<rscale>  0 0.63425440E+02</rscale>
<asrwt>0</asrwt>
<pdfrwt beam="1">  1        2 0.11291924E-01 0.95800092E+02</pdfrwt>
<pdfrwt beam="2">  1       -2 0.97973581E-02 0.95800092E+02</pdfrwt>
<totfact> 0.33165333E+04</totfact>
</mgrwt>
</event>
<event>
 6    1  0.2866116E-002  0.9321101E+02  0.7546771E-02  0.1398473E+00
         -2   -1    0    0    0  501 -0.00000000000E+00  0.00000000000E+00  0.19391548037E+01  0.19391548037E+01  0.00000000000E+00 0.  1.
          2   -1    0    0  501    0  0.00000000000E+00 -0.00000000000E+00 -0.21991821681E+04  0.21991821681E+04  0.00000000000E+00 0. -1.
         23    2    1    2    0    0  0.51091369667E+01 -0.14994312367E+02 -0.21299652649E+04  0.21320038279E+04  0.91855102717E+02 0.  0.
         11    1    3    3    0    0  0.35202397035E+02  0.46980996765E+01 -0.17452337067E+04  0.17455950194E+04  0.00000000000E+00 0. -1.
        -11    1    3    3    0    0 -0.30093260068E+02 -0.19692412043E+02 -0.38473155819E+03  0.38640880847E+03  0.00000000000E+00 0.  1.
         22    1    1    2    0    0 -0.51091369667E+01  0.14994312367E+02 -0.67277748438E+02  0.69117495027E+02  0.00000000000E+00 0.  1.
<mgrwt>
<rscale>  0 0.59847370E+02</rscale>
<asrwt>0</asrwt>
<pdfrwt beam="1">  1        2 0.33833725E+00 0.93211011E+02</pdfrwt>
<pdfrwt beam="2">  1       -2 0.29833016E-03 0.93211011E+02</pdfrwt>
<totfact> 0.65815561E+04</totfact>
</mgrwt>
</event>
<event>
 6    1  0.2866116E-002  0.9119529E+02  0.7546771E-02  0.1408234E+00
          2   -1    0    0  501    0  0.00000000000E+00  0.00000000000E+00  0.15014580277E+04  0.15014580277E+04  0.00000000000E+00 0. -1.
         -2   -1    0    0    0  501 -0.00000000000E+00 -0.00000000000E+00 -0.21968962109E+01  0.21968962109E+01  0.00000000000E+00 0.  1.
         23    2    1    2    0    0 -0.64843999593E+01 -0.12972977443E+02  0.14292967003E+04  0.14322030715E+04  0.90034631312E+02 0.  0.
         13    1    3    3    0    0 -0.26602008253E+02 -0.13121011583E+02  0.13521818750E+04  0.13525071722E+04  0.00000000000E+00 0. -1.
        -13    1    3    3    0    0  0.20117608294E+02  0.14803414034E+00  0.77114825294E+02  0.79695899253E+02  0.00000000000E+00 0.  1.
         22    1    1    2    0    0  0.64843999593E+01  0.12972977443E+02  0.69964431213E+02  0.71451852471E+02  0.00000000000E+00 0.  1.
<mgrwt>
<rscale>  0 0.57589853E+02</rscale>
<asrwt>0</asrwt>
<pdfrwt beam="1">  1        2 0.23099272E+00 0.91195287E+02</pdfrwt>
<pdfrwt beam="2">  1       -2 0.33798523E-03 0.91195287E+02</pdfrwt>
<totfact> 0.12407718E+05</totfact>
</mgrwt>
</event>
<event>
 6    1  0.2866116E-002  0.9417508E+02  0.7546771E-02  0.1374418E+00
         -2   -1    0    0    0  501 -0.00000000000E+00  0.00000000000E+00  0.70789023214E+01  0.70789023214E+01  0.00000000000E+00 0.  1.
          2   -1    0    0  501    0  0.00000000000E+00 -0.00000000000E+00 -0.51899077779E+03  0.51899077779E+03  0.00000000000E+00 0. -1.
         23    2    1    2    0    0  0.21667626262E+02  0.66147649161E+01 -0.45815896908E+03  0.46773773271E+03  0.91409542756E+02 0.  0.
         11    1    3    3    0    0  0.57315318564E+02  0.99619564272E+00 -0.30926872206E+03  0.31453645352E+03  0.00000000000E+00 0. -1.
        -11    1    3    3    0    0 -0.35647692302E+02  0.56185692734E+01 -0.14889024702E+03  0.15320127919E+03  0.00000000000E+00 0.  1.
         22    1    1    2    0    0 -0.21667626262E+02 -0.66147649161E+01 -0.53752906388E+02  0.58331947404E+02  0.00000000000E+00 0. -1.
<mgrwt>
<rscale>  0 0.65954158E+02</rscale>
<asrwt>0</asrwt>
<pdfrwt beam="1">  1        2 0.79844731E-01 0.94175080E+02</pdfrwt>
<pdfrwt beam="2">  1       -2 0.10890620E-02 0.94175080E+02</pdfrwt>
<totfact> 0.98057058E+04</totfact>
</mgrwt>
</event>
<event>
 6    1  0.2866116E-002  0.1185385E+03  0.7546771E-02  0.1267029E+00
         -2   -1    0    0    0  501 -0.00000000000E+00  0.00000000000E+00  0.90612034176E+01  0.90612034176E+01  0.00000000000E+00 0.  1.
          2   -1    0    0  501    0  0.00000000000E+00 -0.00000000000E+00 -0.10601892583E+04  0.10601892583E+04  0.00000000000E+00 0. -1.
         23    2    1    2    0    0 -0.74773539783E+02  0.20303789180E+02 -0.63127993893E+03  0.64231280049E+03  0.89710903849E+02 0.  0.
         13    1    3    3    0    0 -0.72319501886E+02  0.41273473326E+02 -0.59097993415E+03  0.59681730246E+03  0.00000000000E+00 0. -1.
        -13    1    3    3    0    0 -0.24540378969E+01 -0.20969684146E+02 -0.40300004781E+02  0.45495498025E+02  0.00000000000E+00 0.  1.
         22    1    1    2    0    0  0.74773539783E+02 -0.20303789180E+02 -0.41984811595E+03  0.42693766123E+03  0.00000000000E+00 0.  1.
<mgrwt>
<rscale>  0 0.10658437E+03</rscale>
<asrwt>0</asrwt>
<pdfrwt beam="1">  1        2 0.16310611E+00 0.11853848E+03</pdfrwt>
<pdfrwt beam="2">  1       -2 0.13940307E-02 0.11853848E+03</pdfrwt>
<totfact> 0.29734492E+04</totfact>
</mgrwt>
</event>
<event>
 6    1  0.2866116E-002  0.9498461E+02  0.7546771E-02  0.1373591E+00
         -2   -1    0    0    0  501 -0.00000000000E+00  0.00000000000E+00  0.21374737855E+02  0.21374737855E+02  0.00000000000E+00 0.  1.
          2   -1    0    0  501    0  0.00000000000E+00 -0.00000000000E+00 -0.18235971830E+03  0.18235971830E+03  0.00000000000E+00 0. -1.
         23    2    1    2    0    0 -0.17644431944E+02  0.13771912960E+02 -0.96194824127E+02  0.13518698413E+03  0.92309722804E+02 0.  0.
         13    1    3    3    0    0 -0.21200296305E+02 -0.31411786647E+02 -0.77286389414E+02  0.86077516765E+02  0.00000000000E+00 0.  1.
        -13    1    3    3    0    0  0.35558643615E+01  0.45183699607E+02 -0.18908434713E+02  0.49109467365E+02  0.00000000000E+00 0. -1.
         22    1    1    2    0    0  0.17644431944E+02 -0.13771912960E+02 -0.64790156317E+02  0.68547472023E+02  0.00000000000E+00 0. -1.
<mgrwt>
<rscale>  0 0.66178778E+02</rscale>
<asrwt>0</asrwt>
<pdfrwt beam="1">  1        2 0.28055340E-01 0.94984612E+02</pdfrwt>
<pdfrwt beam="2">  1       -2 0.32884214E-02 0.94984612E+02</pdfrwt>
<totfact> 0.60673558E+04</totfact>
</mgrwt>
</event>
<event>
 6    1  0.2866116E-002  0.9974733E+02  0.7546771E-02  0.1352634E+00
         -2   -1    0    0    0  501 -0.00000000000E+00  0.00000000000E+00  0.13724494131E+03  0.13724494131E+03  0.00000000000E+00 0. -1.
          2   -1    0    0  501    0  0.00000000000E+00 -0.00000000000E+00 -0.33876302414E+02  0.33876302414E+02  0.00000000000E+00 0.  1.
         23    2    1    2    0    0 -0.18256048615E+02 -0.20490082010E+02  0.51073256315E+02  0.11206251184E+03  0.95897874213E+02 0.  0.
         13    1    3    3    0    0 -0.53291781312E+02  0.83082253282E+01  0.22372675363E+02  0.58391584723E+02  0.00000000000E+00 0.  1.
        -13    1    3    3    0    0  0.35035732697E+02 -0.28798307339E+02  0.28700580952E+02  0.53670927122E+02  0.00000000000E+00 0. -1.
         22    1    1    2    0    0  0.18256048615E+02  0.20490082010E+02  0.52295382584E+02  0.59058731882E+02  0.00000000000E+00 0. -1.
<mgrwt>
<rscale>  0 0.72241118E+02</rscale>
<asrwt>0</asrwt>
<pdfrwt beam="1">  1        2 0.52117389E-02 0.99747326E+02</pdfrwt>
<pdfrwt beam="2">  1       -2 0.21114606E-01 0.99747326E+02</pdfrwt>
<totfact> 0.25250270E+04</totfact>
</mgrwt>
</event>
<event>
 6    1  0.2866116E-002  0.9547814E+02  0.7546771E-02  0.1418835E+00
         -2   -1    0    0    0  501 -0.00000000000E+00  0.00000000000E+00  0.30794432493E+03  0.30794432493E+03  0.00000000000E+00 0.  1.
          2   -1    0    0  501    0  0.00000000000E+00 -0.00000000000E+00 -0.93808316880E+01  0.93808316880E+01  0.00000000000E+00 0. -1.
         23    2    1    2    0    0  0.89630848563E+01  0.58804417487E+01  0.25045787904E+03  0.26803959481E+03  0.94874436629E+02 0.  0.
         13    1    3    3    0    0 -0.85120593982E+00  0.26435271822E+02  0.12962822705E+02  0.29454760572E+02  0.00000000000E+00 0. -1.
        -13    1    3    3    0    0  0.98142907961E+01 -0.20554830073E+02  0.23749505634E+03  0.23858483424E+03  0.00000000000E+00 0.  1.
         22    1    1    2    0    0 -0.89630848563E+01 -0.58804417487E+01  0.48105614196E+02  0.49285561806E+02  0.00000000000E+00 0. -1.
<mgrwt>
<rscale>  0 0.55268255E+02</rscale>
<asrwt>0</asrwt>
<pdfrwt beam="1">  1        2 0.14432051E-02 0.95478140E+02</pdfrwt>
<pdfrwt beam="2">  1       -2 0.47376042E-01 0.95478140E+02</pdfrwt>
<totfact> 0.32277647E+04</totfact>
</mgrwt>
</event>
<event>
 6    1  0.2866116E-002  0.9235920E+02  0.7546771E-02  0.1421156E+00
         -2   -1    0    0    0  501 -0.00000000000E+00  0.00000000000E+00  0.17507493443E+03  0.17507493443E+03  0.00000000000E+00 0. -1.
          2   -1    0    0  501    0  0.00000000000E+00 -0.00000000000E+00 -0.18123338385E+02  0.18123338385E+02  0.00000000000E+00 0.  1.
         23    2    1    2    0    0  0.48734887265E+00  0.11417195802E+02  0.10427524627E+03  0.13929662447E+03  0.91649510280E+02 0.  0.
         13    1    3    3    0    0  0.31580025887E+02 -0.73731828686E+01  0.40390600224E+01  0.32679900038E+02  0.00000000000E+00 0.  1.
        -13    1    3    3    0    0 -0.31092677015E+02  0.18790378671E+02  0.10023618625E+03  0.10661672443E+03  0.00000000000E+00 0. -1.
         22    1    1    2    0    0 -0.48734887265E+00 -0.11417195802E+02  0.52676349775E+02  0.53901648347E+02  0.00000000000E+00 0. -1.
<mgrwt>
<rscale>  0 0.54777073E+02</rscale>
<asrwt>0</asrwt>
<pdfrwt beam="1">  1        2 0.27882060E-02 0.92359204E+02</pdfrwt>
<pdfrwt beam="2">  1       -2 0.26934604E-01 0.92359204E+02</pdfrwt>
<totfact> 0.37383155E+04</totfact>
</mgrwt>
</event>
<event>
 6    1  0.2866116E-002  0.9514220E+02  0.7546771E-02  0.1379632E+00
          2   -1    0    0  501    0  0.00000000000E+00  0.00000000000E+00  0.13893348645E+04  0.13893348645E+04  0.00000000000E+00 0. -1.
         -2   -1    0    0    0  501 -0.00000000000E+00 -0.00000000000E+00 -0.26857391348E+01  0.26857391348E+01  0.00000000000E+00 0.  1.
         23    2    1    2    0    0 -0.16921211793E+02 -0.10980857453E+02  0.12764191474E+04  0.12799601080E+04  0.92979199780E+02 0.  0.
         13    1    3    3    0    0  0.28333604593E+02 -0.34015115037E+02  0.62275603392E+03  0.62432755745E+03  0.00000000000E+00 0. -1.
        -13    1    3    3    0    0 -0.45254816386E+02  0.23034257584E+02  0.65366311349E+03  0.65563255057E+03  0.00000000000E+00 0.  1.
         22    1    1    2    0    0  0.16921211793E+02  0.10980857453E+02  0.11022997796E+03  0.11206049563E+03  0.00000000000E+00 0. -1.
<mgrwt>
<rscale>  0 0.64560478E+02</rscale>
<asrwt>0</asrwt>
<pdfrwt beam="1">  1        2 0.21374325E+00 0.95142200E+02</pdfrwt>
<pdfrwt beam="2">  1       -2 0.41319175E-03 0.95142200E+02</pdfrwt>
<totfact> 0.10760006E+05</totfact>
</mgrwt>
</event>
<event>
 6    1  0.2866116E-002  0.9403356E+02  0.7546771E-02  0.1382977E+00
         -2   -1    0    0    0  501 -0.00000000000E+00  0.00000000000E+00  0.36039569255E+01  0.36039569255E+01  0.00000000000E+00 0.  1.
          2   -1    0    0  501    0  0.00000000000E+00 -0.00000000000E+00 -0.18298291613E+04  0.18298291613E+04  0.00000000000E+00 0. -1.
         23    2    1    2    0    0  0.56080568224E+01  0.18975193114E+02 -0.17872592134E+04  0.17897312109E+04  0.91928249001E+02 0.  0.
         11    1    3    3    0    0  0.18268788942E+02  0.10259205977E+02 -0.90166109364E+02  0.92568500228E+02  0.00000000000E+00 0.  1.
        -11    1    3    3    0    0 -0.12660732119E+02  0.87159871367E+01 -0.16970931040E+04  0.16971627106E+04  0.00000000000E+00 0. -1.
         22    1    1    2    0    0 -0.56080568224E+01 -0.18975193114E+02 -0.38965990941E+02  0.43701907339E+02  0.00000000000E+00 0.  1.
<mgrwt>
<rscale>  0 0.63687586E+02</rscale>
<asrwt>0</asrwt>
<pdfrwt beam="1">  1        2 0.28151228E+00 0.94033564E+02</pdfrwt>
<pdfrwt beam="2">  1       -2 0.55445472E-03 0.94033564E+02</pdfrwt>
<totfact> 0.42503682E+04</totfact>
</mgrwt>
</event>
<event>
 6    1  0.2866116E-002  0.9271867E+02  0.7546771E-02  0.1427278E+00
         -2   -1    0    0    0  501 -0.00000000000E+00  0.00000000000E+00  0.32563630551E+01  0.32563630551E+01  0.00000000000E+00 0.  1.
          2   -1    0    0  501    0  0.00000000000E+00 -0.00000000000E+00 -0.88370749021E+03  0.88370749021E+03  0.00000000000E+00 0. -1.
         23    2    1    2    0    0 -0.99938447205E+01 -0.24342405932E+01 -0.84436417042E+03  0.84943958237E+03  0.92146347483E+02 0.  0.
         11    1    3    3    0    0 -0.25171108856E+02 -0.15435765715E+02 -0.88197151742E+02  0.93008521973E+02  0.00000000000E+00 0.  1.
        -11    1    3    3    0    0  0.15177264135E+02  0.13001525122E+02 -0.75616701868E+03  0.75643106040E+03  0.00000000000E+00 0. -1.
         22    1    1    2    0    0  0.99938447205E+01  0.24342405932E+01 -0.36086956739E+02  0.37524270895E+02  0.00000000000E+00 0.  1.
<mgrwt>
<rscale>  0 0.53510298E+02</rscale>
<asrwt>0</asrwt>
<pdfrwt beam="1">  1        2 0.13595511E+00 0.92718670E+02</pdfrwt>
<pdfrwt beam="2">  1       -2 0.50097854E-03 0.92718670E+02</pdfrwt>
<totfact> 0.15732875E+05</totfact>
</mgrwt>
</event>
<event>
 6    1  0.2866116E-002  0.9345281E+02  0.7546771E-02  0.1385898E+00
         -2   -1    0    0    0  501 -0.00000000000E+00  0.00000000000E+00  0.48525073873E+02  0.48525073873E+02  0.00000000000E+00 0.  1.
          2   -1    0    0  501    0  0.00000000000E+00 -0.00000000000E+00 -0.77476301059E+02  0.77476301059E+02  0.00000000000E+00 0. -1.
         23    2    1    2    0    0 -0.17021573720E+02 -0.89392687056E+01 -0.42315480213E+02  0.10258668391E+03  0.91453722463E+02 0.  0.
         11    1    3    3    0    0 -0.54318365913E+02 -0.11206181118E+01 -0.17364381343E+02  0.57037377217E+02  0.00000000000E+00 0.  1.
        -11    1    3    3    0    0  0.37296792193E+02 -0.78186505938E+01 -0.24951098870E+02  0.45549306689E+02  0.00000000000E+00 0. -1.
         22    1    1    2    0    0  0.17021573720E+02  0.89392687056E+01  0.13364253027E+02  0.23414691026E+02  0.00000000000E+00 0. -1.
<mgrwt>
<rscale>  0 0.62938633E+02</rscale>
<asrwt>0</asrwt>
<pdfrwt beam="1">  1        2 0.11919431E-01 0.93452811E+02</pdfrwt>
<pdfrwt beam="2">  1       -2 0.74653961E-02 0.93452811E+02</pdfrwt>
<totfact> 0.47076315E+04</totfact>
</mgrwt>
</event>
<event>
 6    1  0.2866116E-002  0.9781908E+02  0.7546771E-02  0.1377950E+00
         -2   -1    0    0    0  501 -0.00000000000E+00  0.00000000000E+00  0.13740273956E+02  0.13740273956E+02  0.00000000000E+00 0.  1.
          2   -1    0    0  501    0  0.00000000000E+00 -0.00000000000E+00 -0.24881636211E+03  0.24881636211E+03  0.00000000000E+00 0. -1.
         23    2    1    2    0    0 -0.15714856322E+02 -0.10817448022E+02 -0.19399164129E+03  0.21725867071E+03  0.95940602557E+02 0.  0.
         11    1    3    3    0    0 -0.42932238136E+02 -0.38407677344E+02 -0.13374572399E+03  0.14562364312E+03  0.00000000000E+00 0. -1.
        -11    1    3    3    0    0  0.27217381814E+02  0.27590229322E+02 -0.60245917292E+02  0.71635027586E+02  0.00000000000E+00 0.  1.
         22    1    1    2    0    0  0.15714856322E+02  0.10817448022E+02 -0.41084446865E+02  0.45297965353E+02  0.00000000000E+00 0. -1.
<mgrwt>
<rscale>  0 0.65005705E+02</rscale>
<asrwt>0</asrwt>
<pdfrwt beam="1">  1        2 0.38279437E-01 0.97819084E+02</pdfrwt>
<pdfrwt beam="2">  1       -2 0.21138885E-02 0.97819084E+02</pdfrwt>
<totfact> 0.83075019E+04</totfact>
</mgrwt>
</event>
<event>
 6    1  0.2866116E-002  0.9347358E+02  0.7546771E-02  0.1391457E+00
          4   -1    0    0  501    0  0.00000000000E+00  0.00000000000E+00  0.13109304629E+02  0.13109304629E+02  0.00000000000E+00 0. -1.
         -4   -1    0    0    0  501 -0.00000000000E+00 -0.00000000000E+00 -0.25369016442E+03  0.25369016442E+03  0.00000000000E+00 0.  1.
         23    2    1    2    0    0  0.17550984103E+02 -0.77340308616E+00 -0.16934901705E+03  0.19343319195E+03  0.91807815443E+02 0.  0.
         13    1    3    3    0    0 -0.15906378284E+02  0.21878102370E+02 -0.14221252233E+03  0.14476210050E+03  0.00000000000E+00 0.  1.
        -13    1    3    3    0    0  0.33457362386E+02 -0.22651505456E+02 -0.27136494721E+02  0.48671091451E+02  0.00000000000E+00 0. -1.
         22    1    1    2    0    0 -0.17550984103E+02  0.77340308616E+00 -0.71231842741E+02  0.73366277101E+02  0.00000000000E+00 0.  1.
<mgrwt>
<rscale>  0 0.61545647E+02</rscale>
<asrwt>0</asrwt>
<pdfrwt beam="1">  1        4 0.20168161E-02 0.93473580E+02</pdfrwt>
<pdfrwt beam="2">  1       -4 0.39029256E-01 0.93473580E+02</pdfrwt>
<totfact> 0.94121647E+03</totfact>
</mgrwt>
</event>
<event>
 6    1  0.2866116E-002  0.8945136E+02  0.7546771E-02  0.1428915E+00
          2   -1    0    0  501    0  0.00000000000E+00  0.00000000000E+00  0.31527459526E+03  0.31527459526E+03  0.00000000000E+00 0. -1.
         -2   -1    0    0    0  501 -0.00000000000E+00 -0.00000000000E+00 -0.82207584713E+01  0.82207584713E+01  0.00000000000E+00 0.  1.
         23    2    1    2    0    0 -0.68107088445E+01 -0.88575279442E+01  0.28597185186E+03  0.29963552044E+03  0.88750794340E+02 0.  0.
         13    1    3    3    0    0  0.22954970953E+02  0.70151275453E+01  0.24669905682E+03  0.24786400978E+03  0.00000000000E+00 0. -1.
        -13    1    3    3    0    0 -0.29765679798E+02 -0.15872655490E+02  0.39272795040E+02  0.51771510664E+02  0.00000000000E+00 0.  1.
         22    1    1    2    0    0  0.68107088445E+01  0.88575279442E+01  0.21081984932E+02  0.23859833296E+02  0.00000000000E+00 0.  1.
<mgrwt>
<rscale>  0 0.53178379E+02</rscale>
<asrwt>0</asrwt>
<pdfrwt beam="1">  1        2 0.48503775E-01 0.89451356E+02</pdfrwt>
<pdfrwt beam="2">  1       -2 0.12647323E-02 0.89451356E+02</pdfrwt>
<totfact> 0.13338392E+05</totfact>
</mgrwt>
</event>
<event>
 6    1  0.2866116E-002  0.9282393E+02  0.7546771E-02  0.1380578E+00
         -1   -1    0    0    0  501 -0.00000000000E+00  0.00000000000E+00  0.12676876280E+03  0.12676876280E+03  0.00000000000E+00 0.  1.
          1   -1    0    0  501    0  0.00000000000E+00 -0.00000000000E+00 -0.26631690831E+02  0.26631690831E+02  0.00000000000E+00 0. -1.
         23    2    1    2    0    0 -0.14595048338E+02 -0.15635467639E+02  0.91480080912E+02  0.13032607870E+03  0.90326066564E+02 0.  0.
         13    1    3    3    0    0 -0.45485836712E+02 -0.38474932812E+01  0.16778022620E+02  0.48634006507E+02  0.00000000000E+00 0. -1.
        -13    1    3    3    0    0  0.30890788374E+02 -0.11787974358E+02  0.74702058292E+02  0.81692072191E+02  0.00000000000E+00 0.  1.
         22    1    1    2    0    0  0.14595048338E+02  0.15635467639E+02  0.86569910538E+01  0.23074374929E+02  0.00000000000E+00 0. -1.
<mgrwt>
<rscale>  0 0.64311977E+02</rscale>
<asrwt>0</asrwt>
<pdfrwt beam="1">  1        1 0.40971833E-02 0.92823928E+02</pdfrwt>
<pdfrwt beam="2">  1       -1 0.19502886E-01 0.92823928E+02</pdfrwt>
<totfact> 0.40098677E+04</totfact>
</mgrwt>
</event>
<event>
 6    1  0.2866116E-002  0.9274792E+02  0.7546771E-02  0.1417150E+00
          2   -1    0    0  501    0  0.00000000000E+00  0.00000000000E+00  0.37172241326E+03  0.37172241326E+03  0.00000000000E+00 0. -1.
         -2   -1    0    0    0  501 -0.00000000000E+00 -0.00000000000E+00 -0.84417661174E+01  0.84417661174E+01  0.00000000000E+00 0.  1.
         23    2    1    2    0    0 -0.80570688375E+01 -0.88964948275E+01  0.35077904451E+03  0.36283345386E+03  0.91968000936E+02 0.  0.
         11    1    3    3    0    0  0.13978326622E+00  0.42291255446E+01 -0.50950674013E+01  0.66230471882E+01  0.00000000000E+00 0.  1.
        -11    1    3    3    0    0 -0.81968521037E+01 -0.13125620372E+02  0.35587411191E+03  0.35621040667E+03  0.00000000000E+00 0. -1.
         22    1    1    2    0    0  0.80570688375E+01  0.88964948275E+01  0.12501602632E+02  0.17330725513E+02  0.00000000000E+00 0.  1.
<mgrwt>
<rscale>  0 0.55628528E+02</rscale>
<asrwt>0</asrwt>
<pdfrwt beam="1">  1        2 0.57188051E-01 0.92747923E+02</pdfrwt>
<pdfrwt beam="2">  1       -2 0.12987335E-02 0.92747923E+02</pdfrwt>
<totfact> 0.10870604E+05</totfact>
</mgrwt>
</event>
<event>
 6    1  0.2866116E-002  0.9094500E+02  0.7546771E-02  0.1425899E+00
         -1   -1    0    0    0  501 -0.00000000000E+00  0.00000000000E+00  0.18148557536E+03  0.18148557536E+03  0.00000000000E+00 0.  1.
          1   -1    0    0  501    0  0.00000000000E+00 -0.00000000000E+00 -0.14495093638E+02  0.14495093638E+02  0.00000000000E+00 0. -1.
         23    2    1    2    0    0  0.14534982694E+01  0.11035802240E+02  0.14204896890E+03  0.16866802266E+03  0.90261235937E+02 0.  0.
         11    1    3    3    0    0 -0.34986232773E+02  0.32339373158E+02  0.88221025245E+02  0.10026375634E+03  0.00000000000E+00 0.  1.
        -11    1    3    3    0    0  0.36439731042E+02 -0.21303570918E+02  0.53827943659E+02  0.68404266321E+02  0.00000000000E+00 0. -1.
         22    1    1    2    0    0 -0.14534982694E+01 -0.11035802240E+02  0.24941512815E+02  0.27312646335E+02  0.00000000000E+00 0.  1.
<mgrwt>
<rscale>  0 0.53792127E+02</rscale>
<asrwt>0</asrwt>
<pdfrwt beam="1">  1        1 0.22300145E-02 0.90944996E+02</pdfrwt>
<pdfrwt beam="2">  1       -1 0.27920856E-01 0.90944996E+02</pdfrwt>
<totfact> 0.51513514E+04</totfact>
</mgrwt>
</event>
<event>
 6    1  0.2866116E-002  0.9406689E+02  0.7546771E-02  0.1380356E+00
          3   -1    0    0  501    0  0.00000000000E+00  0.00000000000E+00  0.30845276583E+02  0.30845276583E+02  0.00000000000E+00 0. -1.
         -3   -1    0    0    0  501 -0.00000000000E+00 -0.00000000000E+00 -0.11695884384E+03  0.11695884384E+03  0.00000000000E+00 0.  1.
         23    2    1    2    0    0 -0.72208470885E+01  0.19321644807E+02 -0.50799488935E+02  0.10690729025E+03  0.91777524706E+02 0.  0.
         13    1    3    3    0    0 -0.28513868311E+02 -0.20209527617E+02 -0.51215875294E+02  0.62004286744E+02  0.00000000000E+00 0.  1.
        -13    1    3    3    0    0  0.21293021222E+02  0.39531172424E+02  0.41638635847E+00  0.44903003503E+02  0.00000000000E+00 0. -1.
         22    1    1    2    0    0  0.72208470885E+01 -0.19321644807E+02 -0.35314078319E+02  0.40896830173E+02  0.00000000000E+00 0.  1.
<mgrwt>
<rscale>  0 0.64370338E+02</rscale>
<asrwt>0</asrwt>
<pdfrwt beam="1">  1        3 0.47454272E-02 0.94066894E+02</pdfrwt>
<pdfrwt beam="2">  1       -3 0.17993668E-01 0.94066894E+02</pdfrwt>
<totfact> 0.13878512E+04</totfact>
</mgrwt>
</event>
<event>
 6    1  0.2866116E-002  0.9573944E+02  0.7546771E-02  0.1395713E+00
         -1   -1    0    0    0  501 -0.00000000000E+00  0.00000000000E+00  0.47447538974E+02  0.47447538974E+02  0.00000000000E+00 0.  1.
          1   -1    0    0  501    0  0.00000000000E+00 -0.00000000000E+00 -0.16302700425E+03  0.16302700425E+03  0.00000000000E+00 0. -1.
         23    2    1    2    0    0 -0.88154532136E+01 -0.12474006607E+02 -0.14706320742E+03  0.17548112848E+03  0.94513101849E+02 0.  0.
         11    1    3    3    0    0  0.38996605094E+02 -0.20458356620E+02 -0.47671450035E+02  0.64898741998E+02  0.00000000000E+00 0.  1.
        -11    1    3    3    0    0 -0.47812058308E+02  0.79843500129E+01 -0.99391757385E+02  0.11058238649E+03  0.00000000000E+00 0. -1.
         22    1    1    2    0    0  0.88154532136E+01  0.12474006607E+02  0.31483742141E+02  0.34993414743E+02  0.00000000000E+00 0.  1.
<mgrwt>
<rscale>  0 0.60507684E+02</rscale>
<asrwt>0</asrwt>
<pdfrwt beam="1">  1        1 0.25081078E-01 0.95739435E+02</pdfrwt>
<pdfrwt beam="2">  1       -1 0.72996214E-02 0.95739435E+02</pdfrwt>
<totfact> 0.16976979E+04</totfact>
</mgrwt>
</event>
<event>
 6    1  0.2866116E-002  0.9830328E+02  0.7546771E-02  0.1354974E+00
          2   -1    0    0  501    0  0.00000000000E+00  0.00000000000E+00  0.17252576401E+04  0.17252576401E+04  0.00000000000E+00 0. -1.
         -2   -1    0    0    0  501 -0.00000000000E+00 -0.00000000000E+00 -0.57515587375E+01  0.57515587375E+01  0.00000000000E+00 0.  1.
         23    2    1    2    0    0 -0.66504878782E+01  0.26739999001E+02  0.16798273924E+04  0.16827012813E+04  0.94362478844E+02 0.  0.
         11    1    3    3    0    0  0.18363890698E+02  0.29537933979E+02  0.15535749521E+04  0.15539642383E+04  0.00000000000E+00 0. -1.
        -11    1    3    3    0    0 -0.25014378577E+02 -0.27979349785E+01  0.12625244029E+03  0.12873704305E+03  0.00000000000E+00 0.  1.
         22    1    1    2    0    0  0.66504878782E+01 -0.26739999001E+02  0.39678688960E+02  0.48307917500E+02  0.00000000000E+00 0.  1.
<mgrwt>
<rscale>  0 0.71527749E+02</rscale>
<asrwt>0</asrwt>
<pdfrwt beam="1">  1        2 0.26542384E+00 0.98303275E+02</pdfrwt>
<pdfrwt beam="2">  1       -2 0.88485657E-03 0.98303275E+02</pdfrwt>
<totfact> 0.24905037E+04</totfact>
</mgrwt>
</event>
<event>
 6    1  0.2866116E-002  0.6948463E+02  0.7546771E-02  0.1467536E+00
          1   -1    0    0  501    0  0.00000000000E+00  0.00000000000E+00  0.25213879902E+03  0.25213879902E+03  0.00000000000E+00 0. -1.
         -1   -1    0    0    0  501 -0.00000000000E+00 -0.00000000000E+00 -0.68392106168E+01  0.68392106168E+01  0.00000000000E+00 0.  1.
         23    2    1    2    0    0  0.57967252756E+01  0.12162480448E+02  0.20070814001E+03  0.21239555345E+03  0.68165869059E+02 0.  0.
         13    1    3    3    0    0 -0.23283774351E+01  0.39055921692E+02  0.89212032135E+02  0.97414439579E+02  0.00000000000E+00 0.  1.
        -13    1    3    3    0    0  0.81251027107E+01 -0.26893441244E+02  0.11149610787E+03  0.11498111387E+03  0.00000000000E+00 0. -1.
         22    1    1    2    0    0 -0.57967252756E+01 -0.12162480448E+02  0.44591448394E+02  0.46582456187E+02  0.00000000000E+00 0.  1.
<mgrwt>
<rscale>  0 0.46108872E+02</rscale>
<asrwt>0</asrwt>
<pdfrwt beam="1">  1        1 0.38790577E-01 0.69484629E+02</pdfrwt>
<pdfrwt beam="2">  1       -1 0.10521864E-02 0.69484629E+02</pdfrwt>
<totfact> 0.15383192E+05</totfact>
</mgrwt>
</event>
<event>
 6    1  0.2866116E-002  0.8878007E+02  0.7546771E-02  0.1422369E+00
          2   -1    0    0  501    0  0.00000000000E+00  0.00000000000E+00  0.55438752706E+03  0.55438752706E+03  0.00000000000E+00 0.  1.
         -2   -1    0    0    0  501 -0.00000000000E+00 -0.00000000000E+00 -0.47671515204E+01  0.47671515204E+01  0.00000000000E+00 0. -1.
         23    2    1    2    0    0  0.98557002356E+01  0.78965584012E+01  0.50654323011E+03  0.51426446895E+03  0.87877241646E+02 0.  0.
         13    1    3    3    0    0 -0.26403582824E+02  0.24635139612E+02  0.37648236051E+03  0.37821026833E+03  0.00000000000E+00 0.  1.
        -13    1    3    3    0    0  0.36259283059E+02 -0.16738581211E+02  0.13006086959E+03  0.13605420063E+03  0.00000000000E+00 0. -1.
         22    1    1    2    0    0 -0.98557002356E+01 -0.78965584012E+01  0.43077145435E+02  0.44890209629E+02  0.00000000000E+00 0.  1.
<mgrwt>
<rscale>  0 0.54522836E+02</rscale>
<asrwt>0</asrwt>
<pdfrwt beam="1">  1        2 0.85290338E-01 0.88780066E+02</pdfrwt>
<pdfrwt beam="2">  1       -2 0.73340837E-03 0.88780066E+02</pdfrwt>
<totfact> 0.15811572E+05</totfact>
</mgrwt>
</event>
<event>
 6    1  0.2866116E-002  0.1216178E+03  0.7546771E-02  0.1259483E+00
          2   -1    0    0  501    0  0.00000000000E+00  0.00000000000E+00  0.15762682012E+04  0.15762682012E+04  0.00000000000E+00 0. -1.
         -2   -1    0    0    0  501 -0.00000000000E+00 -0.00000000000E+00 -0.28584494788E+02  0.28584494788E+02  0.00000000000E+00 0.  1.
         23    2    1    2    0    0 -0.21690711439E+02 -0.80269838782E+02  0.15076870316E+04  0.15125842400E+04  0.88753387669E+02 0.  0.
         11    1    3    3    0    0 -0.15608186627E+02 -0.35712373168E+02  0.12747641335E+04  0.12753597865E+04  0.00000000000E+00 0. -1.
        -11    1    3    3    0    0 -0.60825248118E+01 -0.44557465614E+02  0.23292289809E+03  0.23722445342E+03  0.00000000000E+00 0.  1.
         22    1    1    2    0    0  0.21690711439E+02  0.80269838782E+02  0.39996674850E+02  0.92268456039E+02  0.00000000000E+00 0.  1.
<mgrwt>
<rscale>  0 0.11058903E+03</rscale>
<asrwt>0</asrwt>
<pdfrwt beam="1">  1        2 0.24250273E+00 0.12161784E+03</pdfrwt>
<pdfrwt beam="2">  1       -2 0.43976158E-02 0.12161784E+03</pdfrwt>
<totfact> 0.29437783E+03</totfact>
</mgrwt>
</event>
<event>
 6    1  0.2866116E-002  0.1069666E+03  0.7546771E-02  0.1318485E+00
          1   -1    0    0  501    0  0.00000000000E+00  0.00000000000E+00  0.12557018993E+04  0.12557018993E+04  0.00000000000E+00 0. -1.
         -1   -1    0    0    0  501 -0.00000000000E+00 -0.00000000000E+00 -0.49608988950E+01  0.49608988950E+01  0.00000000000E+00 0.  1.
         23    2    1    2    0    0  0.12824652093E+02 -0.38286018414E+02  0.10766617176E+04  0.10819622453E+04  0.99053294642E+02 0.  0.
         13    1    3    3    0    0  0.39896667830E+02  0.13801655635E+02  0.63722732982E+03  0.63862422415E+03  0.00000000000E+00 0. -1.
        -13    1    3    3    0    0 -0.27072015737E+02 -0.52087674050E+02  0.43943438776E+03  0.44333802112E+03  0.00000000000E+00 0.  1.
         22    1    1    2    0    0 -0.12824652093E+02  0.38286018414E+02  0.17407928287E+03  0.17870055297E+03  0.00000000000E+00 0.  1.
<mgrwt>
<rscale>  0 0.83843457E+02</rscale>
<asrwt>0</asrwt>
<pdfrwt beam="1">  1        1 0.19318465E+00 0.10696657E+03</pdfrwt>
<pdfrwt beam="2">  1       -1 0.76321621E-03 0.10696657E+03</pdfrwt>
<totfact> 0.27228338E+04</totfact>
</mgrwt>
</event>
<event>
 6    1  0.2866116E-002  0.9725842E+02  0.7546771E-02  0.1390670E+00
          2   -1    0    0  501    0  0.00000000000E+00  0.00000000000E+00  0.21182059034E+03  0.21182059034E+03  0.00000000000E+00 0. -1.
         -2   -1    0    0    0  501 -0.00000000000E+00 -0.00000000000E+00 -0.85635701790E+02  0.85635701790E+02  0.00000000000E+00 0.  1.
         23    2    1    2    0    0  0.15603146142E+02 -0.24486868680E+01  0.19977417275E+03  0.22219118078E+03  0.95967424054E+02 0.  0.
         13    1    3    3    0    0  0.51863748518E+01  0.68827061110E+01 -0.92830555493E+01  0.12666698380E+02  0.00000000000E+00 0.  1.
        -13    1    3    3    0    0  0.10416771290E+02 -0.93313929790E+01  0.20905722830E+03  0.20952448240E+03  0.00000000000E+00 0. -1.
         22    1    1    2    0    0 -0.15603146142E+02  0.24486868680E+01 -0.73589284204E+02  0.75265111350E+02  0.00000000000E+00 0.  1.
<mgrwt>
<rscale>  0 0.61740377E+02</rscale>
<asrwt>0</asrwt>
<pdfrwt beam="1">  1        2 0.32587783E-01 0.97258422E+02</pdfrwt>
<pdfrwt beam="2">  1       -2 0.13174723E-01 0.97258422E+02</pdfrwt>
<totfact> 0.63103398E+03</totfact>
</mgrwt>
</event>
<event>
 6    1  0.2866116E-002  0.9536130E+02  0.7546771E-02  0.1368439E+00
          1   -1    0    0  501    0  0.00000000000E+00  0.00000000000E+00  0.18058974548E+02  0.18058974548E+02  0.00000000000E+00 0. -1.
         -1   -1    0    0    0  501 -0.00000000000E+00 -0.00000000000E+00 -0.19786376414E+03  0.19786376414E+03  0.00000000000E+00 0.  1.
         23    2    1    2    0    0 -0.14798397937E+02 -0.19002751564E+02 -0.13979975890E+03  0.16922691843E+03  0.92269605968E+02 0.  0.
         11    1    3    3    0    0 -0.12300561003E+01 -0.29712670243E+01  0.13814337711E+02  0.14183701638E+02  0.00000000000E+00 0. -1.
        -11    1    3    3    0    0 -0.13568341837E+02 -0.16031484540E+02 -0.15361409661E+03  0.15504321679E+03  0.00000000000E+00 0.  1.
         22    1    1    2    0    0  0.14798397937E+02  0.19002751564E+02 -0.40005030691E+02  0.46695820253E+02  0.00000000000E+00 0. -1.
<mgrwt>
<rscale>  0 0.67603115E+02</rscale>
<asrwt>0</asrwt>
<pdfrwt beam="1">  1        1 0.27783038E-02 0.95361299E+02</pdfrwt>
<pdfrwt beam="2">  1       -1 0.30440579E-01 0.95361299E+02</pdfrwt>
<totfact> 0.33216538E+04</totfact>
</mgrwt>
</event>
<event>
 6    1  0.2866116E-002  0.9212955E+02  0.7546771E-02  0.1392410E+00
          2   -1    0    0  501    0  0.00000000000E+00  0.00000000000E+00  0.38214570246E+03  0.38214570246E+03  0.00000000000E+00 0. -1.
         -2   -1    0    0    0  501 -0.00000000000E+00 -0.00000000000E+00 -0.79457932914E+01  0.79457932914E+01  0.00000000000E+00 0.  1.
         23    2    1    2    0    0 -0.88017157756E+01 -0.15781775219E+02  0.31458119460E+03  0.32779441912E+03  0.90340016507E+02 0.  0.
         13    1    3    3    0    0  0.32049063543E+02  0.13328620510E+02  0.70130194448E+02  0.78249848383E+02  0.00000000000E+00 0. -1.
        -13    1    3    3    0    0 -0.40850779318E+02 -0.29110395728E+02  0.24445100015E+03  0.24954457074E+03  0.00000000000E+00 0.  1.
         22    1    1    2    0    0  0.88017157756E+01  0.15781775219E+02  0.59618714567E+02  0.62297076627E+02  0.00000000000E+00 0. -1.
<mgrwt>
<rscale>  0 0.61311276E+02</rscale>
<asrwt>0</asrwt>
<pdfrwt beam="1">  1        2 0.58791632E-01 0.92129546E+02</pdfrwt>
<pdfrwt beam="2">  1       -2 0.12224300E-02 0.92129546E+02</pdfrwt>
<totfact> 0.11497745E+05</totfact>
</mgrwt>
</event>
<event>
 6    1  0.2866116E-002  0.1227427E+03  0.7546771E-02  0.1307884E+00
          2   -1    0    0  501    0  0.00000000000E+00  0.00000000000E+00  0.29541050718E+03  0.29541050718E+03  0.00000000000E+00 0. -1.
         -2   -1    0    0    0  501 -0.00000000000E+00 -0.00000000000E+00 -0.21109450761E+02  0.21109450761E+02  0.00000000000E+00 0.  1.
         23    2    1    2    0    0  0.10701535175E+02 -0.30540729261E+02  0.23869690239E+03  0.26840639662E+03  0.11839984601E+03 0.  0.
         11    1    3    3    0    0  0.47640352170E+02 -0.30117143439E+02  0.21980244421E+03  0.22691355174E+03  0.00000000000E+00 0. -1.
        -11    1    3    3    0    0 -0.36938816995E+02 -0.42358582238E+00  0.18894458182E+02  0.41492844876E+02  0.00000000000E+00 0.  1.
         22    1    1    2    0    0 -0.10701535175E+02  0.30540729261E+02  0.35604154020E+02  0.48113561315E+02  0.00000000000E+00 0.  1.
<mgrwt>
<rscale>  0 0.87953606E+02</rscale>
<asrwt>0</asrwt>
<pdfrwt beam="1">  1        2 0.45447767E-01 0.12274275E+03</pdfrwt>
<pdfrwt beam="2">  1       -2 0.32476080E-02 0.12274275E+03</pdfrwt>
<totfact> 0.38201958E+04</totfact>
</mgrwt>
</event>
<event>
 6    1  0.2866116E-002  0.9093288E+02  0.7546771E-02  0.1408394E+00
         -2   -1    0    0    0  501 -0.00000000000E+00  0.00000000000E+00  0.36936006659E+01  0.36936006659E+01  0.00000000000E+00 0.  1.
          2   -1    0    0  501    0  0.00000000000E+00 -0.00000000000E+00 -0.75771439195E+03  0.75771439195E+03  0.00000000000E+00 0. -1.
         23    2    1    2    0    0  0.14305557758E+02  0.28796509325E+01 -0.66747386337E+03  0.67363947831E+03  0.89754370824E+02 0.  0.
         11    1    3    3    0    0  0.30125991727E+02  0.37792960983E+02 -0.47011551981E+03  0.47259336141E+03  0.00000000000E+00 0. -1.
        -11    1    3    3    0    0 -0.15820433968E+02 -0.34913310050E+02 -0.19735834356E+03  0.20104611690E+03  0.00000000000E+00 0.  1.
         22    1    1    2    0    0 -0.14305557758E+02 -0.28796509325E+01 -0.86546927913E+02  0.87768514306E+02  0.00000000000E+00 0. -1.
<mgrwt>
<rscale>  0 0.57553695E+02</rscale>
<asrwt>0</asrwt>
<pdfrwt beam="1">  1        2 0.11657143E+00 0.90932879E+02</pdfrwt>
<pdfrwt beam="2">  1       -2 0.56824633E-03 0.90932879E+02</pdfrwt>
<totfact> 0.15894117E+05</totfact>
</mgrwt>
</event>
<event>
 6    1  0.2866116E-002  0.9303089E+02  0.7546771E-02  0.1399381E+00
         -2   -1    0    0    0  501 -0.00000000000E+00  0.00000000000E+00  0.29862269122E+01  0.29862269122E+01  0.00000000000E+00 0.  1.
          2   -1    0    0  501    0  0.00000000000E+00 -0.00000000000E+00 -0.11157101667E+04  0.11157101667E+04  0.00000000000E+00 0. -1.
         23    2    1    2    0    0  0.14432420698E+02  0.61940539391E+01 -0.10468726608E+04  0.10509981513E+04  0.91695610467E+02 0.  0.
         13    1    3    3    0    0 -0.25718552422E+02 -0.21289434201E+02 -0.20328311242E+03  0.20600657208E+03  0.00000000000E+00 0.  1.
        -13    1    3    3    0    0  0.40150973120E+02  0.27483488140E+02 -0.84358954843E+03  0.84499157924E+03  0.00000000000E+00 0. -1.
         22    1    1    2    0    0 -0.14432420698E+02 -0.61940539391E+01 -0.65851278984E+02  0.67698242334E+02  0.00000000000E+00 0.  1.
<mgrwt>
<rscale>  0 0.59632491E+02</rscale>
<asrwt>0</asrwt>
<pdfrwt beam="1">  1        2 0.17164777E+00 0.93030888E+02</pdfrwt>
<pdfrwt beam="2">  1       -2 0.45941939E-03 0.93030888E+02</pdfrwt>
<totfact> 0.12975138E+05</totfact>
</mgrwt>
</event>
<event>
 6    1  0.2866116E-002  0.9519676E+02  0.7546771E-02  0.1369241E+00
          2   -1    0    0  501    0  0.00000000000E+00  0.00000000000E+00  0.12195965248E+04  0.12195965248E+04  0.00000000000E+00 0. -1.
         -2   -1    0    0    0  501 -0.00000000000E+00 -0.00000000000E+00 -0.38467226085E+01  0.38467226085E+01  0.00000000000E+00 0.  1.
         23    2    1    2    0    0  0.55010342031E+01 -0.23248491833E+02  0.11410934987E+04  0.11450575510E+04  0.92150250086E+02 0.  0.
         11    1    3    3    0    0  0.28705364763E+02 -0.20976224709E+02  0.10621048794E+04  0.10626997576E+04  0.00000000000E+00 0. -1.
        -11    1    3    3    0    0 -0.23204330560E+02 -0.22722671243E+01  0.78988619255E+02  0.82357793355E+02  0.00000000000E+00 0.  1.
         22    1    1    2    0    0 -0.55010342031E+01  0.23248491833E+02  0.74656303538E+02  0.78385696449E+02  0.00000000000E+00 0.  1.
<mgrwt>
<rscale>  0 0.67378713E+02</rscale>
<asrwt>0</asrwt>
<pdfrwt beam="1">  1        2 0.18762993E+00 0.95196756E+02</pdfrwt>
<pdfrwt beam="2">  1       -2 0.59180445E-03 0.95196756E+02</pdfrwt>
<totfact> 0.79970252E+04</totfact>
</mgrwt>
</event>
<event>
 6    1  0.2866116E-002  0.1061502E+03  0.7546771E-02  0.1307238E+00
          2   -1    0    0  501    0  0.00000000000E+00  0.00000000000E+00  0.57371685479E+03  0.57371685479E+03  0.00000000000E+00 0.  1.
         -2   -1    0    0    0  501 -0.00000000000E+00 -0.00000000000E+00 -0.12006803788E+02  0.12006803788E+02  0.00000000000E+00 0. -1.
         23    2    1    2    0    0  0.15608319048E+02 -0.48159252256E+02  0.46027746721E+03  0.47235919212E+03  0.93300194830E+02 0.  0.
         13    1    3    3    0    0 -0.78795020327E+01  0.90717502568E+01  0.51945198917E+01  0.13090692950E+02  0.00000000000E+00 0. -1.
        -13    1    3    3    0    0  0.23487821080E+02 -0.57231002512E+02  0.45508294732E+03  0.45926849917E+03  0.00000000000E+00 0.  1.
         22    1    1    2    0    0 -0.15608319048E+02  0.48159252256E+02  0.10143258379E+03  0.11336446646E+03  0.00000000000E+00 0.  1.
<mgrwt>
<rscale>  0 0.88213021E+02</rscale>
<asrwt>0</asrwt>
<pdfrwt beam="1">  1        2 0.88264110E-01 0.10615017E+03</pdfrwt>
<pdfrwt beam="2">  1       -2 0.18472010E-02 0.10615017E+03</pdfrwt>
<totfact> 0.41904032E+04</totfact>
</mgrwt>
</event>
<event>
 6    1  0.2866116E-002  0.1034074E+03  0.7546771E-02  0.1312611E+00
          2   -1    0    0  501    0  0.00000000000E+00  0.00000000000E+00  0.38829292931E+03  0.38829292931E+03  0.00000000000E+00 0. -1.
         -2   -1    0    0    0  501 -0.00000000000E+00 -0.00000000000E+00 -0.15732531085E+02  0.15732531085E+02  0.00000000000E+00 0.  1.
         23    2    1    2    0    0  0.18993860895E+02  0.45898539490E+02  0.21058016561E+03  0.23459984711E+03  0.90695310998E+02 0.  0.
         11    1    3    3    0    0  0.10180061813E+02 -0.21390773519E+02  0.11477245838E+03  0.11719179175E+03  0.00000000000E+00 0. -1.
        -11    1    3    3    0    0  0.88137990819E+01  0.67289313009E+02  0.95807707228E+02  0.11740805536E+03  0.00000000000E+00 0.  1.
         22    1    1    2    0    0 -0.18993860895E+02 -0.45898539490E+02  0.16198023261E+03  0.16942561328E+03  0.00000000000E+00 0. -1.
<mgrwt>
<rscale>  0 0.86088367E+02</rscale>
<asrwt>0</asrwt>
<pdfrwt beam="1">  1        2 0.59737367E-01 0.10340736E+03</pdfrwt>
<pdfrwt beam="2">  1       -2 0.24203897E-02 0.10340736E+03</pdfrwt>
<totfact> 0.43109358E+04</totfact>
</mgrwt>
</event>
<event>
 6    1  0.2866116E-002  0.9060537E+02  0.7546771E-02  0.1430715E+00
         -2   -1    0    0    0  501 -0.00000000000E+00  0.00000000000E+00  0.73550903288E+02  0.73550903288E+02  0.00000000000E+00 0. -1.
          2   -1    0    0  501    0  0.00000000000E+00 -0.00000000000E+00 -0.34986476345E+02  0.34986476345E+02  0.00000000000E+00 0.  1.
         23    2    1    2    0    0  0.25725204530E+01  0.10140962961E+02  0.31549702948E+02  0.95941215773E+02  0.89999311868E+02 0.  0.
         13    1    3    3    0    0  0.30359963030E+02 -0.29040395689E+02  0.20036978059E+02  0.46546239662E+02  0.00000000000E+00 0. -1.
        -13    1    3    3    0    0 -0.27787442577E+02  0.39181358650E+02  0.11512724889E+02  0.49394976111E+02  0.00000000000E+00 0.  1.
         22    1    1    2    0    0 -0.25725204530E+01 -0.10140962961E+02  0.70147239946E+01  0.12596163860E+02  0.00000000000E+00 0. -1.
<mgrwt>
<rscale>  0 0.52816655E+02</rscale>
<asrwt>0</asrwt>
<pdfrwt beam="1">  1        2 0.53825349E-02 0.90605370E+02</pdfrwt>
<pdfrwt beam="2">  1       -2 0.11315524E-01 0.90605370E+02</pdfrwt>
<totfact> 0.65986368E+04</totfact>
</mgrwt>
</event>
<event>
 6    1  0.2866116E-002  0.9218582E+02  0.7546771E-02  0.1407011E+00
          2   -1    0    0  501    0  0.00000000000E+00  0.00000000000E+00  0.17153530174E+03  0.17153530174E+03  0.00000000000E+00 0.  1.
         -2   -1    0    0    0  501 -0.00000000000E+00 -0.00000000000E+00 -0.16545995118E+02  0.16545995118E+02  0.00000000000E+00 0. -1.
         23    2    1    2    0    0  0.10876789105E+02 -0.93025709338E+01  0.13210400571E+03  0.16108908752E+03  0.91068015380E+02 0.  0.
         13    1    3    3    0    0 -0.53150245880E+01 -0.58392532771E+01  0.14172102215E+03  0.14194081332E+03  0.00000000000E+00 0.  1.
        -13    1    3    3    0    0  0.16191813693E+02 -0.34633176567E+01 -0.96170164373E+01  0.19148274204E+02  0.00000000000E+00 0. -1.
         22    1    1    2    0    0 -0.10876789105E+02  0.93025709338E+01  0.22885300904E+02  0.26992209333E+02  0.00000000000E+00 0. -1.
<mgrwt>
<rscale>  0 0.57866281E+02</rscale>
<asrwt>0</asrwt>
<pdfrwt beam="1">  1        2 0.26390045E-01 0.92185822E+02</pdfrwt>
<pdfrwt beam="2">  1       -2 0.25455378E-02 0.92185822E+02</pdfrwt>
<totfact> 0.93648229E+04</totfact>
</mgrwt>
</event>
<event>
 6    1  0.2866116E-002  0.9324385E+02  0.7546771E-02  0.1399413E+00
         -3   -1    0    0    0  501 -0.00000000000E+00  0.00000000000E+00  0.85360884628E+02  0.85360884628E+02  0.00000000000E+00 0.  1.
          3   -1    0    0  501    0  0.00000000000E+00 -0.00000000000E+00 -0.40860400892E+02  0.40860400892E+02  0.00000000000E+00 0. -1.
         23    2    1    2    0    0 -0.72199597343E+01 -0.13817431386E+02  0.17249458468E+02  0.94825941809E+02  0.91931312368E+02 0.  0.
         11    1    3    3    0    0 -0.11467211829E+02  0.13481263516E+02 -0.33020495486E+02  0.37464577073E+02  0.00000000000E+00 0. -1.
        -11    1    3    3    0    0  0.42472520949E+01 -0.27298694902E+02  0.50269953955E+02  0.57361364735E+02  0.00000000000E+00 0.  1.
         22    1    1    2    0    0  0.72199597343E+01  0.13817431386E+02  0.27251025267E+02  0.31395343712E+02  0.00000000000E+00 0. -1.
<mgrwt>
<rscale>  0 0.59624799E+02</rscale>
<asrwt>0</asrwt>
<pdfrwt beam="1">  1        3 0.62862155E-02 0.93243849E+02</pdfrwt>
<pdfrwt beam="2">  1       -3 0.13132444E-01 0.93243849E+02</pdfrwt>
<totfact> 0.15186216E+04</totfact>
</mgrwt>
</event>
<event>
 6    1  0.2866116E-002  0.8941392E+02  0.7546771E-02  0.1433352E+00
         -2   -1    0    0    0  501 -0.00000000000E+00  0.00000000000E+00  0.63767492296E+01  0.63767492296E+01  0.00000000000E+00 0.  1.
          2   -1    0    0  501    0  0.00000000000E+00 -0.00000000000E+00 -0.43410535032E+03  0.43410535032E+03  0.00000000000E+00 0. -1.
         23    2    1    2    0    0 -0.98240219755E+00  0.10414352933E+02 -0.41201214708E+03  0.42160272489E+03  0.88799912310E+02 0.  0.
         13    1    3    3    0    0 -0.44520758554E+02  0.10617594997E+02 -0.22138555048E+03  0.22606723165E+03  0.00000000000E+00 0. -1.
        -13    1    3    3    0    0  0.43538356357E+02 -0.20324206335E+00 -0.19062659660E+03  0.19553549323E+03  0.00000000000E+00 0.  1.
         22    1    1    2    0    0  0.98240219755E+00 -0.10414352933E+02 -0.15716454004E+02  0.18879374660E+02  0.00000000000E+00 0.  1.
<mgrwt>
<rscale>  0 0.52292914E+02</rscale>
<asrwt>0</asrwt>
<pdfrwt beam="1">  1        2 0.66785461E-01 0.89413916E+02</pdfrwt>
<pdfrwt beam="2">  1       -2 0.98103802E-03 0.89413916E+02</pdfrwt>
<totfact> 0.13667006E+05</totfact>
</mgrwt>
</event>
<event>
 6    1  0.2866116E-002  0.9503030E+02  0.7546771E-02  0.1364492E+00
         -2   -1    0    0    0  501 -0.00000000000E+00  0.00000000000E+00  0.58473621626E+01  0.58473621626E+01  0.00000000000E+00 0.  1.
          2   -1    0    0  501    0  0.00000000000E+00 -0.00000000000E+00 -0.11267596081E+04  0.11267596081E+04  0.00000000000E+00 0. -1.
         23    2    1    2    0    0 -0.16264410326E+02  0.20271871301E+02 -0.10797663673E+04  0.10839401115E+04  0.91407207882E+02 0.  0.
         13    1    3    3    0    0 -0.18749279432E+02  0.55868284317E+02 -0.62221345801E+03  0.62499791040E+03  0.00000000000E+00 0. -1.
        -13    1    3    3    0    0  0.24848691062E+01 -0.35596413016E+02 -0.45755290928E+03  0.45894220114E+03  0.00000000000E+00 0.  1.
         22    1    1    2    0    0  0.16264410326E+02 -0.20271871301E+02 -0.41145878678E+02  0.48666858760E+02  0.00000000000E+00 0.  1.
<mgrwt>
<rscale>  0 0.68722368E+02</rscale>
<asrwt>0</asrwt>
<pdfrwt beam="1">  1        2 0.17334770E+00 0.95030298E+02</pdfrwt>
<pdfrwt beam="2">  1       -2 0.89959381E-03 0.95030298E+02</pdfrwt>
<totfact> 0.49809668E+04</totfact>
</mgrwt>
</event>
<event>
 6    1  0.2866116E-002  0.9303755E+02  0.7546771E-02  0.1393941E+00
          2   -1    0    0  501    0  0.00000000000E+00  0.00000000000E+00  0.61082838961E+03  0.61082838961E+03  0.00000000000E+00 0. -1.
         -2   -1    0    0    0  501 -0.00000000000E+00 -0.00000000000E+00 -0.22416587523E+02  0.22416587523E+02  0.00000000000E+00 0.  1.
         23    2    1    2    0    0  0.15254631544E+02  0.77753480492E+01  0.60337515244E+03  0.61050598694E+03  0.91448486521E+02 0.  0.
         13    1    3    3    0    0 -0.31216989718E+02  0.22761167795E+02  0.16715432871E+03  0.17156089535E+03  0.00000000000E+00 0.  1.
        -13    1    3    3    0    0  0.46471621262E+02 -0.14985819746E+02  0.43622082374E+03  0.43894509160E+03  0.00000000000E+00 0. -1.
         22    1    1    2    0    0 -0.15254631544E+02 -0.77753480492E+01 -0.14963350358E+02  0.22738990188E+02  0.00000000000E+00 0.  1.
<mgrwt>
<rscale>  0 0.60937096E+02</rscale>
<asrwt>0</asrwt>
<pdfrwt beam="1">  1        2 0.93973585E-01 0.93037549E+02</pdfrwt>
<pdfrwt beam="2">  1       -2 0.34487063E-02 0.93037549E+02</pdfrwt>
<totfact> 0.15591932E+04</totfact>
</mgrwt>
</event>
<event>
 6    1  0.2866116E-002  0.9405517E+02  0.7546771E-02  0.1412653E+00
         -1   -1    0    0    0  501 -0.00000000000E+00  0.00000000000E+00  0.73093644637E+01  0.73093644637E+01  0.00000000000E+00 0.  1.
          1   -1    0    0  501    0  0.00000000000E+00 -0.00000000000E+00 -0.44166004061E+03  0.44166004061E+03  0.00000000000E+00 0. -1.
         23    2    1    2    0    0 -0.33296073904E+01  0.11881914153E+02 -0.41818909021E+03  0.42863561474E+03  0.93242205486E+02 0.  0.
         13    1    3    3    0    0  0.10899195431E+02  0.24605395877E+01 -0.40919090197E+03  0.40934342668E+03  0.00000000000E+00 0. -1.
        -13    1    3    3    0    0 -0.14228802822E+02  0.94213745656E+01 -0.89981882462E+01  0.19292188060E+02  0.00000000000E+00 0.  1.
         22    1    1    2    0    0  0.33296073904E+01 -0.11881914153E+02 -0.16161585933E+02  0.20333790330E+02  0.00000000000E+00 0. -1.
<mgrwt>
<rscale>  0 0.56605996E+02</rscale>
<asrwt>0</asrwt>
<pdfrwt beam="1">  1        1 0.67947694E-01 0.94055170E+02</pdfrwt>
<pdfrwt beam="2">  1       -1 0.11245177E-02 0.94055170E+02</pdfrwt>
<totfact> 0.73976957E+04</totfact>
</mgrwt>
</event>
<event>
 6    1  0.2866116E-002  0.9504992E+02  0.7546771E-02  0.1362793E+00
          2   -1    0    0  501    0  0.00000000000E+00  0.00000000000E+00  0.43773461663E+03  0.43773461663E+03  0.00000000000E+00 0. -1.
         -2   -1    0    0    0  501 -0.00000000000E+00 -0.00000000000E+00 -0.85613094214E+01  0.85613094214E+01  0.00000000000E+00 0.  1.
         23    2    1    2    0    0  0.23387886461E+02  0.12926073396E+02  0.31445164104E+03  0.32850315337E+03  0.91216284825E+02 0.  0.
         13    1    3    3    0    0  0.15126160229E+02 -0.11840020192E+02  0.77840931421E+01  0.20726285423E+02  0.00000000000E+00 0.  1.
        -13    1    3    3    0    0  0.82617262328E+01  0.24766093588E+02  0.30666754790E+03  0.30777686795E+03  0.00000000000E+00 0. -1.
         22    1    1    2    0    0 -0.23387886461E+02 -0.12926073396E+02  0.11472166617E+03  0.11779277268E+03  0.00000000000E+00 0.  1.
<mgrwt>
<rscale>  0 0.69212082E+02</rscale>
<asrwt>0</asrwt>
<pdfrwt beam="1">  1        2 0.67343770E-01 0.95049920E+02</pdfrwt>
<pdfrwt beam="2">  1       -2 0.13171249E-02 0.95049920E+02</pdfrwt>
<totfact> 0.89985870E+04</totfact>
</mgrwt>
</event>
<event>
 6    1  0.2866116E-002  0.9336589E+02  0.7546771E-02  0.1420510E+00
          1   -1    0    0  501    0  0.00000000000E+00  0.00000000000E+00  0.15404985459E+03  0.15404985459E+03  0.00000000000E+00 0. -1.
         -1   -1    0    0    0  501 -0.00000000000E+00 -0.00000000000E+00 -0.17843780342E+02  0.17843780342E+02  0.00000000000E+00 0.  1.
         23    2    1    2    0    0 -0.10914023096E+02  0.23884862209E+01  0.12549138752E+03  0.15641380037E+03  0.92695025951E+02 0.  0.
         11    1    3    3    0    0  0.14854446521E+02 -0.40144434090E+02  0.47747933942E+02  0.64125621756E+02  0.00000000000E+00 0.  1.
        -11    1    3    3    0    0 -0.25768469617E+02  0.42532920311E+02  0.77743453580E+02  0.92288178610E+02  0.00000000000E+00 0. -1.
         22    1    1    2    0    0  0.10914023096E+02 -0.23884862209E+01  0.10714686726E+02  0.15479834567E+02  0.00000000000E+00 0. -1.
<mgrwt>
<rscale>  0 0.54913234E+02</rscale>
<asrwt>0</asrwt>
<pdfrwt beam="1">  1        1 0.23699977E-01 0.93365886E+02</pdfrwt>
<pdfrwt beam="2">  1       -1 0.27451971E-02 0.93365886E+02</pdfrwt>
<totfact> 0.75755071E+04</totfact>
</mgrwt>
</event>
<event>
 6    1  0.2866116E-002  0.1005627E+03  0.7546771E-02  0.1328405E+00
          2   -1    0    0  501    0  0.00000000000E+00  0.00000000000E+00  0.62837997621E+03  0.62837997621E+03  0.00000000000E+00 0. -1.
         -2   -1    0    0    0  501 -0.00000000000E+00 -0.00000000000E+00 -0.10513778924E+02  0.10513778924E+02  0.00000000000E+00 0.  1.
         23    2    1    2    0    0  0.33646927078E+02 -0.22966814150E+02  0.55461839180E+03  0.56366161338E+03  0.91941631606E+02 0.  0.
         13    1    3    3    0    0  0.43086649818E+02  0.23621856701E+02  0.20393458092E+03  0.20977074343E+03  0.00000000000E+00 0. -1.
        -13    1    3    3    0    0 -0.94397227402E+01 -0.46588670852E+02  0.35068381088E+03  0.35389086995E+03  0.00000000000E+00 0.  1.
         22    1    1    2    0    0 -0.33646927078E+02  0.22966814150E+02  0.63247805486E+02  0.75232141753E+02  0.00000000000E+00 0.  1.
<mgrwt>
<rscale>  0 0.80228331E+02</rscale>
<asrwt>0</asrwt>
<pdfrwt beam="1">  1        2 0.96673813E-01 0.10056269E+03</pdfrwt>
<pdfrwt beam="2">  1       -2 0.16175049E-02 0.10056269E+03</pdfrwt>
<totfact> 0.45490711E+04</totfact>
</mgrwt>
</event>
<event>
 6    1  0.2866116E-002  0.9333255E+02  0.7546771E-02  0.1400958E+00
         -2   -1    0    0    0  501 -0.00000000000E+00  0.00000000000E+00  0.16208666509E+02  0.16208666509E+02  0.00000000000E+00 0.  1.
          2   -1    0    0  501    0  0.00000000000E+00 -0.00000000000E+00 -0.21016701260E+03  0.21016701260E+03  0.00000000000E+00 0. -1.
         23    2    1    2    0    0 -0.10297387875E+02 -0.11139681310E+02 -0.18834249469E+03  0.21019957069E+03  0.92091451899E+02 0.  0.
         13    1    3    3    0    0  0.20548918851E+02  0.35800497368E+01 -0.22329025638E+01  0.20977623219E+02  0.00000000000E+00 0.  1.
        -13    1    3    3    0    0 -0.30846306726E+02 -0.14719731047E+02 -0.18610959213E+03  0.18922194747E+03  0.00000000000E+00 0. -1.
         22    1    1    2    0    0  0.10297387875E+02  0.11139681310E+02 -0.56158513983E+01  0.16176108422E+02  0.00000000000E+00 0.  1.
<mgrwt>
<rscale>  0 0.59261301E+02</rscale>
<asrwt>0</asrwt>
<pdfrwt beam="1">  1        2 0.32333384E-01 0.93332546E+02</pdfrwt>
<pdfrwt beam="2">  1       -2 0.24936412E-02 0.93332546E+02</pdfrwt>
<totfact> 0.77729753E+04</totfact>
</mgrwt>
</event>
<event>
 6    1  0.2866116E-002  0.9440050E+02  0.7546771E-02  0.1368868E+00
          1   -1    0    0  501    0  0.00000000000E+00  0.00000000000E+00  0.10204984338E+03  0.10204984338E+03  0.00000000000E+00 0. -1.
         -1   -1    0    0    0  501 -0.00000000000E+00 -0.00000000000E+00 -0.37002826187E+02  0.37002826187E+02  0.00000000000E+00 0.  1.
         23    2    1    2    0    0 -0.10378487054E+02 -0.22360615498E+02  0.64616167170E+02  0.11439712758E+03  0.91124879258E+02 0.  0.
         13    1    3    3    0    0 -0.20255829527E+02  0.15468147458E+02  0.70402974425E+02  0.74874167932E+02  0.00000000000E+00 0. -1.
        -13    1    3    3    0    0  0.98773424738E+01 -0.37828762955E+02 -0.57868072553E+01  0.39522959647E+02  0.00000000000E+00 0.  1.
         22    1    1    2    0    0  0.10378487054E+02  0.22360615498E+02  0.43085002262E+00  0.24655541988E+02  0.00000000000E+00 0.  1.
<mgrwt>
<rscale>  0 0.67482749E+02</rscale>
<asrwt>0</asrwt>
<pdfrwt beam="1">  1        1 0.15699976E-01 0.94400496E+02</pdfrwt>
<pdfrwt beam="2">  1       -1 0.56927425E-02 0.94400496E+02</pdfrwt>
<totfact> 0.44150164E+04</totfact>
</mgrwt>
</event>
<event>
 6    1  0.2866116E-002  0.9488339E+02  0.7546771E-02  0.1367288E+00
         -2   -1    0    0    0  501 -0.00000000000E+00  0.00000000000E+00  0.11241486157E+02  0.11241486157E+02  0.00000000000E+00 0.  1.
          2   -1    0    0  501    0  0.00000000000E+00 -0.00000000000E+00 -0.51097540101E+03  0.51097540101E+03  0.00000000000E+00 0. -1.
         23    2    1    2    0    0  0.20882254814E+01 -0.24835307470E+02 -0.48291905037E+03  0.49215207633E+03  0.91551645785E+02 0.  0.
         11    1    3    3    0    0  0.26522133403E+02 -0.46513685847E+02 -0.39000898707E+03  0.39366731706E+03  0.00000000000E+00 0. -1.
        -11    1    3    3    0    0 -0.24433907921E+02  0.21678378377E+02 -0.92910063305E+02  0.98484759271E+02  0.00000000000E+00 0.  1.
         22    1    1    2    0    0 -0.20882254814E+01  0.24835307470E+02 -0.16814864477E+02  0.30064810829E+02  0.00000000000E+00 0.  1.
<mgrwt>
<rscale>  0 0.67927006E+02</rscale>
<asrwt>0</asrwt>
<pdfrwt beam="1">  1        2 0.78611595E-01 0.94883386E+02</pdfrwt>
<pdfrwt beam="2">  1       -2 0.17294595E-02 0.94883386E+02</pdfrwt>
<totfact> 0.51632457E+04</totfact>
</mgrwt>
</event>
<event>
 6    1  0.2866116E-002  0.9557054E+02  0.7546771E-02  0.1358710E+00
         -2   -1    0    0    0  501 -0.00000000000E+00  0.00000000000E+00  0.87378488091E+01  0.87378488091E+01  0.00000000000E+00 0.  1.
          2   -1    0    0  501    0  0.00000000000E+00 -0.00000000000E+00 -0.51511176459E+03  0.51511176459E+03  0.00000000000E+00 0. -1.
         23    2    1    2    0    0  0.12622357799E+02  0.25164896565E+02 -0.45812722017E+03  0.46798961364E+03  0.91329801711E+02 0.  0.
         11    1    3    3    0    0  0.80618405530E+01 -0.83273151710E+01 -0.34996589276E+01  0.12107231875E+02  0.00000000000E+00 0.  1.
        -11    1    3    3    0    0  0.45605172464E+01  0.33492211736E+02 -0.45462756124E+03  0.45588238177E+03  0.00000000000E+00 0. -1.
         22    1    1    2    0    0 -0.12622357799E+02 -0.25164896565E+02 -0.48246695613E+02  0.55859999759E+02  0.00000000000E+00 0.  1.
<mgrwt>
<rscale>  0 0.70408407E+02</rscale>
<asrwt>0</asrwt>
<pdfrwt beam="1">  1        2 0.79247980E-01 0.95570543E+02</pdfrwt>
<pdfrwt beam="2">  1       -2 0.13442842E-02 0.95570543E+02</pdfrwt>
<totfact> 0.73429436E+04</totfact>
</mgrwt>
</event>
<event>
 6    1  0.2866116E-002  0.9121319E+02  0.7546771E-02  0.1410737E+00
          1   -1    0    0  501    0  0.00000000000E+00  0.00000000000E+00  0.52853803119E+02  0.52853803119E+02  0.00000000000E+00 0. -1.
         -1   -1    0    0    0  501 -0.00000000000E+00 -0.00000000000E+00 -0.10495463842E+03  0.10495463842E+03  0.00000000000E+00 0.  1.
         23    2    1    2    0    0  0.75369908814E+01  0.11725514587E+02  0.12189787100E+02  0.92024111699E+02  0.90141845447E+02 0.  0.
         13    1    3    3    0    0  0.42022426916E+01  0.23932115689E+02  0.48133080696E+02  0.53918442691E+02  0.00000000000E+00 0. -1.
        -13    1    3    3    0    0  0.33347481899E+01 -0.12206601102E+02 -0.35943293596E+02  0.38105669007E+02  0.00000000000E+00 0.  1.
         22    1    1    2    0    0 -0.75369908814E+01 -0.11725514587E+02 -0.64290622400E+02  0.65784329840E+02  0.00000000000E+00 0.  1.
<mgrwt>
<rscale>  0 0.57029641E+02</rscale>
<asrwt>0</asrwt>
<pdfrwt beam="1">  1        1 0.81313543E-02 0.91213191E+02</pdfrwt>
<pdfrwt beam="2">  1       -1 0.16146867E-01 0.91213191E+02</pdfrwt>
<totfact> 0.21439368E+04</totfact>
</mgrwt>
</event>
<event>
 6    1  0.2866116E-002  0.9260588E+02  0.7546771E-02  0.1421020E+00
          2   -1    0    0  501    0  0.00000000000E+00  0.00000000000E+00  0.14775688999E+04  0.14775688999E+04  0.00000000000E+00 0. -1.
         -2   -1    0    0    0  501 -0.00000000000E+00 -0.00000000000E+00 -0.22213681078E+01  0.22213681078E+01  0.00000000000E+00 0.  1.
         23    2    1    2    0    0  0.52431246038E+01  0.10077857290E+02  0.14315914949E+04  0.14345835834E+04  0.91906453039E+02 0.  0.
         13    1    3    3    0    0  0.15463836964E+02 -0.15104099757E+02  0.13016977443E+04  0.13018772145E+04  0.00000000000E+00 0. -1.
        -13    1    3    3    0    0 -0.10220712360E+02  0.25181957047E+02  0.12989375054E+03  0.13270636892E+03  0.00000000000E+00 0.  1.
         22    1    1    2    0    0 -0.52431246038E+01 -0.10077857290E+02  0.43756036967E+02  0.45206684619E+02  0.00000000000E+00 0.  1.
<mgrwt>
<rscale>  0 0.54805631E+02</rscale>
<asrwt>0</asrwt>
<pdfrwt beam="1">  1        2 0.22731751E+00 0.92605884E+02</pdfrwt>
<pdfrwt beam="2">  1       -2 0.34175012E-03 0.92605884E+02</pdfrwt>
<totfact> 0.12590029E+05</totfact>
</mgrwt>
</event>
<event>
 6    1  0.2866116E-002  0.1123648E+03  0.7546771E-02  0.1283153E+00
          2   -1    0    0  501    0  0.00000000000E+00  0.00000000000E+00  0.26932750139E+04  0.26932750139E+04  0.00000000000E+00 0. -1.
         -2   -1    0    0    0  501 -0.00000000000E+00 -0.00000000000E+00 -0.53775219341E+01  0.53775219341E+01  0.00000000000E+00 0.  1.
         23    2    1    2    0    0 -0.84028884812E+01 -0.66236205369E+02  0.24183497946E+04  0.24209588114E+04  0.90376954996E+02 0.  0.
         11    1    3    3    0    0  0.19084386775E+02 -0.37136522517E+02  0.20526745252E+04  0.20530991309E+04  0.00000000000E+00 0. -1.
        -11    1    3    3    0    0 -0.27487275257E+02 -0.29099682851E+02  0.36567526946E+03  0.36785968050E+03  0.00000000000E+00 0.  1.
         22    1    1    2    0    0  0.84028884812E+01  0.66236205369E+02  0.26954769731E+03  0.27769372438E+03  0.00000000000E+00 0.  1.
<mgrwt>
<rscale>  0 0.98653654E+02</rscale>
<asrwt>0</asrwt>
<pdfrwt beam="1">  1        2 0.41434893E+00 0.11236475E+03</pdfrwt>
<pdfrwt beam="2">  1       -2 0.82731322E-03 0.11236475E+03</pdfrwt>
<totfact> 0.87174448E+03</totfact>
</mgrwt>
</event>
<event>
 6    1  0.2866116E-002  0.9450536E+02  0.7546771E-02  0.1375030E+00
          2   -1    0    0  501    0  0.00000000000E+00  0.00000000000E+00  0.72188440792E+03  0.72188440792E+03  0.00000000000E+00 0. -1.
         -2   -1    0    0    0  501 -0.00000000000E+00 -0.00000000000E+00 -0.54635396777E+01  0.54635396777E+01  0.00000000000E+00 0.  1.
         23    2    1    2    0    0 -0.12615291611E+01  0.22157919649E+02  0.65978230282E+03  0.66651627860E+03  0.91862384444E+02 0.  0.
         11    1    3    3    0    0 -0.34348582892E+02 -0.72368459364E+00  0.51798011578E+03  0.51911824203E+03  0.00000000000E+00 0. -1.
        -11    1    3    3    0    0  0.33087053731E+02  0.22881604243E+02  0.14180218704E+03  0.14739803658E+03  0.00000000000E+00 0.  1.
         22    1    1    2    0    0  0.12615291611E+01 -0.22157919649E+02  0.56638565426E+02  0.60831668993E+02  0.00000000000E+00 0.  1.
<mgrwt>
<rscale>  0 0.65788540E+02</rscale>
<asrwt>0</asrwt>
<pdfrwt beam="1">  1        2 0.11105906E+00 0.94505357E+02</pdfrwt>
<pdfrwt beam="2">  1       -2 0.84054514E-03 0.94505357E+02</pdfrwt>
<totfact> 0.97541508E+04</totfact>
</mgrwt>
</event>
<event>
 6    1  0.2866116E-002  0.9747585E+02  0.7546771E-02  0.1391356E+00
         -2   -1    0    0    0  501 -0.00000000000E+00  0.00000000000E+00  0.51680006528E+02  0.51680006528E+02  0.00000000000E+00 0.  1.
          2   -1    0    0  501    0  0.00000000000E+00 -0.00000000000E+00 -0.63008255479E+02  0.63008255479E+02  0.00000000000E+00 0. -1.
         23    2    1    2    0    0 -0.95302277212E+01  0.12245436099E+02 -0.15304350772E+02  0.98669980846E+02  0.96232873915E+02 0.  0.
         11    1    3    3    0    0 -0.23789628360E+02 -0.33078115326E+02 -0.28062298538E+02  0.49473232462E+02  0.00000000000E+00 0. -1.
        -11    1    3    3    0    0  0.14259400639E+02  0.45323551425E+02  0.12757947766E+02  0.49196748384E+02  0.00000000000E+00 0.  1.
         22    1    1    2    0    0  0.95302277212E+01 -0.12245436099E+02  0.39761018201E+01  0.16018281161E+02  0.00000000000E+00 0.  1.
<mgrwt>
<rscale>  0 0.61570747E+02</rscale>
<asrwt>0</asrwt>
<pdfrwt beam="1">  1        2 0.96935777E-02 0.97475853E+02</pdfrwt>
<pdfrwt beam="2">  1       -2 0.79507703E-02 0.97475853E+02</pdfrwt>
<totfact> 0.55162420E+04</totfact>
</mgrwt>
</event>
<event>
 6    1  0.2866116E-002  0.9924405E+02  0.7546771E-02  0.1415202E+00
         -2   -1    0    0    0  501 -0.00000000000E+00  0.00000000000E+00  0.11805862474E+03  0.11805862474E+03  0.00000000000E+00 0. -1.
          2   -1    0    0  501    0  0.00000000000E+00 -0.00000000000E+00 -0.25316797147E+02  0.25316797147E+02  0.00000000000E+00 0.  1.
         23    2    1    2    0    0  0.28389389356E+01  0.96888523869E+01  0.84335124451E+02  0.13023745810E+03  0.98729169145E+02 0.  0.
         11    1    3    3    0    0  0.77822237932E+01  0.41058779007E+02  0.88825119087E+02  0.98164597088E+02  0.00000000000E+00 0. -1.
        -11    1    3    3    0    0 -0.49432848575E+01 -0.31369926620E+02 -0.44899946355E+01  0.32072861007E+02  0.00000000000E+00 0.  1.
         22    1    1    2    0    0 -0.28389389356E+01 -0.96888523869E+01  0.84067031368E+01  0.13137963788E+02  0.00000000000E+00 0.  1.
<mgrwt>
<rscale>  0 0.56049011E+02</rscale>
<asrwt>0</asrwt>
<pdfrwt beam="1">  1        2 0.38948919E-02 0.99244054E+02</pdfrwt>
<pdfrwt beam="2">  1       -2 0.18162865E-01 0.99244054E+02</pdfrwt>
<totfact> 0.47449987E+04</totfact>
</mgrwt>
</event>
<event>
 6    1  0.2866116E-002  0.9230035E+02  0.7546771E-02  0.1399436E+00
         -2   -1    0    0    0  501 -0.00000000000E+00  0.00000000000E+00  0.18985798527E+02  0.18985798527E+02  0.00000000000E+00 0.  1.
          2   -1    0    0  501    0  0.00000000000E+00 -0.00000000000E+00 -0.16160785288E+03  0.16160785288E+03  0.00000000000E+00 0. -1.
         23    2    1    2    0    0  0.11825317060E+02  0.10877222328E+02 -0.13292081091E+03  0.16182489510E+03  0.90891158050E+02 0.  0.
         11    1    3    3    0    0  0.18810986018E+02  0.25776745023E+02 -0.43506749385E+01  0.32205933481E+02  0.00000000000E+00 0.  1.
        -11    1    3    3    0    0 -0.69856689578E+01 -0.14899522696E+02 -0.12857013597E+03  0.12961896162E+03  0.00000000000E+00 0. -1.
         22    1    1    2    0    0 -0.11825317060E+02 -0.10877222328E+02 -0.97012434496E+01  0.18768756315E+02  0.00000000000E+00 0.  1.
<mgrwt>
<rscale>  0 0.59619313E+02</rscale>
<asrwt>0</asrwt>
<pdfrwt beam="1">  1        2 0.24862745E-01 0.92300350E+02</pdfrwt>
<pdfrwt beam="2">  1       -2 0.29208922E-02 0.92300350E+02</pdfrwt>
<totfact> 0.81868087E+04</totfact>
</mgrwt>
</event>
<event>
 6    1  0.2866116E-002  0.9115814E+02  0.7546771E-02  0.1425261E+00
          1   -1    0    0  501    0  0.00000000000E+00  0.00000000000E+00  0.28710121714E+03  0.28710121714E+03  0.00000000000E+00 0. -1.
         -1   -1    0    0    0  501 -0.00000000000E+00 -0.00000000000E+00 -0.10931048246E+02  0.10931048246E+02  0.00000000000E+00 0.  1.
         23    2    1    2    0    0  0.33640178993E+00 -0.11156228673E+02  0.27063256974E+03  0.28557274659E+03  0.90472267486E+02 0.  0.
         13    1    3    3    0    0  0.10805970582E+02 -0.39583875901E+02  0.23608439835E+03  0.23962365363E+03  0.00000000000E+00 0. -1.
        -13    1    3    3    0    0 -0.10469568792E+02  0.28427647228E+02  0.34548171387E+02  0.45949092960E+02  0.00000000000E+00 0.  1.
         22    1    1    2    0    0 -0.33640178993E+00  0.11156228673E+02  0.55375991546E+01  0.12459518801E+02  0.00000000000E+00 0.  1.
<mgrwt>
<rscale>  0 0.53923152E+02</rscale>
<asrwt>0</asrwt>
<pdfrwt beam="1">  1        1 0.44169412E-01 0.91158136E+02</pdfrwt>
<pdfrwt beam="2">  1       -1 0.16816999E-02 0.91158136E+02</pdfrwt>
<totfact> 0.70838890E+04</totfact>
</mgrwt>
</event>
<event>
 6    1  0.2866116E-002  0.9713556E+02  0.7546771E-02  0.1347813E+00
         -1   -1    0    0    0  501 -0.00000000000E+00  0.00000000000E+00  0.64597475608E+01  0.64597475608E+01  0.00000000000E+00 0.  1.
          1   -1    0    0  501    0  0.00000000000E+00 -0.00000000000E+00 -0.21583881473E+04  0.21583881473E+04  0.00000000000E+00 0. -1.
         23    2    1    2    0    0 -0.11231681987E+02 -0.30245549325E+02 -0.21085517115E+04  0.21107879187E+04  0.91620816199E+02 0.  0.
         11    1    3    3    0    0  0.31165701506E+02  0.18687535656E+01 -0.33837459100E+03  0.33981194362E+03  0.00000000000E+00 0.  1.
        -11    1    3    3    0    0 -0.42397383493E+02 -0.32114302891E+02 -0.17701771205E+04  0.17709759751E+04  0.00000000000E+00 0. -1.
         22    1    1    2    0    0  0.11231681987E+02  0.30245549325E+02 -0.43376688255E+02  0.54059976121E+02  0.00000000000E+00 0.  1.
<mgrwt>
<rscale>  0 0.73741526E+02</rscale>
<asrwt>0</asrwt>
<pdfrwt beam="1">  1        1 0.33205954E+00 0.97135565E+02</pdfrwt>
<pdfrwt beam="2">  1       -1 0.99380784E-03 0.97135565E+02</pdfrwt>
<totfact> 0.49597211E+03</totfact>
</mgrwt>
</event>
<event>
 6    1  0.2866116E-002  0.9418226E+02  0.7546771E-02  0.1414650E+00
          1   -1    0    0  501    0  0.00000000000E+00  0.00000000000E+00  0.94682223486E+02  0.94682223486E+02  0.00000000000E+00 0. -1.
         -1   -1    0    0    0  501 -0.00000000000E+00 -0.00000000000E+00 -0.30484693841E+02  0.30484693841E+02  0.00000000000E+00 0.  1.
         23    2    1    2    0    0 -0.75762990606E+01 -0.91954268975E+01  0.49997089317E+02  0.10663023238E+03  0.93425592502E+02 0.  0.
         13    1    3    3    0    0  0.26208073473E+01 -0.19227078070E+02  0.75193249762E+02  0.77656770291E+02  0.00000000000E+00 0. -1.
        -13    1    3    3    0    0 -0.10197106408E+02  0.10031651173E+02 -0.25196160445E+02  0.28973462090E+02  0.00000000000E+00 0.  1.
         22    1    1    2    0    0  0.75762990606E+01  0.91954268975E+01  0.14200440327E+02  0.18536684945E+02  0.00000000000E+00 0.  1.
<mgrwt>
<rscale>  0 0.56168925E+02</rscale>
<asrwt>0</asrwt>
<pdfrwt beam="1">  1        1 0.14566496E-01 0.94182257E+02</pdfrwt>
<pdfrwt beam="2">  1       -1 0.46899529E-02 0.94182257E+02</pdfrwt>
<totfact> 0.64543458E+04</totfact>
</mgrwt>
</event>
<event>
 6    1  0.2866116E-002  0.9312360E+02  0.7546771E-02  0.1410363E+00
          2   -1    0    0  501    0  0.00000000000E+00  0.00000000000E+00  0.18363380707E+03  0.18363380707E+03  0.00000000000E+00 0. -1.
         -2   -1    0    0    0  501 -0.00000000000E+00 -0.00000000000E+00 -0.17443136569E+02  0.17443136569E+02  0.00000000000E+00 0.  1.
         23    2    1    2    0    0 -0.80809857966E+01 -0.10405985285E+02  0.16267001288E+03  0.18743942586E+03  0.92186866821E+02 0.  0.
         13    1    3    3    0    0  0.34640454884E+02 -0.28494880458E+02  0.61303878941E+02  0.75961074901E+02  0.00000000000E+00 0.  1.
        -13    1    3    3    0    0 -0.42721440680E+02  0.18088895173E+02  0.10136613394E+03  0.11147835096E+03  0.00000000000E+00 0. -1.
         22    1    1    2    0    0  0.80809857966E+01  0.10405985285E+02  0.35206576225E+01  0.13637517783E+02  0.00000000000E+00 0.  1.
<mgrwt>
<rscale>  0 0.57112929E+02</rscale>
<asrwt>0</asrwt>
<pdfrwt beam="1">  1        2 0.28251354E-01 0.93123602E+02</pdfrwt>
<pdfrwt beam="2">  1       -2 0.26835596E-02 0.93123602E+02</pdfrwt>
<totfact> 0.80719587E+04</totfact>
</mgrwt>
</event>
<event>
 6    1  0.2866116E-002  0.9556354E+02  0.7546771E-02  0.1355142E+00
         -2   -1    0    0    0  501 -0.00000000000E+00  0.00000000000E+00  0.58720572904E+02  0.58720572904E+02  0.00000000000E+00 0.  1.
          2   -1    0    0  501    0  0.00000000000E+00 -0.00000000000E+00 -0.12575391496E+03  0.12575391496E+03  0.00000000000E+00 0. -1.
         23    2    1    2    0    0 -0.29360521834E+02  0.56944914597E+01 -0.10111698673E+03  0.13912956192E+03  0.90763001929E+02 0.  0.
         13    1    3    3    0    0 -0.34033882479E+02  0.44732283351E+02 -0.61459896187E+02  0.83286260389E+02  0.00000000000E+00 0.  1.
        -13    1    3    3    0    0  0.46733606450E+01 -0.39037791891E+02 -0.39657090542E+02  0.55843301530E+02  0.00000000000E+00 0. -1.
         22    1    1    2    0    0  0.29360521834E+02 -0.56944914597E+01  0.34083644669E+02  0.45344925949E+02  0.00000000000E+00 0.  1.
<mgrwt>
<rscale>  0 0.71476740E+02</rscale>
<asrwt>0</asrwt>
<pdfrwt beam="1">  1        2 0.19346756E-01 0.95563539E+02</pdfrwt>
<pdfrwt beam="2">  1       -2 0.90339343E-02 0.95563539E+02</pdfrwt>
<totfact> 0.20128151E+04</totfact>
</mgrwt>
</event>
<event>
 6    1  0.2866116E-002  0.9240608E+02  0.7546771E-02  0.1374642E+00
          2   -1    0    0  501    0  0.00000000000E+00  0.00000000000E+00  0.30841779969E+03  0.30841779969E+03  0.00000000000E+00 0. -1.
         -2   -1    0    0    0  501 -0.00000000000E+00 -0.00000000000E+00 -0.12435812758E+02  0.12435812758E+02  0.00000000000E+00 0.  1.
         23    2    1    2    0    0  0.23715633831E+02  0.29023764013E+01  0.27083922059E+03  0.28616912347E+03  0.89263815382E+02 0.  0.
         11    1    3    3    0    0  0.47353090751E+02  0.25113801656E+02  0.11348192893E+03  0.12550365106E+03  0.00000000000E+00 0.  1.
        -11    1    3    3    0    0 -0.23637456921E+02 -0.22211425255E+02  0.15735729167E+03  0.16066547240E+03  0.00000000000E+00 0. -1.
         22    1    1    2    0    0 -0.23715633831E+02 -0.29023764013E+01  0.25142766338E+02  0.34684488981E+02  0.00000000000E+00 0.  1.
<mgrwt>
<rscale>  0 0.65893283E+02</rscale>
<asrwt>0</asrwt>
<pdfrwt beam="1">  1        2 0.47448886E-01 0.92406081E+02</pdfrwt>
<pdfrwt beam="2">  1       -2 0.19132022E-02 0.92406081E+02</pdfrwt>
<totfact> 0.75950521E+04</totfact>
</mgrwt>
</event>
<event>
 6    1  0.2866116E-002  0.9280518E+02  0.7546771E-02  0.1419545E+00
         -2   -1    0    0    0  501 -0.00000000000E+00  0.00000000000E+00  0.23951773152E+01  0.23951773152E+01  0.00000000000E+00 0.  1.
          2   -1    0    0  501    0  0.00000000000E+00 -0.00000000000E+00 -0.12437804840E+04  0.12437804840E+04  0.00000000000E+00 0. -1.
         23    2    1    2    0    0  0.33755546157E+01  0.11041722482E+02 -0.11845198885E+04  0.11881498930E+04  0.92084135217E+02 0.  0.
         11    1    3    3    0    0  0.21469495034E+02 -0.31953219469E+02 -0.30908314474E+03  0.31147124717E+03  0.00000000000E+00 0.  1.
        -11    1    3    3    0    0 -0.18093940419E+02  0.42994941952E+02 -0.87543674373E+03  0.87667864579E+03  0.00000000000E+00 0. -1.
         22    1    1    2    0    0 -0.33755546157E+01 -0.11041722482E+02 -0.56865418227E+02  0.58025768366E+02  0.00000000000E+00 0. -1.
<mgrwt>
<rscale>  0 0.55117390E+02</rscale>
<asrwt>0</asrwt>
<pdfrwt beam="1">  1        2 0.19135068E+00 0.92805183E+02</pdfrwt>
<pdfrwt beam="2">  1       -2 0.36848914E-03 0.92805183E+02</pdfrwt>
<totfact> 0.15026256E+05</totfact>
</mgrwt>
</event>
<event>
 6    1  0.2866116E-002  0.9517862E+02  0.7546771E-02  0.1375330E+00
          2   -1    0    0  501    0  0.00000000000E+00  0.00000000000E+00  0.20263757052E+04  0.20263757052E+04  0.00000000000E+00 0. -1.
         -2   -1    0    0    0  501 -0.00000000000E+00 -0.00000000000E+00 -0.37562027139E+01  0.37562027139E+01  0.00000000000E+00 0.  1.
         23    2    1    2    0    0  0.15054349472E+02  0.15516188353E+02  0.19805215834E+04  0.19828072808E+04  0.92690803173E+02 0.  0.
         11    1    3    3    0    0  0.27255847455E+02  0.38679624804E+02  0.54591902342E+03  0.54796585179E+03  0.00000000000E+00 0.  1.
        -11    1    3    3    0    0 -0.12201497984E+02 -0.23163436451E+02  0.14346025600E+04  0.14348414290E+04  0.00000000000E+00 0. -1.
         22    1    1    2    0    0 -0.15054349472E+02 -0.15516188353E+02  0.42097919101E+02  0.47324627116E+02  0.00000000000E+00 0.  1.
<mgrwt>
<rscale>  0 0.65707354E+02</rscale>
<asrwt>0</asrwt>
<pdfrwt beam="1">  1        2 0.31174924E+00 0.95178624E+02</pdfrwt>
<pdfrwt beam="2">  1       -2 0.57787896E-03 0.95178624E+02</pdfrwt>
<totfact> 0.31972091E+04</totfact>
</mgrwt>
</event>
<event>
 6    1  0.2866116E-002  0.9238849E+02  0.7546771E-02  0.1397187E+00
         -1   -1    0    0    0  501 -0.00000000000E+00  0.00000000000E+00  0.10201474201E+02  0.10201474201E+02  0.00000000000E+00 0.  1.
          1   -1    0    0  501    0  0.00000000000E+00 -0.00000000000E+00 -0.38723562625E+03  0.38723562625E+03  0.00000000000E+00 0. -1.
         23    2    1    2    0    0 -0.15822504799E+02 -0.50327803686E+01 -0.36604973685E+03  0.37752886312E+03  0.90884278651E+02 0.  0.
         13    1    3    3    0    0 -0.12565308816E+02 -0.67479596232E+01 -0.31447214127E+01  0.14605177762E+02  0.00000000000E+00 0.  1.
        -13    1    3    3    0    0 -0.32571959836E+01  0.17151792546E+01 -0.36290501543E+03  0.36292368536E+03  0.00000000000E+00 0. -1.
         22    1    1    2    0    0  0.15822504799E+02  0.50327803686E+01 -0.10984415206E+02  0.19908237335E+02  0.00000000000E+00 0.  1.
<mgrwt>
<rscale>  0 0.60153951E+02</rscale>
<asrwt>0</asrwt>
<pdfrwt beam="1">  1        1 0.59574714E-01 0.92388488E+02</pdfrwt>
<pdfrwt beam="2">  1       -1 0.15694575E-02 0.92388488E+02</pdfrwt>
<totfact> 0.54219417E+04</totfact>
</mgrwt>
</event>
<event>
 6    1  0.2866116E-002  0.9593408E+02  0.7546771E-02  0.1357191E+00
          2   -1    0    0  501    0  0.00000000000E+00  0.00000000000E+00  0.10106039061E+04  0.10106039061E+04  0.00000000000E+00 0. -1.
         -2   -1    0    0    0  501 -0.00000000000E+00 -0.00000000000E+00 -0.52772086911E+01  0.52772086911E+01  0.00000000000E+00 0.  1.
         23    2    1    2    0    0 -0.16856637504E+02 -0.23050308312E+02  0.93599930097E+03  0.94090277900E+03  0.91585398233E+02 0.  0.
         11    1    3    3    0    0 -0.16764217820E+02 -0.38965976308E+02  0.90556527155E+03  0.90655824267E+03  0.00000000000E+00 0. -1.
        -11    1    3    3    0    0 -0.92419684557E-01  0.15915667996E+02  0.30434029421E+02  0.34344536333E+02  0.00000000000E+00 0.  1.
         22    1    1    2    0    0  0.16856637504E+02  0.23050308312E+02  0.69327396441E+02  0.74978335795E+02  0.00000000000E+00 0.  1.
<mgrwt>
<rscale>  0 0.70860665E+02</rscale>
<asrwt>0</asrwt>
<pdfrwt beam="1">  1        2 0.15547737E+00 0.95934082E+02</pdfrwt>
<pdfrwt beam="2">  1       -2 0.81187906E-03 0.95934082E+02</pdfrwt>
<totfact> 0.67144012E+04</totfact>
</mgrwt>
</event>
<event>
 6    1  0.2866116E-002  0.8987541E+02  0.7546771E-02  0.1416554E+00
          2   -1    0    0  501    0  0.00000000000E+00  0.00000000000E+00  0.50196451290E+02  0.50196451290E+02  0.00000000000E+00 0. -1.
         -2   -1    0    0    0  501 -0.00000000000E+00 -0.00000000000E+00 -0.55272320424E+02  0.55272320424E+02  0.00000000000E+00 0.  1.
         23    2    1    2    0    0  0.13021919231E+02  0.27675375961E+01  0.29500853547E+01  0.89923817861E+02  0.88883971392E+02 0.  0.
         13    1    3    3    0    0 -0.29260835066E+01 -0.13875480050E+02 -0.39308077976E+02  0.41787748270E+02  0.00000000000E+00 0.  1.
        -13    1    3    3    0    0  0.15948002737E+02  0.16643017646E+02  0.42258163330E+02  0.48136069592E+02  0.00000000000E+00 0. -1.
         22    1    1    2    0    0 -0.13021919231E+02 -0.27675375961E+01 -0.80259544888E+01  0.15544953852E+02  0.00000000000E+00 0. -1.
<mgrwt>
<rscale>  0 0.55756785E+02</rscale>
<asrwt>0</asrwt>
<pdfrwt beam="1">  1        2 0.77225310E-02 0.89875414E+02</pdfrwt>
<pdfrwt beam="2">  1       -2 0.85034339E-02 0.89875414E+02</pdfrwt>
<totfact> 0.65079627E+04</totfact>
</mgrwt>
</event>
<event>
 6    1  0.2866116E-002  0.9537823E+02  0.7546771E-02  0.1381622E+00
          2   -1    0    0  501    0  0.00000000000E+00  0.00000000000E+00  0.43686222054E+02  0.43686222054E+02  0.00000000000E+00 0. -1.
         -2   -1    0    0    0  501 -0.00000000000E+00 -0.00000000000E+00 -0.89818203013E+02  0.89818203013E+02  0.00000000000E+00 0.  1.
         23    2    1    2    0    0 -0.19108194917E+02  0.32569728594E+01 -0.14597498131E+02  0.96488825755E+02  0.93387769856E+02 0.  0.
         13    1    3    3    0    0  0.24416987135E+02 -0.15555750685E+02  0.22188274396E+02  0.36475884648E+02  0.00000000000E+00 0. -1.
        -13    1    3    3    0    0 -0.43525182053E+02  0.18812723544E+02 -0.36785772528E+02  0.60012941107E+02  0.00000000000E+00 0.  1.
         22    1    1    2    0    0  0.19108194917E+02 -0.32569728594E+01 -0.31534482828E+02  0.37015599312E+02  0.00000000000E+00 0.  1.
<mgrwt>
<rscale>  0 0.64039299E+02</rscale>
<asrwt>0</asrwt>
<pdfrwt beam="1">  1        2 0.67209573E-02 0.95378229E+02</pdfrwt>
<pdfrwt beam="2">  1       -2 0.13818185E-01 0.95378229E+02</pdfrwt>
<totfact> 0.36478126E+04</totfact>
</mgrwt>
</event>
<event>
 6    1  0.2866116E-002  0.9164544E+02  0.7546771E-02  0.1383590E+00
          1   -1    0    0  501    0  0.00000000000E+00  0.00000000000E+00  0.33705466833E+03  0.33705466833E+03  0.00000000000E+00 0. -1.
         -1   -1    0    0    0  501 -0.00000000000E+00 -0.00000000000E+00 -0.94436319963E+01  0.94436319963E+01  0.00000000000E+00 0.  1.
         23    2    1    2    0    0  0.17415317676E+02  0.12023498901E+02  0.26913693342E+03  0.28431246169E+03  0.89168543359E+02 0.  0.
         11    1    3    3    0    0  0.48984773913E+01 -0.59256800488E+01 -0.50857217681E+01  0.92180979978E+01  0.00000000000E+00 0.  1.
        -11    1    3    3    0    0  0.12516840284E+02  0.17949178950E+02  0.27422265519E+03  0.27509436369E+03  0.00000000000E+00 0. -1.
         22    1    1    2    0    0 -0.17415317676E+02 -0.12023498901E+02  0.58474102911E+02  0.62185838636E+02  0.00000000000E+00 0. -1.
<mgrwt>
<rscale>  0 0.63529534E+02</rscale>
<asrwt>0</asrwt>
<pdfrwt beam="1">  1        1 0.51854555E-01 0.91645441E+02</pdfrwt>
<pdfrwt beam="2">  1       -1 0.14528667E-02 0.91645441E+02</pdfrwt>
<totfact> 0.71716342E+04</totfact>
</mgrwt>
</event>
<event>
 6    1  0.2866116E-002  0.9287431E+02  0.7546771E-02  0.1409769E+00
         -2   -1    0    0    0  501 -0.00000000000E+00  0.00000000000E+00  0.44652901405E+01  0.44652901405E+01  0.00000000000E+00 0.  1.
          2   -1    0    0  501    0  0.00000000000E+00 -0.00000000000E+00 -0.75201666998E+03  0.75201666998E+03  0.00000000000E+00 0. -1.
         23    2    1    2    0    0  0.12609861116E+02  0.45489524872E+01 -0.71860979693E+03  0.72458655626E+03  0.91901772040E+02 0.  0.
         11    1    3    3    0    0  0.30441633135E+02  0.36878604854E+02 -0.25053465200E+03  0.25505751582E+03  0.00000000000E+00 0. -1.
        -11    1    3    3    0    0 -0.17831772019E+02 -0.32329652367E+02 -0.46807514493E+03  0.46952904044E+03  0.00000000000E+00 0.  1.
         22    1    1    2    0    0 -0.12609861116E+02 -0.45489524872E+01 -0.28941582914E+02  0.31895403865E+02  0.00000000000E+00 0. -1.
<mgrwt>
<rscale>  0 0.57245411E+02</rscale>
<asrwt>0</asrwt>
<pdfrwt beam="1">  1        2 0.11569493E+00 0.92874309E+02</pdfrwt>
<pdfrwt beam="2">  1       -2 0.68696738E-03 0.92874309E+02</pdfrwt>
<totfact> 0.12321104E+05</totfact>
</mgrwt>
</event>
<event>
 6    1  0.2866116E-002  0.9057232E+02  0.7546771E-02  0.1400632E+00
          2   -1    0    0  501    0  0.00000000000E+00  0.00000000000E+00  0.24741633811E+03  0.24741633811E+03  0.00000000000E+00 0. -1.
         -2   -1    0    0    0  501 -0.00000000000E+00 -0.00000000000E+00 -0.17889122438E+02  0.17889122438E+02  0.00000000000E+00 0.  1.
         23    2    1    2    0    0  0.87727704534E+01 -0.14193037741E+02  0.23142029729E+03  0.24851297473E+03  0.89022136518E+02 0.  0.
         13    1    3    3    0    0 -0.16934211595E+02 -0.84921524055E+00  0.21408977187E+03  0.21476014320E+03  0.00000000000E+00 0. -1.
        -13    1    3    3    0    0  0.25706982048E+02 -0.13343822500E+02  0.17330525421E+02  0.33752831530E+02  0.00000000000E+00 0.  1.
         22    1    1    2    0    0 -0.87727704534E+01  0.14193037741E+02 -0.18930816229E+01  0.16792485813E+02  0.00000000000E+00 0.  1.
<mgrwt>
<rscale>  0 0.59337741E+02</rscale>
<asrwt>0</asrwt>
<pdfrwt beam="1">  1        2 0.38064050E-01 0.90572317E+02</pdfrwt>
<pdfrwt beam="2">  1       -2 0.27521729E-02 0.90572317E+02</pdfrwt>
<totfact> 0.56467738E+04</totfact>
</mgrwt>
</event>
<event>
 6    1  0.2866116E-002  0.9214826E+02  0.7546771E-02  0.1397425E+00
          2   -1    0    0  501    0  0.00000000000E+00  0.00000000000E+00  0.32496854274E+03  0.32496854274E+03  0.00000000000E+00 0. -1.
         -2   -1    0    0    0  501 -0.00000000000E+00 -0.00000000000E+00 -0.10393688390E+02  0.10393688390E+02  0.00000000000E+00 0.  1.
         23    2    1    2    0    0  0.11122439274E+02 -0.12417831318E+02  0.29772528812E+03  0.31165950824E+03  0.90627759006E+02 0.  0.
         13    1    3    3    0    0 -0.34092657625E+02 -0.85507226822E+01  0.59137942780E+02  0.68794770431E+02  0.00000000000E+00 0.  1.
        -13    1    3    3    0    0  0.45215096899E+02 -0.38671086361E+01  0.23858734533E+03  0.24286473781E+03  0.00000000000E+00 0. -1.
         22    1    1    2    0    0 -0.11122439274E+02  0.12417831318E+02  0.16849566230E+02  0.23702722886E+02  0.00000000000E+00 0. -1.
<mgrwt>
<rscale>  0 0.60097113E+02</rscale>
<asrwt>0</asrwt>
<pdfrwt beam="1">  1        2 0.49995153E-01 0.92148260E+02</pdfrwt>
<pdfrwt beam="2">  1       -2 0.15990292E-02 0.92148260E+02</pdfrwt>
<totfact> 0.92937939E+04</totfact>
</mgrwt>
</event>
<event>
 6    1  0.2866116E-002  0.9062877E+02  0.7546771E-02  0.1422803E+00
          2   -1    0    0  501    0  0.00000000000E+00  0.00000000000E+00  0.15888899531E+02  0.15888899531E+02  0.00000000000E+00 0. -1.
         -2   -1    0    0    0  501 -0.00000000000E+00 -0.00000000000E+00 -0.16557717158E+03  0.16557717158E+03  0.00000000000E+00 0.  1.
         23    2    1    2    0    0 -0.61864532445E+01  0.10040181342E+02 -0.13552820576E+03  0.16303824100E+03  0.89858199563E+02 0.  0.
         11    1    3    3    0    0 -0.46854261059E+02 -0.31877454176E+01 -0.59416522937E+02  0.75735108755E+02  0.00000000000E+00 0.  1.
        -11    1    3    3    0    0  0.40667807814E+02  0.13227926760E+02 -0.76111682818E+02  0.87303132247E+02  0.00000000000E+00 0. -1.
         22    1    1    2    0    0  0.61864532445E+01 -0.10040181342E+02 -0.14160066298E+02  0.18427830113E+02  0.00000000000E+00 0. -1.
<mgrwt>
<rscale>  0 0.54432295E+02</rscale>
<asrwt>0</asrwt>
<pdfrwt beam="1">  1        2 0.24444459E-02 0.90628767E+02</pdfrwt>
<pdfrwt beam="2">  1       -2 0.25473413E-01 0.90628767E+02</pdfrwt>
<totfact> 0.48983146E+04</totfact>
</mgrwt>
</event>
<event>
 6    1  0.2866116E-002  0.9037403E+02  0.7546771E-02  0.1397020E+00
          2   -1    0    0  501    0  0.00000000000E+00  0.00000000000E+00  0.11897689825E+03  0.11897689825E+03  0.00000000000E+00 0. -1.
         -2   -1    0    0    0  501 -0.00000000000E+00 -0.00000000000E+00 -0.78948840922E+02  0.78948840922E+02  0.00000000000E+00 0.  1.
         23    2    1    2    0    0 -0.16863406205E+02 -0.56537783466E+01  0.10034396627E+03  0.13504212803E+03  0.88606574797E+02 0.  0.
         11    1    3    3    0    0 -0.31697578503E+02  0.27914846921E+02  0.85671849865E+02  0.95517752386E+02  0.00000000000E+00 0. -1.
        -11    1    3    3    0    0  0.14834172298E+02 -0.33568625267E+02  0.14672116403E+02  0.39524375641E+02  0.00000000000E+00 0.  1.
         22    1    1    2    0    0  0.16863406205E+02  0.56537783466E+01 -0.60315908944E+02  0.62883611141E+02  0.00000000000E+00 0.  1.
<mgrwt>
<rscale>  0 0.60193824E+02</rscale>
<asrwt>0</asrwt>
<pdfrwt beam="1">  1        2 0.18304138E-01 0.90374027E+02</pdfrwt>
<pdfrwt beam="2">  1       -2 0.12145976E-01 0.90374027E+02</pdfrwt>
<totfact> 0.13411781E+04</totfact>
</mgrwt>
</event>
<event>
 6    1  0.2866116E-002  0.9296047E+02  0.7546771E-02  0.1397714E+00
          2   -1    0    0  501    0  0.00000000000E+00  0.00000000000E+00  0.18021230162E+04  0.18021230162E+04  0.00000000000E+00 0. -1.
         -2   -1    0    0    0  501 -0.00000000000E+00 -0.00000000000E+00 -0.23199618484E+01  0.23199618484E+01  0.00000000000E+00 0.  1.
         23    2    1    2    0    0 -0.16008044183E+02 -0.22330112365E+01  0.17403815458E+04  0.17428624657E+04  0.91544555849E+02 0.  0.
         11    1    3    3    0    0  0.13887063250E+02  0.21336091732E+02  0.14198473960E+04  0.14200755991E+04  0.00000000000E+00 0. -1.
        -11    1    3    3    0    0 -0.29895107432E+02 -0.23569102968E+02  0.32053414975E+03  0.32278686656E+03  0.00000000000E+00 0.  1.
         22    1    1    2    0    0  0.16008044183E+02  0.22330112365E+01  0.59421508576E+02  0.61580512333E+02  0.00000000000E+00 0. -1.
<mgrwt>
<rscale>  0 0.60028086E+02</rscale>
<asrwt>0</asrwt>
<pdfrwt beam="1">  1        2 0.27724858E+00 0.92960473E+02</pdfrwt>
<pdfrwt beam="2">  1       -2 0.35691865E-03 0.92960473E+02</pdfrwt>
<totfact> 0.81234758E+04</totfact>
</mgrwt>
</event>
<event>
 6    1  0.2866116E-002  0.9354087E+02  0.7546771E-02  0.1363592E+00
          2   -1    0    0  501    0  0.00000000000E+00  0.00000000000E+00  0.55046235352E+03  0.55046235352E+03  0.00000000000E+00 0. -1.
         -2   -1    0    0    0  501 -0.00000000000E+00 -0.00000000000E+00 -0.87705747286E+01  0.87705747286E+01  0.00000000000E+00 0.  1.
         23    2    1    2    0    0  0.17967940010E+02  0.21034979358E+02  0.50326231537E+03  0.51188167818E+03  0.89356461171E+02 0.  0.
         13    1    3    3    0    0  0.96222179378E+01  0.32120303234E+02  0.49413902966E+03  0.49527535936E+03  0.00000000000E+00 0. -1.
        -13    1    3    3    0    0  0.83457220725E+01 -0.11085323876E+02  0.91232857132E+01  0.16606318814E+02  0.00000000000E+00 0.  1.
         22    1    1    2    0    0 -0.17967940010E+02 -0.21034979358E+02  0.38429463419E+02  0.47351250073E+02  0.00000000000E+00 0.  1.
<mgrwt>
<rscale>  0 0.68981279E+02</rscale>
<asrwt>0</asrwt>
<pdfrwt beam="1">  1        2 0.84686489E-01 0.93540870E+02</pdfrwt>
<pdfrwt beam="2">  1       -2 0.13493196E-02 0.93540870E+02</pdfrwt>
<totfact> 0.67733408E+04</totfact>
</mgrwt>
</event>
<event>
 6    1  0.2866116E-002  0.9629264E+02  0.7546771E-02  0.1388700E+00
         -2   -1    0    0    0  501 -0.00000000000E+00  0.00000000000E+00  0.64850807901E+01  0.64850807901E+01  0.00000000000E+00 0.  1.
          2   -1    0    0  501    0  0.00000000000E+00 -0.00000000000E+00 -0.49885772737E+03  0.49885772737E+03  0.00000000000E+00 0. -1.
         23    2    1    2    0    0 -0.11071804791E+02 -0.12632479942E+02 -0.39768842585E+03  0.40918010194E+03  0.94816176702E+02 0.  0.
         11    1    3    3    0    0  0.25159378379E+02  0.18462499821E+02 -0.28622682829E+03  0.28792300265E+03  0.00000000000E+00 0. -1.
        -11    1    3    3    0    0 -0.36231183169E+02 -0.31094979762E+02 -0.11146159755E+03  0.12125709929E+03  0.00000000000E+00 0.  1.
         22    1    1    2    0    0  0.11071804791E+02  0.12632479942E+02 -0.94684220735E+02  0.96162706217E+02  0.00000000000E+00 0.  1.
<mgrwt>
<rscale>  0 0.62231116E+02</rscale>
<asrwt>0</asrwt>
<pdfrwt beam="1">  1        2 0.76747349E-01 0.96292636E+02</pdfrwt>
<pdfrwt beam="2">  1       -2 0.99770466E-03 0.96292636E+02</pdfrwt>
<totfact> 0.11627525E+05</totfact>
</mgrwt>
</event>
<event>
 6    1  0.2866116E-002  0.9691581E+02  0.7546771E-02  0.1347255E+00
          2   -1    0    0  501    0  0.00000000000E+00  0.00000000000E+00  0.68934421453E+03  0.68934421453E+03  0.00000000000E+00 0. -1.
         -2   -1    0    0    0  501 -0.00000000000E+00 -0.00000000000E+00 -0.11908540190E+02  0.11908540190E+02  0.00000000000E+00 0.  1.
         23    2    1    2    0    0  0.32792414497E+02 -0.46616216401E+00  0.65350993322E+03  0.66065717807E+03  0.91198214653E+02 0.  0.
         13    1    3    3    0    0 -0.76806177684E+01 -0.39722858013E+02  0.28576681491E+03  0.28861664859E+03  0.00000000000E+00 0. -1.
        -13    1    3    3    0    0  0.40473032265E+02  0.39256695849E+02  0.36774311831E+03  0.37204052948E+03  0.00000000000E+00 0.  1.
         22    1    1    2    0    0 -0.32792414497E+02  0.46616216401E+00  0.23925741117E+02  0.40595576652E+02  0.00000000000E+00 0.  1.
<mgrwt>
<rscale>  0 0.73918014E+02</rscale>
<asrwt>0</asrwt>
<pdfrwt beam="1">  1        2 0.10605293E+00 0.96915809E+02</pdfrwt>
<pdfrwt beam="2">  1       -2 0.18320836E-02 0.96915809E+02</pdfrwt>
<totfact> 0.34064796E+04</totfact>
</mgrwt>
</event>
<event>
 6    1  0.2866116E-002  0.9408882E+02  0.7546771E-02  0.1375532E+00
         -2   -1    0    0    0  501 -0.00000000000E+00  0.00000000000E+00  0.47300379156E+02  0.47300379156E+02  0.00000000000E+00 0. -1.
          2   -1    0    0  501    0  0.00000000000E+00 -0.00000000000E+00 -0.83615864753E+02  0.83615864753E+02  0.00000000000E+00 0.  1.
         23    2    1    2    0    0 -0.11749045012E+02 -0.18959897431E+02 -0.48120196244E+02  0.10567998106E+03  0.91406713868E+02 0.  0.
         11    1    3    3    0    0 -0.13526730135E+02 -0.22451533984E+02 -0.74517723636E+02  0.78993258841E+02  0.00000000000E+00 0.  1.
        -11    1    3    3    0    0  0.17776851226E+01  0.34916365532E+01  0.26397527392E+02  0.26686722216E+02  0.00000000000E+00 0. -1.
         22    1    1    2    0    0  0.11749045012E+02  0.18959897431E+02  0.11804710647E+02  0.25236262852E+02  0.00000000000E+00 0. -1.
<mgrwt>
<rscale>  0 0.65653000E+02</rscale>
<asrwt>0</asrwt>
<pdfrwt beam="1">  1        2 0.12863979E-01 0.94088815E+02</pdfrwt>
<pdfrwt beam="2">  1       -2 0.72769814E-02 0.94088815E+02</pdfrwt>
<totfact> 0.44756030E+04</totfact>
</mgrwt>
</event>
<event>
 6    1  0.2866116E-002  0.9083317E+02  0.7546771E-02  0.1385134E+00
          3   -1    0    0  501    0  0.00000000000E+00  0.00000000000E+00  0.12000271464E+02  0.12000271464E+02  0.00000000000E+00 0. -1.
         -3   -1    0    0    0  501 -0.00000000000E+00 -0.00000000000E+00 -0.26839947267E+03  0.26839947267E+03  0.00000000000E+00 0.  1.
         23    2    1    2    0    0  0.13194912418E+02  0.16591084567E+02 -0.18804408480E+03  0.20883304979E+03  0.88324940163E+02 0.  0.
         11    1    3    3    0    0  0.10216815859E+02 -0.25101437798E+02 -0.15336956672E+02  0.31139809662E+02  0.00000000000E+00 0. -1.
        -11    1    3    3    0    0  0.29780965593E+01  0.41692522365E+02 -0.17270712813E+03  0.17769324013E+03  0.00000000000E+00 0.  1.
         22    1    1    2    0    0 -0.13194912418E+02 -0.16591084567E+02 -0.68355116404E+02  0.71566694345E+02  0.00000000000E+00 0. -1.
<mgrwt>
<rscale>  0 0.63133351E+02</rscale>
<asrwt>0</asrwt>
<pdfrwt beam="1">  1        3 0.18461956E-02 0.90833170E+02</pdfrwt>
<pdfrwt beam="2">  1       -3 0.41292228E-01 0.90833170E+02</pdfrwt>
<totfact> 0.12957622E+04</totfact>
</mgrwt>
</event>
<event>
 6    1  0.2866116E-002  0.9539069E+02  0.7546771E-02  0.1349436E+00
          3   -1    0    0  501    0  0.00000000000E+00  0.00000000000E+00  0.15574051194E+03  0.15574051194E+03  0.00000000000E+00 0. -1.
         -3   -1    0    0    0  501 -0.00000000000E+00 -0.00000000000E+00 -0.26874209542E+02  0.26874209542E+02  0.00000000000E+00 0.  1.
         23    2    1    2    0    0  0.27591830092E+02  0.18345930509E+02  0.10446513525E+03  0.14146500445E+03  0.89451108126E+02 0.  0.
         11    1    3    3    0    0  0.25955657454E+02  0.66665597700E+01  0.11943681302E+03  0.12240625588E+03  0.00000000000E+00 0. -1.
        -11    1    3    3    0    0  0.16361726378E+01  0.11679370739E+02 -0.14971677768E+02  0.19058748567E+02  0.00000000000E+00 0.  1.
         22    1    1    2    0    0 -0.27591830092E+02 -0.18345930509E+02  0.24401167139E+02  0.41149717032E+02  0.00000000000E+00 0. -1.
<mgrwt>
<rscale>  0 0.73231672E+02</rscale>
<asrwt>0</asrwt>
<pdfrwt beam="1">  1        3 0.23960078E-01 0.95390686E+02</pdfrwt>
<pdfrwt beam="2">  1       -3 0.41344939E-02 0.95390686E+02</pdfrwt>
<totfact> 0.10448005E+04</totfact>
</mgrwt>
</event>
<event>
 6    1  0.2866116E-002  0.9727345E+02  0.7546771E-02  0.1354780E+00
         -2   -1    0    0    0  501 -0.00000000000E+00  0.00000000000E+00  0.75735895084E+01  0.75735895084E+01  0.00000000000E+00 0.  1.
          2   -1    0    0  501    0  0.00000000000E+00 -0.00000000000E+00 -0.55807302532E+03  0.55807302532E+03  0.00000000000E+00 0. -1.
         23    2    1    2    0    0 -0.18254279247E+02 -0.21928733562E+02 -0.47670525423E+03  0.48652854293E+03  0.92994814927E+02 0.  0.
         11    1    3    3    0    0 -0.17800894127E+02  0.33707717343E+02 -0.26072825359E+03  0.26350010296E+03  0.00000000000E+00 0. -1.
        -11    1    3    3    0    0 -0.45338511964E+00 -0.55636450904E+02 -0.21597700065E+03  0.22302843997E+03  0.00000000000E+00 0.  1.
         22    1    1    2    0    0  0.18254279247E+02  0.21928733562E+02 -0.73794181575E+02  0.79118071898E+02  0.00000000000E+00 0.  1.
<mgrwt>
<rscale>  0 0.71586257E+02</rscale>
<asrwt>0</asrwt>
<pdfrwt beam="1">  1        2 0.85857395E-01 0.97273448E+02</pdfrwt>
<pdfrwt beam="2">  1       -2 0.11651675E-02 0.97273448E+02</pdfrwt>
<totfact> 0.82634978E+04</totfact>
</mgrwt>
</event>
<event>
 6    1  0.2866116E-002  0.9480526E+02  0.7546771E-02  0.1370185E+00
          4   -1    0    0  501    0  0.00000000000E+00  0.00000000000E+00  0.40414212893E+02  0.40414212893E+02  0.00000000000E+00 0. -1.
         -4   -1    0    0    0  501 -0.00000000000E+00 -0.00000000000E+00 -0.97247042716E+02  0.97247042716E+02  0.00000000000E+00 0.  1.
         23    2    1    2    0    0 -0.23335809911E+02  0.47407257160E+01 -0.25255122522E+02  0.98111462905E+02  0.91766025495E+02 0.  0.
         11    1    3    3    0    0  0.92444253035E+01  0.38096537834E+02  0.90391490589E+01  0.40230732156E+02  0.00000000000E+00 0. -1.
        -11    1    3    3    0    0 -0.32580235215E+02 -0.33355812118E+02 -0.34294271581E+02  0.57880730748E+02  0.00000000000E+00 0.  1.
         22    1    1    2    0    0  0.23335809911E+02 -0.47407257160E+01 -0.31577707302E+02  0.39549792704E+02  0.00000000000E+00 0.  1.
<mgrwt>
<rscale>  0 0.67115916E+02</rscale>
<asrwt>0</asrwt>
<pdfrwt beam="1">  1        4 0.62175712E-02 0.94805263E+02</pdfrwt>
<pdfrwt beam="2">  1       -4 0.14961083E-01 0.94805263E+02</pdfrwt>
<totfact> 0.93372271E+03</totfact>
</mgrwt>
</event>
<event>
 6    1  0.2866116E-002  0.9235738E+02  0.7546771E-02  0.1400106E+00
          2   -1    0    0  501    0  0.00000000000E+00  0.00000000000E+00  0.19593790016E+02  0.19593790016E+02  0.00000000000E+00 0. -1.
         -2   -1    0    0    0  501 -0.00000000000E+00 -0.00000000000E+00 -0.14958793073E+03  0.14958793073E+03  0.00000000000E+00 0.  1.
         23    2    1    2    0    0 -0.54837872299E+01 -0.14890381242E+02 -0.11274353332E+03  0.14574288904E+03  0.90984009730E+02 0.  0.
         13    1    3    3    0    0  0.11317249034E+02  0.45940831264E+00  0.13409908610E+02  0.17553256981E+02  0.00000000000E+00 0. -1.
        -13    1    3    3    0    0 -0.16801036264E+02 -0.15349789555E+02 -0.12615344193E+03  0.12818963206E+03  0.00000000000E+00 0.  1.
         22    1    1    2    0    0  0.54837872299E+01  0.14890381242E+02 -0.17250607402E+02  0.23438831704E+02  0.00000000000E+00 0.  1.
<mgrwt>
<rscale>  0 0.59461337E+02</rscale>
<asrwt>0</asrwt>
<pdfrwt beam="1">  1        2 0.30144292E-02 0.92357379E+02</pdfrwt>
<pdfrwt beam="2">  1       -2 0.23013528E-01 0.92357379E+02</pdfrwt>
<totfact> 0.44238076E+04</totfact>
</mgrwt>
</event>
<event>
 6    1  0.2866116E-002  0.9272913E+02  0.7546771E-02  0.1418448E+00
         -2   -1    0    0    0  501 -0.00000000000E+00  0.00000000000E+00  0.61171020822E+01  0.61171020822E+01  0.00000000000E+00 0.  1.
          2   -1    0    0  501    0  0.00000000000E+00 -0.00000000000E+00 -0.51389719142E+03  0.51389719142E+03  0.00000000000E+00 0. -1.
         23    2    1    2    0    0  0.41795878036E+01  0.11004749891E+02 -0.48995610906E+03  0.49865386871E+03  0.91978902468E+02 0.  0.
         13    1    3    3    0    0 -0.30988825344E+02  0.88888810068E+01 -0.41017111450E+03  0.41143609792E+03  0.00000000000E+00 0. -1.
        -13    1    3    3    0    0  0.35168413148E+02  0.21158688842E+01 -0.79784994559E+02  0.87217770788E+02  0.00000000000E+00 0.  1.
         22    1    1    2    0    0 -0.41795878036E+01 -0.11004749891E+02 -0.17823980275E+02  0.21360424790E+02  0.00000000000E+00 0.  1.
<mgrwt>
<rscale>  0 0.55350578E+02</rscale>
<asrwt>0</asrwt>
<pdfrwt beam="1">  1        2 0.79061132E-01 0.92729132E+02</pdfrwt>
<pdfrwt beam="2">  1       -2 0.94109232E-03 0.92729132E+02</pdfrwt>
<totfact> 0.12162731E+05</totfact>
</mgrwt>
</event>
<event>
 6    1  0.2866116E-002  0.9423422E+02  0.7546771E-02  0.1380849E+00
         -2   -1    0    0    0  501 -0.00000000000E+00  0.00000000000E+00  0.12207738138E+03  0.12207738138E+03  0.00000000000E+00 0.  1.
          2   -1    0    0  501    0  0.00000000000E+00 -0.00000000000E+00 -0.13512667998E+03  0.13512667998E+03  0.00000000000E+00 0. -1.
         23    2    1    2    0    0 -0.13826518746E+02  0.14935687799E+02 -0.11759593082E+03  0.15069469229E+03  0.92009999169E+02 0.  0.
         13    1    3    3    0    0  0.36171263883E+02 -0.11129476909E+02 -0.48015871842E+02  0.61137137126E+02  0.00000000000E+00 0. -1.
        -13    1    3    3    0    0 -0.49997782628E+02  0.26065164708E+02 -0.69580058978E+02  0.89557555161E+02  0.00000000000E+00 0.  1.
         22    1    1    2    0    0  0.13826518746E+02 -0.14935687799E+02  0.10454663222E+03  0.10650936907E+03  0.00000000000E+00 0.  1.
<mgrwt>
<rscale>  0 0.64241243E+02</rscale>
<asrwt>0</asrwt>
<pdfrwt beam="1">  1        2 0.20788720E-01 0.94234215E+02</pdfrwt>
<pdfrwt beam="2">  1       -2 0.18781136E-01 0.94234215E+02</pdfrwt>
<totfact> 0.57592508E+03</totfact>
</mgrwt>
</event>
<event>
 6    1  0.2866116E-002  0.9435901E+02  0.7546771E-02  0.1402115E+00
          1   -1    0    0  501    0  0.00000000000E+00  0.00000000000E+00  0.40684852292E+02  0.40684852292E+02  0.00000000000E+00 0. -1.
         -1   -1    0    0    0  501 -0.00000000000E+00 -0.00000000000E+00 -0.12290136995E+03  0.12290136995E+03  0.00000000000E+00 0.  1.
         23    2    1    2    0    0 -0.11753253407E+02 -0.83449888419E+01 -0.15860592308E+02  0.95682712514E+02  0.93251516241E+02 0.  0.
         11    1    3    3    0    0 -0.22667242221E+02 -0.15835914800E-02  0.35719397097E+02  0.42304600239E+02  0.00000000000E+00 0. -1.
        -11    1    3    3    0    0  0.10913988814E+02 -0.83434052504E+01 -0.51579989405E+02  0.53378112275E+02  0.00000000000E+00 0.  1.
         22    1    1    2    0    0  0.11753253407E+02  0.83449888419E+01 -0.66355925349E+02  0.67903509728E+02  0.00000000000E+00 0.  1.
<mgrwt>
<rscale>  0 0.58991227E+02</rscale>
<asrwt>0</asrwt>
<pdfrwt beam="1">  1        1 0.62592081E-02 0.94359012E+02</pdfrwt>
<pdfrwt beam="2">  1       -1 0.18907903E-01 0.94359012E+02</pdfrwt>
<totfact> 0.23809182E+04</totfact>
</mgrwt>
</event>
<event>
 6    1  0.2866116E-002  0.1023999E+03  0.7546771E-02  0.1396541E+00
         -2   -1    0    0    0  501 -0.00000000000E+00  0.00000000000E+00  0.26736934593E+02  0.26736934593E+02  0.00000000000E+00 0. -1.
          2   -1    0    0  501    0  0.00000000000E+00 -0.00000000000E+00 -0.14672604456E+03  0.14672604456E+03  0.00000000000E+00 0.  1.
         23    2    1    2    0    0  0.96522705622E+01 -0.76566031680E+01 -0.12371063454E+03  0.16059287253E+03  0.10165608546E+03 0.  0.
         13    1    3    3    0    0 -0.80441300934E+01 -0.39108825393E+02 -0.98146886615E+01  0.41116132674E+02  0.00000000000E+00 0. -1.
        -13    1    3    3    0    0  0.17696400656E+02  0.31452222225E+02 -0.11389594588E+03  0.11947673986E+03  0.00000000000E+00 0.  1.
         22    1    1    2    0    0 -0.96522705622E+01  0.76566031680E+01  0.37215245803E+01  0.12870106615E+02  0.00000000000E+00 0. -1.
<mgrwt>
<rscale>  0 0.60308728E+02</rscale>
<asrwt>0</asrwt>
<pdfrwt beam="1">  1        2 0.22573238E-01 0.10239995E+03</pdfrwt>
<pdfrwt beam="2">  1       -2 0.41133746E-02 0.10239995E+03</pdfrwt>
<totfact> 0.55939149E+04</totfact>
</mgrwt>
</event>
<event>
 6    1  0.2866116E-002  0.9786652E+02  0.7546771E-02  0.1344240E+00
         -1   -1    0    0    0  501 -0.00000000000E+00  0.00000000000E+00  0.88933802972E+01  0.88933802972E+01  0.00000000000E+00 0.  1.
          1   -1    0    0  501    0  0.00000000000E+00 -0.00000000000E+00 -0.50472645087E+03  0.50472645087E+03  0.00000000000E+00 0. -1.
         23    2    1    2    0    0  0.31147728476E+02 -0.12443434395E+02 -0.32056767853E+03  0.33517382338E+03  0.91939302312E+02 0.  0.
         13    1    3    3    0    0  0.23591185086E+02 -0.48977229202E+01 -0.32326327275E+03  0.32415995313E+03  0.00000000000E+00 0. -1.
        -13    1    3    3    0    0  0.75565433901E+01 -0.75457114743E+01  0.26955942183E+01  0.11013870248E+02  0.00000000000E+00 0.  1.
         22    1    1    2    0    0 -0.31147728476E+02  0.12443434395E+02 -0.17526539204E+03  0.17844600779E+03  0.00000000000E+00 0. -1.
<mgrwt>
<rscale>  0 0.74880828E+02</rscale>
<asrwt>0</asrwt>
<pdfrwt beam="1">  1        1 0.77650242E-01 0.97866518E+02</pdfrwt>
<pdfrwt beam="2">  1       -1 0.13682120E-02 0.97866518E+02</pdfrwt>
<totfact> 0.47506136E+04</totfact>
</mgrwt>
</event>
<event>
 6    1  0.2866116E-002  0.9005273E+02  0.7546771E-02  0.1425881E+00
         -2   -1    0    0    0  501 -0.00000000000E+00  0.00000000000E+00  0.26804612709E+01  0.26804612709E+01  0.00000000000E+00 0.  1.
          2   -1    0    0  501    0  0.00000000000E+00 -0.00000000000E+00 -0.10769852137E+04  0.10769852137E+04  0.00000000000E+00 0. -1.
         23    2    1    2    0    0 -0.23079401047E+01  0.11233776947E+02 -0.10289607957E+04  0.10328939020E+04  0.89319479605E+02 0.  0.
         11    1    3    3    0    0  0.25623085438E+02 -0.26035051786E+02 -0.26381566525E+03  0.26633263349E+03  0.00000000000E+00 0.  1.
        -11    1    3    3    0    0 -0.27931025543E+02  0.37268828734E+02 -0.76514513041E+03  0.76656126851E+03  0.00000000000E+00 0. -1.
         22    1    1    2    0    0  0.23079401047E+01 -0.11233776947E+02 -0.45343956770E+02  0.46771772979E+02  0.00000000000E+00 0. -1.
<mgrwt>
<rscale>  0 0.53795806E+02</rscale>
<asrwt>0</asrwt>
<pdfrwt beam="1">  1        2 0.16569007E+00 0.90052728E+02</pdfrwt>
<pdfrwt beam="2">  1       -2 0.41237856E-03 0.90052728E+02</pdfrwt>
<totfact> 0.15798250E+05</totfact>
</mgrwt>
</event>
<event>
 6    1  0.2866116E-002  0.1031182E+03  0.7546771E-02  0.1349628E+00
          2   -1    0    0  501    0  0.00000000000E+00  0.00000000000E+00  0.14113290208E+04  0.14113290208E+04  0.00000000000E+00 0. -1.
         -2   -1    0    0    0  501 -0.00000000000E+00 -0.00000000000E+00 -0.12200537031E+02  0.12200537031E+02  0.00000000000E+00 0.  1.
         23    2    1    2    0    0 -0.77127567311E+01 -0.24980116781E+02  0.13928246190E+04  0.13966365929E+04  0.99748987927E+02 0.  0.
         13    1    3    3    0    0  0.43009188044E+02 -0.26492846746E+02  0.82690740003E+03  0.82844885745E+03  0.00000000000E+00 0.  1.
        -13    1    3    3    0    0 -0.50721944775E+02  0.15127299656E+01  0.56591721892E+03  0.56818773544E+03  0.00000000000E+00 0. -1.
         22    1    1    2    0    0  0.77127567311E+01  0.24980116781E+02  0.63038647964E+01  0.26892964919E+02  0.00000000000E+00 0.  1.
<mgrwt>
<rscale>  0 0.73171691E+02</rscale>
<asrwt>0</asrwt>
<pdfrwt beam="1">  1        2 0.21712741E+00 0.10311815E+03</pdfrwt>
<pdfrwt beam="2">  1       -2 0.18770068E-02 0.10311815E+03</pdfrwt>
<totfact> 0.12360462E+04</totfact>
</mgrwt>
</event>
<event>
 6    1  0.2866116E-002  0.9360771E+02  0.7546771E-02  0.1380753E+00
         -1   -1    0    0    0  501 -0.00000000000E+00  0.00000000000E+00  0.19801442934E+03  0.19801442934E+03  0.00000000000E+00 0.  1.
          1   -1    0    0  501    0  0.00000000000E+00 -0.00000000000E+00 -0.24199572480E+02  0.24199572480E+02  0.00000000000E+00 0. -1.
         23    2    1    2    0    0  0.13562739330E+02 -0.15765736153E+02  0.71456548541E+02  0.11776435071E+03  0.91268272880E+02 0.  0.
         13    1    3    3    0    0  0.36907468695E+02 -0.33703532431E+02  0.72785472043E+02  0.88293908535E+02  0.00000000000E+00 0. -1.
        -13    1    3    3    0    0 -0.23344729365E+02  0.17937796278E+02 -0.13289235020E+01  0.29470442177E+02  0.00000000000E+00 0.  1.
         22    1    1    2    0    0 -0.13562739330E+02  0.15765736153E+02  0.10235830832E+03  0.10444965111E+03  0.00000000000E+00 0.  1.
<mgrwt>
<rscale>  0 0.64266224E+02</rscale>
<asrwt>0</asrwt>
<pdfrwt beam="1">  1        1 0.37230113E-02 0.93607713E+02</pdfrwt>
<pdfrwt beam="2">  1       -1 0.30463757E-01 0.93607713E+02</pdfrwt>
<totfact> 0.22172484E+04</totfact>
</mgrwt>
</event>
<event>
 6    1  0.2866116E-002  0.9239316E+02  0.7546771E-02  0.1422897E+00
          1   -1    0    0  501    0  0.00000000000E+00  0.00000000000E+00  0.83918442110E+02  0.83918442110E+02  0.00000000000E+00 0. -1.
         -1   -1    0    0    0  501 -0.00000000000E+00 -0.00000000000E+00 -0.42576587286E+02  0.42576587286E+02  0.00000000000E+00 0.  1.
         23    2    1    2    0    0 -0.10575102049E+02  0.34199058350E+01  0.56045849143E+02  0.10806310090E+03  0.91722233021E+02 0.  0.
         11    1    3    3    0    0 -0.16989873786E+02 -0.26028907605E+02  0.68677242756E+02  0.75383841205E+02  0.00000000000E+00 0. -1.
        -11    1    3    3    0    0  0.64147717375E+01  0.29448813440E+02 -0.12631393613E+02  0.32679259693E+02  0.00000000000E+00 0.  1.
         22    1    1    2    0    0  0.10575102049E+02 -0.34199058350E+01 -0.14703994318E+02  0.18431928499E+02  0.00000000000E+00 0. -1.
<mgrwt>
<rscale>  0 0.54412764E+02</rscale>
<asrwt>0</asrwt>
<pdfrwt beam="1">  1        1 0.12910530E-01 0.92393163E+02</pdfrwt>
<pdfrwt beam="2">  1       -1 0.65502442E-02 0.92393163E+02</pdfrwt>
<totfact> 0.46007791E+04</totfact>
</mgrwt>
</event>
<event>
 6    1  0.2866116E-002  0.9257795E+02  0.7546771E-02  0.1399573E+00
         -2   -1    0    0    0  501 -0.00000000000E+00  0.00000000000E+00  0.14288481682E+01  0.14288481682E+01  0.00000000000E+00 0. -1.
          2   -1    0    0  501    0  0.00000000000E+00 -0.00000000000E+00 -0.30093097731E+04  0.30093097731E+04  0.00000000000E+00 0.  1.
         23    2    1    2    0    0 -0.15674772053E+02 -0.25979783183E+01 -0.29177237877E+04  0.29191921447E+04  0.91204323639E+02 0.  0.
         11    1    3    3    0    0  0.96560032686E+01 -0.13260067153E+02 -0.10015856715E+03  0.10149288819E+03  0.00000000000E+00 0. -1.
        -11    1    3    3    0    0 -0.25330775322E+02  0.10662088835E+02 -0.28175652205E+04  0.28176992565E+04  0.00000000000E+00 0.  1.
         22    1    1    2    0    0  0.15674772053E+02  0.25979783183E+01 -0.90157137233E+02  0.91546476526E+02  0.00000000000E+00 0.  1.
<mgrwt>
<rscale>  0 0.59587087E+02</rscale>
<asrwt>0</asrwt>
<pdfrwt beam="1">  1        2 0.46297189E+00 0.92577949E+02</pdfrwt>
<pdfrwt beam="2">  1       -2 0.21982225E-03 0.92577949E+02</pdfrwt>
<totfact> 0.37059054E+04</totfact>
</mgrwt>
</event>
<event>
 6    1  0.2866116E-002  0.9419011E+02  0.7546771E-02  0.1377352E+00
         -1   -1    0    0    0  501 -0.00000000000E+00  0.00000000000E+00  0.31924215142E+02  0.31924215142E+02  0.00000000000E+00 0.  1.
          1   -1    0    0  501    0  0.00000000000E+00 -0.00000000000E+00 -0.11755795885E+03  0.11755795885E+03  0.00000000000E+00 0. -1.
         23    2    1    2    0    0  0.20325294824E+02 -0.72495729876E+01 -0.86503423446E+02  0.12788517742E+03  0.91684799274E+02 0.  0.
         13    1    3    3    0    0  0.19987458414E+02 -0.22607655284E+02 -0.10181683444E+03  0.10619450243E+03  0.00000000000E+00 0. -1.
        -13    1    3    3    0    0  0.33783640912E+00  0.15358082297E+02  0.15313410993E+02  0.21690674990E+02  0.00000000000E+00 0.  1.
         22    1    1    2    0    0 -0.20325294824E+02  0.72495729876E+01  0.86967973402E+00  0.21596996574E+02  0.00000000000E+00 0.  1.
<mgrwt>
<rscale>  0 0.65164971E+02</rscale>
<asrwt>0</asrwt>
<pdfrwt beam="1">  1        1 0.18085840E-01 0.94190107E+02</pdfrwt>
<pdfrwt beam="2">  1       -1 0.49114177E-02 0.94190107E+02</pdfrwt>
<totfact> 0.45796467E+04</totfact>
</mgrwt>
</event>
<event>
 6    1  0.2866116E-002  0.9599025E+02  0.7546771E-02  0.1367328E+00
          1   -1    0    0  501    0  0.00000000000E+00  0.00000000000E+00  0.14992959118E+02  0.14992959118E+02  0.00000000000E+00 0. -1.
         -1   -1    0    0    0  501 -0.00000000000E+00 -0.00000000000E+00 -0.24825447125E+03  0.24825447125E+03  0.00000000000E+00 0.  1.
         23    2    1    2    0    0  0.19098442559E+02  0.14624288317E+02 -0.16523852734E+03  0.19109656913E+03  0.92927431364E+02 0.  0.
         13    1    3    3    0    0  0.42281252594E+02  0.15915167933E+02 -0.30823311967E+02  0.54690707180E+02  0.00000000000E+00 0. -1.
        -13    1    3    3    0    0 -0.23182810035E+02 -0.12908796155E+01 -0.13441521537E+03  0.13640586195E+03  0.00000000000E+00 0.  1.
         22    1    1    2    0    0 -0.19098442559E+02 -0.14624288317E+02 -0.68022984795E+02  0.72150861238E+02  0.00000000000E+00 0.  1.
<mgrwt>
<rscale>  0 0.67915601E+02</rscale>
<asrwt>0</asrwt>
<pdfrwt beam="1">  1        1 0.23066091E-02 0.95990249E+02</pdfrwt>
<pdfrwt beam="2">  1       -1 0.38192995E-01 0.95990249E+02</pdfrwt>
<totfact> 0.29237527E+04</totfact>
</mgrwt>
</event>
<event>
 6    1  0.2866116E-002  0.9345830E+02  0.7546771E-02  0.1381980E+00
         -2   -1    0    0    0  501 -0.00000000000E+00  0.00000000000E+00  0.16474426295E+02  0.16474426295E+02  0.00000000000E+00 0.  1.
          2   -1    0    0  501    0  0.00000000000E+00 -0.00000000000E+00 -0.22234270866E+03  0.22234270866E+03  0.00000000000E+00 0. -1.
         23    2    1    2    0    0  0.76280306318E+01  0.19010231997E+02 -0.19350380917E+03  0.21489108285E+03  0.91185950412E+02 0.  0.
         11    1    3    3    0    0  0.19978886784E+02  0.20700516506E+02 -0.19914199596E+03  0.20120934833E+03  0.00000000000E+00 0. -1.
        -11    1    3    3    0    0 -0.12350856152E+02 -0.16902845090E+01  0.56381867827E+01  0.13681734525E+02  0.00000000000E+00 0.  1.
         22    1    1    2    0    0 -0.76280306318E+01 -0.19010231997E+02 -0.12364473187E+02  0.23926052100E+02  0.00000000000E+00 0.  1.
<mgrwt>
<rscale>  0 0.63946194E+02</rscale>
<asrwt>0</asrwt>
<pdfrwt beam="1">  1        2 0.34206567E-01 0.93458297E+02</pdfrwt>
<pdfrwt beam="2">  1       -2 0.25345274E-02 0.93458297E+02</pdfrwt>
<totfact> 0.71529367E+04</totfact>
</mgrwt>
</event>
<event>
 6    1  0.2866116E-002  0.9255076E+02  0.7546771E-02  0.1420725E+00
          2   -1    0    0  501    0  0.00000000000E+00  0.00000000000E+00  0.40967913472E+03  0.40967913472E+03  0.00000000000E+00 0.  1.
         -2   -1    0    0    0  501 -0.00000000000E+00 -0.00000000000E+00 -0.75432570211E+01  0.75432570211E+01  0.00000000000E+00 0. -1.
         23    2    1    2    0    0 -0.44656867616E+01 -0.10523953452E+02  0.38876870055E+03  0.39963326500E+03  0.91841973048E+02 0.  0.
         11    1    3    3    0    0  0.33796579371E+02  0.23124150151E+01  0.64424693651E+02  0.72788029183E+02  0.00000000000E+00 0. -1.
        -11    1    3    3    0    0 -0.38262266133E+02 -0.12836368467E+02  0.32434400690E+03  0.32684523582E+03  0.00000000000E+00 0.  1.
         22    1    1    2    0    0  0.44656867616E+01  0.10523953452E+02  0.13367177142E+02  0.17589126734E+02  0.00000000000E+00 0. -1.
<mgrwt>
<rscale>  0 0.54867829E+02</rscale>
<asrwt>0</asrwt>
<pdfrwt beam="1">  1        2 0.63027542E-01 0.92550764E+02</pdfrwt>
<pdfrwt beam="2">  1       -2 0.11605014E-02 0.92550764E+02</pdfrwt>
<totfact> 0.11512590E+05</totfact>
</mgrwt>
</event>
<event>
 6    1  0.2866116E-002  0.8942804E+02  0.7546771E-02  0.1399436E+00
          1   -1    0    0  501    0  0.00000000000E+00  0.00000000000E+00  0.13371078992E+03  0.13371078992E+03  0.00000000000E+00 0. -1.
         -1   -1    0    0    0  501 -0.00000000000E+00 -0.00000000000E+00 -0.32734606486E+02  0.32734606486E+02  0.00000000000E+00 0.  1.
         23    2    1    2    0    0  0.14616878879E+02  0.99207135172E+01  0.11371428272E+03  0.14466621188E+03  0.87665848883E+02 0.  0.
         11    1    3    3    0    0  0.29207025223E+02  0.33387693352E+02  0.23265654536E+02  0.50090708427E+02  0.00000000000E+00 0.  1.
        -11    1    3    3    0    0 -0.14590146344E+02 -0.23466979835E+02  0.90448628188E+02  0.94575503456E+02  0.00000000000E+00 0. -1.
         22    1    1    2    0    0 -0.14616878879E+02 -0.99207135172E+01 -0.12738099292E+02  0.21779184522E+02  0.00000000000E+00 0.  1.
<mgrwt>
<rscale>  0 0.59619378E+02</rscale>
<asrwt>0</asrwt>
<pdfrwt beam="1">  1        1 0.20570890E-01 0.89428042E+02</pdfrwt>
<pdfrwt beam="2">  1       -1 0.50360934E-02 0.89428042E+02</pdfrwt>
<totfact> 0.37286436E+04</totfact>
</mgrwt>
</event>
<event>
 6    1  0.2866116E-002  0.9756303E+02  0.7546771E-02  0.1333579E+00
          4   -1    0    0  501    0  0.00000000000E+00  0.00000000000E+00  0.42439490361E+03  0.42439490361E+03  0.00000000000E+00 0. -1.
         -4   -1    0    0    0  501 -0.00000000000E+00 -0.00000000000E+00 -0.12640177919E+02  0.12640177919E+02  0.00000000000E+00 0.  1.
         23    2    1    2    0    0 -0.20766266070E+02 -0.35045417220E+02  0.34766530787E+03  0.36109515428E+03  0.88651706524E+02 0.  0.
         11    1    3    3    0    0 -0.54101621202E+02 -0.29604986655E+02  0.25828385983E+03  0.26554470980E+03  0.00000000000E+00 0. -1.
        -11    1    3    3    0    0  0.33335355132E+02 -0.54404305658E+01  0.89381448041E+02  0.95550444480E+02  0.00000000000E+00 0.  1.
         22    1    1    2    0    0  0.20766266070E+02  0.35045417220E+02  0.64089417818E+02  0.75939927251E+02  0.00000000000E+00 0.  1.
<mgrwt>
<rscale>  0 0.78425710E+02</rscale>
<asrwt>0</asrwt>
<pdfrwt beam="1">  1        4 0.65291512E-01 0.97563027E+02</pdfrwt>
<pdfrwt beam="2">  1       -4 0.19446431E-02 0.97563027E+02</pdfrwt>
<totfact> 0.35502123E+03</totfact>
</mgrwt>
</event>
<event>
 6    1  0.2866116E-002  0.9217919E+02  0.7546771E-02  0.1422372E+00
          2   -1    0    0  501    0  0.00000000000E+00  0.00000000000E+00  0.39762654257E+03  0.39762654257E+03  0.00000000000E+00 0.  1.
         -2   -1    0    0    0  501 -0.00000000000E+00 -0.00000000000E+00 -0.68804441336E+01  0.68804441336E+01  0.00000000000E+00 0. -1.
         23    2    1    2    0    0 -0.22966726112E+01  0.11046058478E+02  0.36375311880E+03  0.37525102897E+03  0.91486136638E+02 0.  0.
         11    1    3    3    0    0 -0.41535175090E+02  0.19320511361E+02  0.26025136922E+03  0.26425220550E+03  0.00000000000E+00 0.  1.
        -11    1    3    3    0    0  0.39238502479E+02 -0.82744528826E+01  0.10350174957E+03  0.11099882347E+03  0.00000000000E+00 0. -1.
         22    1    1    2    0    0  0.22966726112E+01 -0.11046058478E+02  0.26992979638E+02  0.29255957730E+02  0.00000000000E+00 0.  1.
<mgrwt>
<rscale>  0 0.54522279E+02</rscale>
<asrwt>0</asrwt>
<pdfrwt beam="1">  1        2 0.61173296E-01 0.92179191E+02</pdfrwt>
<pdfrwt beam="2">  1       -2 0.10585302E-02 0.92179191E+02</pdfrwt>
<totfact> 0.13528403E+05</totfact>
</mgrwt>
</event>
<event>
 6    1  0.2866116E-002  0.7416238E+02  0.7546771E-02  0.1429837E+00
          4   -1    0    0  501    0  0.00000000000E+00  0.00000000000E+00  0.23407007396E+03  0.23407007396E+03  0.00000000000E+00 0. -1.
         -4   -1    0    0    0  501 -0.00000000000E+00 -0.00000000000E+00 -0.10879428249E+02  0.10879428249E+02  0.00000000000E+00 0.  1.
         23    2    1    2    0    0 -0.50978876349E+01 -0.18649611824E+02  0.20648027281E+03  0.21939499102E+03  0.71597922777E+02 0.  0.
         13    1    3    3    0    0  0.21810029388E+01 -0.32059512422E+02  0.36088023566E+02  0.48320953586E+02  0.00000000000E+00 0.  1.
        -13    1    3    3    0    0 -0.72788905736E+01  0.13409900598E+02  0.17039224924E+03  0.17107403743E+03  0.00000000000E+00 0. -1.
         22    1    1    2    0    0  0.50978876349E+01  0.18649611824E+02  0.16710372902E+02  0.25554511188E+02  0.00000000000E+00 0.  1.
<mgrwt>
<rscale>  0 0.52992835E+02</rscale>
<asrwt>0</asrwt>
<pdfrwt beam="1">  1        4 0.36010777E-01 0.74162383E+02</pdfrwt>
<pdfrwt beam="2">  1       -4 0.16737584E-02 0.74162383E+02</pdfrwt>
<totfact> 0.13573051E+04</totfact>
</mgrwt>
</event>
<event>
 6    1  0.2866116E-002  0.8175950E+02  0.7546771E-02  0.1406030E+00
          2   -1    0    0  501    0  0.00000000000E+00  0.00000000000E+00  0.95012193112E+03  0.95012193112E+03  0.00000000000E+00 0. -1.
         -2   -1    0    0    0  501 -0.00000000000E+00 -0.00000000000E+00 -0.59825410399E+01  0.59825410399E+01  0.00000000000E+00 0.  1.
         23    2    1    2    0    0 -0.10710897143E+02 -0.17869366496E+02  0.92231819462E+03  0.92593491552E+03  0.79060597494E+02 0.  0.
         11    1    3    3    0    0 -0.34179003881E+02 -0.11395053482E+02  0.81881332838E+03  0.81960558703E+03  0.00000000000E+00 0. -1.
        -11    1    3    3    0    0  0.23468106738E+02 -0.64743130134E+01  0.10350486624E+03  0.10632932849E+03  0.00000000000E+00 0.  1.
         22    1    1    2    0    0  0.10710897143E+02  0.17869366496E+02  0.21821195463E+02  0.30169556642E+02  0.00000000000E+00 0.  1.
<mgrwt>
<rscale>  0 0.58089091E+02</rscale>
<asrwt>0</asrwt>
<pdfrwt beam="1">  1        2 0.14617248E+00 0.81759499E+02</pdfrwt>
<pdfrwt beam="2">  1       -2 0.92039168E-03 0.81759499E+02</pdfrwt>
<totfact> 0.59931594E+04</totfact>
</mgrwt>
</event>
<event>
 6    1  0.2866116E-002  0.9281482E+02  0.7546771E-02  0.1404083E+00
         -2   -1    0    0    0  501 -0.00000000000E+00  0.00000000000E+00  0.37438118461E+01  0.37438118461E+01  0.00000000000E+00 0.  1.
          2   -1    0    0  501    0  0.00000000000E+00 -0.00000000000E+00 -0.77778271614E+03  0.77778271614E+03  0.00000000000E+00 0. -1.
         23    2    1    2    0    0  0.95296386444E+01  0.11170730475E+02 -0.69000998968E+03  0.69622437254E+03  0.91646013731E+02 0.  0.
         11    1    3    3    0    0  0.19009997902E+02  0.21283782452E+02 -0.64152692747E+02  0.70213584172E+02  0.00000000000E+00 0.  1.
        -11    1    3    3    0    0 -0.94803592572E+01 -0.10113051977E+02 -0.62585729693E+03  0.62601078837E+03  0.00000000000E+00 0. -1.
         22    1    1    2    0    0 -0.95296386444E+01 -0.11170730475E+02 -0.84028914611E+02  0.85302155440E+02  0.00000000000E+00 0. -1.
<mgrwt>
<rscale>  0 0.58535442E+02</rscale>
<asrwt>0</asrwt>
<pdfrwt beam="1">  1        2 0.11965910E+00 0.92814821E+02</pdfrwt>
<pdfrwt beam="2">  1       -2 0.57596999E-03 0.92814821E+02</pdfrwt>
<totfact> 0.15158215E+05</totfact>
</mgrwt>
</event>
<event>
 6    1  0.2866116E-002  0.9214454E+02  0.7546771E-02  0.1374477E+00
         -4   -1    0    0    0  501 -0.00000000000E+00  0.00000000000E+00  0.10642852855E+03  0.10642852855E+03  0.00000000000E+00 0.  1.
          4   -1    0    0  501    0  0.00000000000E+00 -0.00000000000E+00 -0.32992580523E+02  0.32992580523E+02  0.00000000000E+00 0. -1.
         23    2    1    2    0    0 -0.24138580072E+02  0.10718606407E+01  0.46421156996E+02  0.10317722866E+03  0.88920170735E+02 0.  0.
         11    1    3    3    0    0  0.98704851291E+01  0.24741285674E+02  0.54774908854E+02  0.60908524309E+02  0.00000000000E+00 0.  1.
        -11    1    3    3    0    0 -0.34009065201E+02 -0.23669425033E+02 -0.83537518580E+01  0.42268704349E+02  0.00000000000E+00 0. -1.
         22    1    1    2    0    0  0.24138580072E+02 -0.10718606407E+01  0.27014791035E+02  0.36243880419E+02  0.00000000000E+00 0.  1.
<mgrwt>
<rscale>  0 0.65938199E+02</rscale>
<asrwt>0</asrwt>
<pdfrwt beam="1">  1        4 0.50757817E-02 0.92144542E+02</pdfrwt>
<pdfrwt beam="2">  1       -4 0.16373620E-01 0.92144542E+02</pdfrwt>
<totfact> 0.10963242E+04</totfact>
</mgrwt>
</event>
<event>
 6    1  0.2866116E-002  0.9352003E+02  0.7546771E-02  0.1385915E+00
          1   -1    0    0  501    0  0.00000000000E+00  0.00000000000E+00  0.18191142852E+03  0.18191142852E+03  0.00000000000E+00 0. -1.
         -1   -1    0    0    0  501 -0.00000000000E+00 -0.00000000000E+00 -0.21840131638E+02  0.21840131638E+02  0.00000000000E+00 0.  1.
         23    2    1    2    0    0 -0.16867929058E+02 -0.91277280149E+01  0.15909689440E+03  0.18454760459E+03  0.91532257174E+02 0.  0.
         11    1    3    3    0    0 -0.35738922496E+01  0.20613711473E+02  0.14897089148E+03  0.15043279003E+03  0.00000000000E+00 0. -1.
        -11    1    3    3    0    0 -0.13294036809E+02 -0.29741439488E+02  0.10126002914E+02  0.34114814561E+02  0.00000000000E+00 0.  1.
         22    1    1    2    0    0  0.16867929058E+02  0.91277280149E+01  0.97440248934E+00  0.19203955573E+02  0.00000000000E+00 0.  1.
<mgrwt>
<rscale>  0 0.62934128E+02</rscale>
<asrwt>0</asrwt>
<pdfrwt beam="1">  1        1 0.27986373E-01 0.93520033E+02</pdfrwt>
<pdfrwt beam="2">  1       -1 0.33600204E-02 0.93520033E+02</pdfrwt>
<totfact> 0.46080638E+04</totfact>
</mgrwt>
</event>
<event>
 6    1  0.2866116E-002  0.9265262E+02  0.7546771E-02  0.1417059E+00
         -2   -1    0    0    0  501 -0.00000000000E+00  0.00000000000E+00  0.26160043782E+02  0.26160043782E+02  0.00000000000E+00 0.  1.
          2   -1    0    0  501    0  0.00000000000E+00 -0.00000000000E+00 -0.11071938455E+03  0.11071938455E+03  0.00000000000E+00 0. -1.
         23    2    1    2    0    0  0.14769523015E+01 -0.11965899862E+02 -0.83584596969E+02  0.12478338464E+03  0.91864814178E+02 0.  0.
         13    1    3    3    0    0 -0.18483592612E+02  0.20850984306E+02  0.49273723455E+01  0.28296390947E+02  0.00000000000E+00 0.  1.
        -13    1    3    3    0    0  0.19960544914E+02 -0.32816884169E+02 -0.88511969315E+02  0.96486993692E+02  0.00000000000E+00 0. -1.
         22    1    1    2    0    0 -0.14769523015E+01  0.11965899862E+02 -0.97474380202E+00  0.12096043696E+02  0.00000000000E+00 0.  1.
<mgrwt>
<rscale>  0 0.55648114E+02</rscale>
<asrwt>0</asrwt>
<pdfrwt beam="1">  1        2 0.17033752E-01 0.92652621E+02</pdfrwt>
<pdfrwt beam="2">  1       -2 0.40246221E-02 0.92652621E+02</pdfrwt>
<totfact> 0.78128863E+04</totfact>
</mgrwt>
</event>
<event>
 6    1  0.2866116E-002  0.9054429E+02  0.7546771E-02  0.1429766E+00
         -2   -1    0    0    0  501 -0.00000000000E+00  0.00000000000E+00  0.13354892652E+02  0.13354892652E+02  0.00000000000E+00 0.  1.
          2   -1    0    0  501    0  0.00000000000E+00 -0.00000000000E+00 -0.22951303536E+03  0.22951303536E+03  0.00000000000E+00 0. -1.
         23    2    1    2    0    0  0.10557848131E+02  0.12813358991E+01 -0.21349880672E+03  0.23190517075E+03  0.89917505366E+02 0.  0.
         11    1    3    3    0    0 -0.21078903853E+02 -0.26256586393E+02 -0.16212260720E+03  0.16558221004E+03  0.00000000000E+00 0. -1.
        -11    1    3    3    0    0  0.31636751985E+02  0.27537922292E+02 -0.51376199523E+02  0.66322960713E+02  0.00000000000E+00 0.  1.
         22    1    1    2    0    0 -0.10557848131E+02 -0.12813358991E+01 -0.26593359873E+01  0.10962757260E+02  0.00000000000E+00 0.  1.
<mgrwt>
<rscale>  0 0.53007022E+02</rscale>
<asrwt>0</asrwt>
<pdfrwt beam="1">  1        2 0.35309697E-01 0.90544286E+02</pdfrwt>
<pdfrwt beam="2">  1       -2 0.20545989E-02 0.90544286E+02</pdfrwt>
<totfact> 0.93193179E+04</totfact>
</mgrwt>
</event>
<event>
 6    1  0.2866116E-002  0.1145522E+03  0.7546771E-02  0.1277484E+00
         -2   -1    0    0    0  501 -0.00000000000E+00  0.00000000000E+00  0.33154086299E+03  0.33154086299E+03  0.00000000000E+00 0.  1.
          2   -1    0    0  501    0  0.00000000000E+00 -0.00000000000E+00 -0.30257958188E+02  0.30257958188E+02  0.00000000000E+00 0. -1.
         23    2    1    2    0    0 -0.54234537421E+02 -0.44556106057E+02  0.11320958943E+03  0.16105469650E+03  0.90529401252E+02 0.  0.
         13    1    3    3    0    0 -0.19396626986E+02 -0.69082864126E+02  0.75494538089E+02  0.10415419596E+03  0.00000000000E+00 0. -1.
        -13    1    3    3    0    0 -0.34837910435E+02  0.24526758069E+02  0.37715051340E+02  0.56900500546E+02  0.00000000000E+00 0.  1.
         22    1    1    2    0    0  0.54234537421E+02  0.44556106057E+02  0.18807331537E+03  0.20074412467E+03  0.00000000000E+00 0.  1.
<mgrwt>
<rscale>  0 0.10134943E+03</rscale>
<asrwt>0</asrwt>
<pdfrwt beam="1">  1        2 0.46550707E-02 0.11455219E+03</pdfrwt>
<pdfrwt beam="2">  1       -2 0.51006284E-01 0.11455219E+03</pdfrwt>
<totfact> 0.59441202E+03</totfact>
</mgrwt>
</event>
<event>
 6    1  0.2866116E-002  0.9368819E+02  0.7546771E-02  0.1385766E+00
          2   -1    0    0  501    0  0.00000000000E+00  0.00000000000E+00  0.54676021670E+03  0.54676021670E+03  0.00000000000E+00 0. -1.
         -2   -1    0    0    0  501 -0.00000000000E+00 -0.00000000000E+00 -0.58334099121E+01  0.58334099121E+01  0.00000000000E+00 0.  1.
         23    2    1    2    0    0 -0.13206437952E+02 -0.13829492351E+02  0.45913358618E+03  0.46859484210E+03  0.91715926764E+02 0.  0.
         11    1    3    3    0    0  0.16157758452E+01 -0.33657153693E+02  0.60964306035E+02  0.69656739348E+02  0.00000000000E+00 0.  1.
        -11    1    3    3    0    0 -0.14822213797E+02  0.19827661342E+02  0.39816928015E+03  0.39893810276E+03  0.00000000000E+00 0. -1.
         22    1    1    2    0    0  0.13206437952E+02  0.13829492351E+02  0.81793220601E+02  0.83998784505E+02  0.00000000000E+00 0.  1.
<mgrwt>
<rscale>  0 0.62972223E+02</rscale>
<asrwt>0</asrwt>
<pdfrwt beam="1">  1        2 0.84116916E-01 0.93688185E+02</pdfrwt>
<pdfrwt beam="2">  1       -2 0.89744811E-03 0.93688185E+02</pdfrwt>
<totfact> 0.12174365E+05</totfact>
</mgrwt>
</event>
<event>
 6    1  0.2866116E-002  0.9101057E+02  0.7546771E-02  0.1412652E+00
          2   -1    0    0  501    0  0.00000000000E+00  0.00000000000E+00  0.61734111812E+02  0.61734111812E+02  0.00000000000E+00 0.  1.
         -2   -1    0    0    0  501 -0.00000000000E+00 -0.00000000000E+00 -0.92011670114E+02  0.92011670114E+02  0.00000000000E+00 0. -1.
         23    2    1    2    0    0 -0.13097169928E+02  0.37381478438E+01  0.26952223600E+02  0.94917578265E+02  0.89985636061E+02 0.  0.
         11    1    3    3    0    0  0.12413482128E+02  0.24220991427E+02 -0.22710365526E+02  0.35447308312E+02  0.00000000000E+00 0. -1.
        -11    1    3    3    0    0 -0.25510652056E+02 -0.20482843583E+02  0.49662589126E+02  0.59470269953E+02  0.00000000000E+00 0.  1.
         22    1    1    2    0    0  0.13097169928E+02 -0.37381478438E+01 -0.57229781901E+02  0.58828203660E+02  0.00000000000E+00 0. -1.
<mgrwt>
<rscale>  0 0.56606289E+02</rscale>
<asrwt>0</asrwt>
<pdfrwt beam="1">  1        2 0.94975557E-02 0.91010572E+02</pdfrwt>
<pdfrwt beam="2">  1       -2 0.14155642E-01 0.91010572E+02</pdfrwt>
<totfact> 0.22716291E+04</totfact>
</mgrwt>
</event>
<event>
 6    1  0.2866116E-002  0.9264484E+02  0.7546771E-02  0.1393113E+00
          2   -1    0    0  501    0  0.00000000000E+00  0.00000000000E+00  0.64283153599E+03  0.64283153599E+03  0.00000000000E+00 0. -1.
         -2   -1    0    0    0  501 -0.00000000000E+00 -0.00000000000E+00 -0.50155891801E+01  0.50155891801E+01  0.00000000000E+00 0.  1.
         23    2    1    2    0    0 -0.54996997532E+01 -0.16688742775E+02  0.58208838842E+03  0.58941492859E+03  0.90963208395E+02 0.  0.
         13    1    3    3    0    0 -0.76104401938E+01 -0.50625036227E+02  0.45448033798E+03  0.45735455689E+03  0.00000000000E+00 0. -1.
        -13    1    3    3    0    0  0.21107404406E+01  0.33936293452E+02  0.12760805044E+03  0.13206037171E+03  0.00000000000E+00 0.  1.
         22    1    1    2    0    0  0.54996997532E+01  0.16688742775E+02  0.55727558388E+02  0.58432196576E+02  0.00000000000E+00 0. -1.
<mgrwt>
<rscale>  0 0.61139052E+02</rscale>
<asrwt>0</asrwt>
<pdfrwt beam="1">  1        2 0.98897094E-01 0.92644839E+02</pdfrwt>
<pdfrwt beam="2">  1       -2 0.77162961E-03 0.92644839E+02</pdfrwt>
<totfact> 0.12554879E+05</totfact>
</mgrwt>
</event>
<event>
 6    1  0.2866116E-002  0.9282552E+02  0.7546771E-02  0.1419950E+00
          2   -1    0    0  501    0  0.00000000000E+00  0.00000000000E+00  0.35819532543E+03  0.35819532543E+03  0.00000000000E+00 0. -1.
         -2   -1    0    0    0  501 -0.00000000000E+00 -0.00000000000E+00 -0.28355035749E+02  0.28355035749E+02  0.00000000000E+00 0.  1.
         23    2    1    2    0    0 -0.70810880024E+01 -0.90191269299E+01  0.35068362602E+03  0.36276105417E+03  0.92114550428E+02 0.  0.
         13    1    3    3    0    0 -0.22854120762E+02 -0.40052812585E+02  0.10576823843E+03  0.11538396289E+03  0.00000000000E+00 0.  1.
        -13    1    3    3    0    0  0.15773032760E+02  0.31033685655E+02  0.24491538759E+03  0.24737709127E+03  0.00000000000E+00 0. -1.
         22    1    1    2    0    0  0.70810880024E+01  0.90191269299E+01 -0.20843336347E+02  0.23789307009E+02  0.00000000000E+00 0.  1.
<mgrwt>
<rscale>  0 0.55031413E+02</rscale>
<asrwt>0</asrwt>
<pdfrwt beam="1">  1        2 0.55106970E-01 0.92825518E+02</pdfrwt>
<pdfrwt beam="2">  1       -2 0.43623135E-02 0.92825518E+02</pdfrwt>
<totfact> 0.19602105E+04</totfact>
</mgrwt>
</event>
<event>
 6    1  0.2866116E-002  0.9342755E+02  0.7546771E-02  0.1374213E+00
          2   -1    0    0  501    0  0.00000000000E+00  0.00000000000E+00  0.33235431048E+03  0.33235431048E+03  0.00000000000E+00 0. -1.
         -2   -1    0    0    0  501 -0.00000000000E+00 -0.00000000000E+00 -0.37624831118E+02  0.37624831118E+02  0.00000000000E+00 0.  1.
         23    2    1    2    0    0 -0.22668060924E+02 -0.53079412260E+01  0.32132578810E+03  0.33463258782E+03  0.90480337681E+02 0.  0.
         11    1    3    3    0    0 -0.32099077963E+02  0.10431976305E+02  0.31241748177E+03  0.31423535742E+03  0.00000000000E+00 0. -1.
        -11    1    3    3    0    0  0.94310170389E+01 -0.15739917531E+02  0.89083063231E+01  0.20397230396E+02  0.00000000000E+00 0.  1.
         22    1    1    2    0    0  0.22668060924E+02  0.53079412260E+01 -0.26596308733E+02  0.35346553783E+02  0.00000000000E+00 0.  1.
<mgrwt>
<rscale>  0 0.66009683E+02</rscale>
<asrwt>0</asrwt>
<pdfrwt beam="1">  1        2 0.51131430E-01 0.93427548E+02</pdfrwt>
<pdfrwt beam="2">  1       -2 0.57884358E-02 0.93427548E+02</pdfrwt>
<totfact> 0.13930051E+04</totfact>
</mgrwt>
</event>
<event>
 6    1  0.2866116E-002  0.1004900E+03  0.7546771E-02  0.1372990E+00
         -2   -1    0    0    0  501 -0.00000000000E+00  0.00000000000E+00  0.16672388878E+02  0.16672388878E+02  0.00000000000E+00 0.  1.
          2   -1    0    0  501    0  0.00000000000E+00 -0.00000000000E+00 -0.23906171852E+03  0.23906171852E+03  0.00000000000E+00 0. -1.
         23    2    1    2    0    0 -0.53312629936E+01  0.18330550333E+02 -0.21046809006E+03  0.23322749962E+03  0.98660114555E+02 0.  0.
         13    1    3    3    0    0 -0.33027902422E+02  0.49046543692E+02 -0.12347395965E+03  0.13690224432E+03  0.00000000000E+00 0. -1.
        -13    1    3    3    0    0  0.27696639429E+02 -0.30715993358E+02 -0.86994130410E+02  0.96325255304E+02  0.00000000000E+00 0.  1.
         22    1    1    2    0    0  0.53312629936E+01 -0.18330550333E+02 -0.11921239581E+02  0.22506607780E+02  0.00000000000E+00 0.  1.
<mgrwt>
<rscale>  0 0.66342872E+02</rscale>
<asrwt>0</asrwt>
<pdfrwt beam="1">  1        2 0.36778725E-01 0.10049005E+03</pdfrwt>
<pdfrwt beam="2">  1       -2 0.25649830E-02 0.10049005E+03</pdfrwt>
<totfact> 0.65763153E+04</totfact>
</mgrwt>
</event>
<event>
 6    1  0.2866116E-002  0.9670951E+02  0.7546771E-02  0.1367097E+00
          2   -1    0    0  501    0  0.00000000000E+00  0.00000000000E+00  0.50336367832E+03  0.50336367832E+03  0.00000000000E+00 0. -1.
         -2   -1    0    0    0  501 -0.00000000000E+00 -0.00000000000E+00 -0.11243372175E+02  0.11243372175E+02  0.00000000000E+00 0.  1.
         23    2    1    2    0    0 -0.17694761067E+02  0.15634537286E+02  0.47668733000E+03  0.48639853976E+03  0.93782650683E+02 0.  0.
         13    1    3    3    0    0 -0.35635086069E+02  0.39341537530E+02  0.16572776864E+03  0.17402100228E+03  0.00000000000E+00 0.  1.
        -13    1    3    3    0    0  0.17940325002E+02 -0.23707000244E+02  0.31095956136E+03  0.31237753748E+03  0.00000000000E+00 0. -1.
         22    1    1    2    0    0  0.17694761067E+02 -0.15634537286E+02  0.15432976145E+02  0.28208510738E+02  0.00000000000E+00 0.  1.
<mgrwt>
<rscale>  0 0.67980868E+02</rscale>
<asrwt>0</asrwt>
<pdfrwt beam="1">  1        2 0.77440549E-01 0.96709508E+02</pdfrwt>
<pdfrwt beam="2">  1       -2 0.17297500E-02 0.96709508E+02</pdfrwt>
<totfact> 0.52591091E+04</totfact>
</mgrwt>
</event>
<event>
 6    1  0.2866116E-002  0.9698683E+02  0.7546771E-02  0.1351306E+00
          2   -1    0    0  501    0  0.00000000000E+00  0.00000000000E+00  0.64190038451E+03  0.64190038451E+03  0.00000000000E+00 0. -1.
         -2   -1    0    0    0  501 -0.00000000000E+00 -0.00000000000E+00 -0.66257065882E+01  0.66257065882E+01  0.00000000000E+00 0.  1.
         23    2    1    2    0    0 -0.77459568585E+01 -0.29536788441E+02  0.53445119653E+03  0.54318001324E+03  0.92054459956E+02 0.  0.
         13    1    3    3    0    0  0.17894945514E+02  0.77186850669E+01  0.41494249881E+03  0.41539990911E+03  0.00000000000E+00 0. -1.
        -13    1    3    3    0    0 -0.25640902373E+02 -0.37255473508E+02  0.11950869772E+03  0.12778010413E+03  0.00000000000E+00 0.  1.
         22    1    1    2    0    0  0.77459568585E+01  0.29536788441E+02  0.10082348139E+03  0.10534607785E+03  0.00000000000E+00 0. -1.
<mgrwt>
<rscale>  0 0.72650084E+02</rscale>
<asrwt>0</asrwt>
<pdfrwt beam="1">  1        2 0.98753857E-01 0.96986831E+02</pdfrwt>
<pdfrwt beam="2">  1       -2 0.10193400E-02 0.96986831E+02</pdfrwt>
<totfact> 0.85364447E+04</totfact>
</mgrwt>
</event>
<event>
 6    1  0.2866116E-002  0.9194593E+02  0.7546771E-02  0.1406260E+00
         -2   -1    0    0    0  501 -0.00000000000E+00  0.00000000000E+00  0.70258338577E+01  0.70258338577E+01  0.00000000000E+00 0.  1.
          2   -1    0    0  501    0  0.00000000000E+00 -0.00000000000E+00 -0.60524241141E+03  0.60524241141E+03  0.00000000000E+00 0. -1.
         23    2    1    2    0    0  0.67314516579E+01 -0.12950410711E+02 -0.58618724940E+03  0.59335448533E+03  0.90780109755E+02 0.  0.
         13    1    3    3    0    0  0.42183255152E+02 -0.42300026593E+01 -0.46119689722E+03  0.46314133689E+03  0.00000000000E+00 0. -1.
        -13    1    3    3    0    0 -0.35451803495E+02 -0.87204080513E+01 -0.12499035219E+03  0.13021314844E+03  0.00000000000E+00 0.  1.
         22    1    1    2    0    0 -0.67314516579E+01  0.12950410711E+02 -0.12029328148E+02  0.18913759930E+02  0.00000000000E+00 0.  1.
<mgrwt>
<rscale>  0 0.58036785E+02</rscale>
<asrwt>0</asrwt>
<pdfrwt beam="1">  1        2 0.93114175E-01 0.91945929E+02</pdfrwt>
<pdfrwt beam="2">  1       -2 0.10808980E-02 0.91945929E+02</pdfrwt>
<totfact> 0.83361226E+04</totfact>
</mgrwt>
</event>
<event>
 6    1  0.2866116E-002  0.9053212E+02  0.7546771E-02  0.1427535E+00
          2   -1    0    0  501    0  0.00000000000E+00  0.00000000000E+00  0.49432314824E+03  0.49432314824E+03  0.00000000000E+00 0. -1.
         -2   -1    0    0    0  501 -0.00000000000E+00 -0.00000000000E+00 -0.52489923650E+01  0.52489923650E+01  0.00000000000E+00 0.  1.
         23    2    1    2    0    0  0.79322889493E+00 -0.10977791763E+02  0.44749588585E+03  0.45656175043E+03  0.89860575261E+02 0.  0.
         11    1    3    3    0    0  0.33454656938E+02 -0.35984898587E+02  0.26077515466E+03  0.26536353986E+03  0.00000000000E+00 0. -1.
        -11    1    3    3    0    0 -0.32661428043E+02  0.25007106824E+02  0.18672073118E+03  0.19119821057E+03  0.00000000000E+00 0.  1.
         22    1    1    2    0    0 -0.79322889493E+00  0.10977791763E+02  0.41578270033E+02  0.43010390175E+02  0.00000000000E+00 0.  1.
<mgrwt>
<rscale>  0 0.53458092E+02</rscale>
<asrwt>0</asrwt>
<pdfrwt beam="1">  1        2 0.76049678E-01 0.90532116E+02</pdfrwt>
<pdfrwt beam="2">  1       -2 0.80753768E-03 0.90532116E+02</pdfrwt>
<totfact> 0.15689122E+05</totfact>
</mgrwt>
</event>
<event>
 6    1  0.2866116E-002  0.9170065E+02  0.7546771E-02  0.1410908E+00
          2   -1    0    0  501    0  0.00000000000E+00  0.00000000000E+00  0.11630532814E+02  0.11630532814E+02  0.00000000000E+00 0. -1.
         -2   -1    0    0    0  501 -0.00000000000E+00 -0.00000000000E+00 -0.25636917844E+03  0.25636917844E+03  0.00000000000E+00 0.  1.
         23    2    1    2    0    0  0.12585488839E+02 -0.53654686638E+01 -0.18211757695E+03  0.20390149735E+03  0.90674285245E+02 0.  0.
         13    1    3    3    0    0  0.45186671062E+02 -0.18256635529E+02 -0.62516177973E+02  0.79267978976E+02  0.00000000000E+00 0. -1.
        -13    1    3    3    0    0 -0.32601182224E+02  0.12891166865E+02 -0.11960139897E+03  0.12463351837E+03  0.00000000000E+00 0.  1.
         22    1    1    2    0    0 -0.12585488839E+02  0.53654686638E+01 -0.62621068680E+02  0.64098213906E+02  0.00000000000E+00 0.  1.
<mgrwt>
<rscale>  0 0.56991822E+02</rscale>
<asrwt>0</asrwt>
<pdfrwt beam="1">  1        2 0.17893127E-02 0.91700648E+02</pdfrwt>
<pdfrwt beam="2">  1       -2 0.39441413E-01 0.91700648E+02</pdfrwt>
<totfact> 0.33993571E+04</totfact>
</mgrwt>
</event>
<event>
 6    1  0.2866116E-002  0.9443892E+02  0.7546771E-02  0.1420117E+00
         -2   -1    0    0    0  501 -0.00000000000E+00  0.00000000000E+00  0.69564598085E+01  0.69564598085E+01  0.00000000000E+00 0.  1.
          2   -1    0    0  501    0  0.00000000000E+00 -0.00000000000E+00 -0.11106213656E+04  0.11106213656E+04  0.00000000000E+00 0. -1.
         23    2    1    2    0    0 -0.43982623537E+01 -0.99307130232E+01 -0.11026306864E+04  0.11066675833E+04  0.93812288558E+02 0.  0.
         11    1    3    3    0    0  0.19901252711E+02 -0.33764667778E+02 -0.92353147708E+03  0.92436275445E+03  0.00000000000E+00 0. -1.
        -11    1    3    3    0    0 -0.24299515065E+02  0.23833954755E+02 -0.17909920936E+03  0.18230482886E+03  0.00000000000E+00 0.  1.
         22    1    1    2    0    0  0.43982623537E+01  0.99307130232E+01 -0.10342193402E+01  0.10910242093E+02  0.00000000000E+00 0.  1.
<mgrwt>
<rscale>  0 0.54996093E+02</rscale>
<asrwt>0</asrwt>
<pdfrwt beam="1">  1        2 0.17086476E+00 0.94438918E+02</pdfrwt>
<pdfrwt beam="2">  1       -2 0.10702250E-02 0.94438918E+02</pdfrwt>
<totfact> 0.39737476E+04</totfact>
</mgrwt>
</event>
<event>
 6    1  0.2866116E-002  0.8876645E+02  0.7546771E-02  0.1432711E+00
          3   -1    0    0  501    0  0.00000000000E+00  0.00000000000E+00  0.30133613518E+02  0.30133613518E+02  0.00000000000E+00 0. -1.
         -3   -1    0    0    0  501 -0.00000000000E+00 -0.00000000000E+00 -0.84119201437E+02  0.84119201437E+02  0.00000000000E+00 0.  1.
         23    2    1    2    0    0 -0.39508830580E+01  0.10046162543E+02 -0.42253600072E+02  0.98309967102E+02  0.88107593622E+02 0.  0.
         11    1    3    3    0    0  0.39532025292E+02 -0.99361610045E+01 -0.16591274399E+02  0.44008848035E+02  0.00000000000E+00 0.  1.
        -11    1    3    3    0    0 -0.43482908350E+02  0.19982323548E+02 -0.25662325673E+02  0.54301119067E+02  0.00000000000E+00 0. -1.
         22    1    1    2    0    0  0.39508830580E+01 -0.10046162543E+02 -0.11731987847E+02  0.15942847852E+02  0.00000000000E+00 0. -1.
<mgrwt>
<rscale>  0 0.52419591E+02</rscale>
<asrwt>0</asrwt>
<pdfrwt beam="1">  1        3 0.46359406E-02 0.88766452E+02</pdfrwt>
<pdfrwt beam="2">  1       -3 0.12941415E-01 0.88766452E+02</pdfrwt>
<totfact> 0.24815763E+04</totfact>
</mgrwt>
</event>
<event>
 6    1  0.2866116E-002  0.8845630E+02  0.7546771E-02  0.1423172E+00
          2   -1    0    0  501    0  0.00000000000E+00  0.00000000000E+00  0.16193053828E+03  0.16193053828E+03  0.00000000000E+00 0.  1.
         -2   -1    0    0    0  501 -0.00000000000E+00 -0.00000000000E+00 -0.34135706709E+02  0.34135706709E+02  0.00000000000E+00 0. -1.
         23    2    1    2    0    0  0.11812923150E+02  0.44176938594E+01  0.14789940219E+03  0.17233325250E+03  0.87552587502E+02 0.  0.
         13    1    3    3    0    0  0.29595747995E+02  0.11917605770E+02  0.14959477187E+03  0.15295925404E+03  0.00000000000E+00 0.  1.
        -13    1    3    3    0    0 -0.17782824845E+02 -0.74999119103E+01 -0.16953696772E+01  0.19373998464E+02  0.00000000000E+00 0. -1.
         22    1    1    2    0    0 -0.11812923150E+02 -0.44176938594E+01 -0.20104570620E+02  0.23732992483E+02  0.00000000000E+00 0. -1.
<mgrwt>
<rscale>  0 0.54355325E+02</rscale>
<asrwt>0</asrwt>
<pdfrwt beam="1">  1        2 0.24912390E-01 0.88456299E+02</pdfrwt>
<pdfrwt beam="2">  1       -2 0.52516473E-02 0.88456299E+02</pdfrwt>
<totfact> 0.34296847E+04</totfact>
</mgrwt>
</event>
<event>
 6    1  0.2866116E-002  0.8763173E+02  0.7546771E-02  0.1421569E+00
          2   -1    0    0  501    0  0.00000000000E+00  0.00000000000E+00  0.81653458660E+02  0.81653458660E+02  0.00000000000E+00 0. -1.
         -2   -1    0    0    0  501 -0.00000000000E+00 -0.00000000000E+00 -0.35684116713E+02  0.35684116713E+02  0.00000000000E+00 0.  1.
         23    2    1    2    0    0 -0.11224401654E+02  0.71236652810E+01  0.52884192458E+02  0.10235261768E+03  0.86617473608E+02 0.  0.
         13    1    3    3    0    0  0.67085430822E+01  0.22040781311E+02 -0.17029882538E+02  0.28649912571E+02  0.00000000000E+00 0.  1.
        -13    1    3    3    0    0 -0.17932944736E+02 -0.14917116030E+02  0.69914074996E+02  0.73702705107E+02  0.00000000000E+00 0. -1.
         22    1    1    2    0    0  0.11224401654E+02 -0.71236652810E+01 -0.69148505115E+01  0.14984957695E+02  0.00000000000E+00 0. -1.
<mgrwt>
<rscale>  0 0.54690387E+02</rscale>
<asrwt>0</asrwt>
<pdfrwt beam="1">  1        2 0.12562071E-01 0.87631732E+02</pdfrwt>
<pdfrwt beam="2">  1       -2 0.54898641E-02 0.87631732E+02</pdfrwt>
<totfact> 0.69640229E+04</totfact>
</mgrwt>
</event>
<event>
 6    1  0.2866116E-002  0.9378542E+02  0.7546771E-02  0.1422743E+00
          2   -1    0    0  501    0  0.00000000000E+00  0.00000000000E+00  0.20514262955E+04  0.20514262955E+04  0.00000000000E+00 0. -1.
         -2   -1    0    0    0  501 -0.00000000000E+00 -0.00000000000E+00 -0.18030177403E+01  0.18030177403E+01  0.00000000000E+00 0.  1.
         23    2    1    2    0    0 -0.38272324796E+01  0.99402778762E+01  0.20103735064E+04  0.20125598974E+04  0.93178584297E+02 0.  0.
         11    1    3    3    0    0  0.15354646685E+01  0.34836784006E+02  0.18365127024E+04  0.18368437237E+04  0.00000000000E+00 0. -1.
        -11    1    3    3    0    0 -0.53626971481E+01 -0.24896506129E+02  0.17386080396E+03  0.17571617368E+03  0.00000000000E+00 0.  1.
         22    1    1    2    0    0  0.38272324796E+01 -0.99402778762E+01  0.39249771375E+02  0.40669415851E+02  0.00000000000E+00 0.  1.
<mgrwt>
<rscale>  0 0.54444666E+02</rscale>
<asrwt>0</asrwt>
<pdfrwt beam="1">  1        2 0.31560218E+00 0.93785422E+02</pdfrwt>
<pdfrwt beam="2">  1       -2 0.27738899E-03 0.93785422E+02</pdfrwt>
<totfact> 0.86593662E+04</totfact>
</mgrwt>
</event>
<event>
 6    1  0.2866116E-002  0.9190221E+02  0.7546771E-02  0.1404956E+00
          2   -1    0    0  501    0  0.00000000000E+00  0.00000000000E+00  0.52802355544E+02  0.52802355544E+02  0.00000000000E+00 0. -1.
         -2   -1    0    0    0  501 -0.00000000000E+00 -0.00000000000E+00 -0.57887626215E+02  0.57887626215E+02  0.00000000000E+00 0.  1.
         23    2    1    2    0    0 -0.12369580861E+02  0.83403275229E+01  0.60087812006E+01  0.92098435809E+02  0.90683233473E+02 0.  0.
         13    1    3    3    0    0 -0.46684589933E+02  0.97256462179E+01  0.23937039838E+02  0.53357483146E+02  0.00000000000E+00 0. -1.
        -13    1    3    3    0    0  0.34315009072E+02 -0.13853186950E+01 -0.17928258637E+02  0.38740952663E+02  0.00000000000E+00 0.  1.
         22    1    1    2    0    0  0.12369580861E+02 -0.83403275229E+01 -0.11094051872E+02  0.18591545950E+02  0.00000000000E+00 0.  1.
<mgrwt>
<rscale>  0 0.58334733E+02</rscale>
<asrwt>0</asrwt>
<pdfrwt beam="1">  1        2 0.81234393E-02 0.91902211E+02</pdfrwt>
<pdfrwt beam="2">  1       -2 0.89057886E-02 0.91902211E+02</pdfrwt>
<totfact> 0.57109971E+04</totfact>
</mgrwt>
</event>
<event>
 6    1  0.2866116E-002  0.9117722E+02  0.7546771E-02  0.1413062E+00
         -2   -1    0    0    0  501 -0.00000000000E+00  0.00000000000E+00  0.38962724388E+01  0.38962724388E+01  0.00000000000E+00 0.  1.
          2   -1    0    0  501    0  0.00000000000E+00 -0.00000000000E+00 -0.14591177570E+04  0.14591177570E+04  0.00000000000E+00 0. -1.
         23    2    1    2    0    0  0.13397605294E+02 -0.12910498741E+01 -0.14392166859E+04  0.14421019225E+04  0.90178285358E+02 0.  0.
         13    1    3    3    0    0 -0.32762565606E+02 -0.22872972871E+02 -0.57861829502E+03  0.57999628440E+03  0.00000000000E+00 0. -1.
        -13    1    3    3    0    0  0.46160170899E+02  0.21581922996E+02 -0.86059839092E+03  0.86210563809E+03  0.00000000000E+00 0.  1.
         22    1    1    2    0    0 -0.13397605294E+02  0.12910498741E+01 -0.16004798584E+02  0.20912106902E+02  0.00000000000E+00 0.  1.
<mgrwt>
<rscale>  0 0.56516251E+02</rscale>
<asrwt>0</asrwt>
<pdfrwt beam="1">  1        2 0.22447962E+00 0.91177222E+02</pdfrwt>
<pdfrwt beam="2">  1       -2 0.59942663E-03 0.91177222E+02</pdfrwt>
<totfact> 0.58494415E+04</totfact>
</mgrwt>
</event>
<event>
 6    1  0.2866116E-002  0.9313368E+02  0.7546771E-02  0.1401699E+00
          2   -1    0    0  501    0  0.00000000000E+00  0.00000000000E+00  0.27123896294E+03  0.27123896294E+03  0.00000000000E+00 0.  1.
         -2   -1    0    0    0  501 -0.00000000000E+00 -0.00000000000E+00 -0.11895561095E+02  0.11895561095E+02  0.00000000000E+00 0. -1.
         23    2    1    2    0    0 -0.57685371998E+01  0.13943498485E+02  0.24582148041E+03  0.26287274892E+03  0.91903126843E+02 0.  0.
         11    1    3    3    0    0  0.36247455541E+02 -0.18407892745E+01  0.17718410868E+03  0.18086313861E+03  0.00000000000E+00 0.  1.
        -11    1    3    3    0    0 -0.42015992740E+02  0.15784287759E+02  0.68637371734E+02  0.82009610319E+02  0.00000000000E+00 0. -1.
         22    1    1    2    0    0  0.57685371998E+01 -0.13943498485E+02  0.13521921433E+02  0.20261775112E+02  0.00000000000E+00 0.  1.
<mgrwt>
<rscale>  0 0.59088065E+02</rscale>
<asrwt>0</asrwt>
<pdfrwt beam="1">  1        2 0.41729066E-01 0.93133678E+02</pdfrwt>
<pdfrwt beam="2">  1       -2 0.18300865E-02 0.93133678E+02</pdfrwt>
<totfact> 0.92691701E+04</totfact>
</mgrwt>
</event>
<event>
 6    1  0.2866116E-002  0.9129328E+02  0.7546771E-02  0.1397524E+00
         -2   -1    0    0    0  501 -0.00000000000E+00  0.00000000000E+00  0.24139188340E+02  0.24139188340E+02  0.00000000000E+00 0. -1.
          2   -1    0    0  501    0  0.00000000000E+00 -0.00000000000E+00 -0.19674764041E+03  0.19674764041E+03  0.00000000000E+00 0.  1.
         23    2    1    2    0    0  0.32962001581E+00 -0.17113108061E+02 -0.18032024802E+03  0.20211347227E+03  0.89674392733E+02 0.  0.
         11    1    3    3    0    0 -0.31440858058E+02 -0.13872429496E+01 -0.15595315814E+03  0.15909695010E+03  0.00000000000E+00 0.  1.
        -11    1    3    3    0    0  0.31770478074E+02 -0.15725865111E+02 -0.24367089881E+02  0.43016522172E+02  0.00000000000E+00 0. -1.
         22    1    1    2    0    0 -0.32962001581E+00  0.17113108061E+02  0.77117959452E+01  0.18773356481E+02  0.00000000000E+00 0. -1.
<mgrwt>
<rscale>  0 0.60073299E+02</rscale>
<asrwt>0</asrwt>
<pdfrwt beam="1">  1        2 0.30268867E-01 0.91293285E+02</pdfrwt>
<pdfrwt beam="2">  1       -2 0.37137214E-02 0.91293285E+02</pdfrwt>
<totfact> 0.46563232E+04</totfact>
</mgrwt>
</event>
<event>
 6    1  0.2866116E-002  0.9485762E+02  0.7546771E-02  0.1362557E+00
          1   -1    0    0  501    0  0.00000000000E+00  0.00000000000E+00  0.58491386353E+02  0.58491386353E+02  0.00000000000E+00 0. -1.
         -1   -1    0    0    0  501 -0.00000000000E+00 -0.00000000000E+00 -0.65083061070E+02  0.65083061070E+02  0.00000000000E+00 0.  1.
         23    2    1    2    0    0 -0.15574903063E+02  0.22044606547E+02 -0.13237441846E+02  0.95776812561E+02  0.90936382567E+02 0.  0.
         11    1    3    3    0    0 -0.33611060518E+02 -0.18743699178E+02  0.16815940166E+02  0.41997684361E+02  0.00000000000E+00 0.  1.
        -11    1    3    3    0    0  0.18036157454E+02  0.40788305724E+02 -0.30053382012E+02  0.53779128200E+02  0.00000000000E+00 0. -1.
         22    1    1    2    0    0  0.15574903063E+02 -0.22044606547E+02  0.66457671286E+01  0.27797634863E+02  0.00000000000E+00 0. -1.
<mgrwt>
<rscale>  0 0.69280500E+02</rscale>
<asrwt>0</asrwt>
<pdfrwt beam="1">  1        1 0.89986748E-02 0.94857619E+02</pdfrwt>
<pdfrwt beam="2">  1       -1 0.10012779E-01 0.94857619E+02</pdfrwt>
<totfact> 0.39218995E+04</totfact>
</mgrwt>
</event>
<event>
 6    1  0.2866116E-002  0.9739283E+02  0.7546771E-02  0.1388399E+00
          2   -1    0    0  501    0  0.00000000000E+00  0.00000000000E+00  0.11539171177E+03  0.11539171177E+03  0.00000000000E+00 0. -1.
         -2   -1    0    0    0  501 -0.00000000000E+00 -0.00000000000E+00 -0.33657419250E+02  0.33657419250E+02  0.00000000000E+00 0.  1.
         23    2    1    2    0    0 -0.44494449577E+01  0.15695312092E+02  0.88301599937E+02  0.13146305957E+03  0.96016785506E+02 0.  0.
         11    1    3    3    0    0 -0.20104359795E+02  0.25642550641E+02  0.10285131725E+03  0.10788938385E+03  0.00000000000E+00 0. -1.
        -11    1    3    3    0    0  0.15654914837E+02 -0.99472385490E+01 -0.14549717316E+02  0.23573675727E+02  0.00000000000E+00 0.  1.
         22    1    1    2    0    0  0.44494449577E+01 -0.15695312092E+02 -0.65673074183E+01  0.17586071444E+02  0.00000000000E+00 0.  1.
<mgrwt>
<rscale>  0 0.62306605E+02</rscale>
<asrwt>0</asrwt>
<pdfrwt beam="1">  1        2 0.17752571E-01 0.97392831E+02</pdfrwt>
<pdfrwt beam="2">  1       -2 0.51780646E-02 0.97392831E+02</pdfrwt>
<totfact> 0.51681744E+04</totfact>
</mgrwt>
</event>
<event>
 6    1  0.2866116E-002  0.1015885E+03  0.7546771E-02  0.1378206E+00
         -4   -1    0    0    0  501 -0.00000000000E+00  0.00000000000E+00  0.85678393591E+02  0.85678393591E+02  0.00000000000E+00 0.  1.
          4   -1    0    0  501    0  0.00000000000E+00 -0.00000000000E+00 -0.41650442409E+02  0.41650442409E+02  0.00000000000E+00 0. -1.
         23    2    1    2    0    0  0.16427468660E+02  0.42212644322E+01  0.31905488604E+02  0.10648093685E+03  0.10016261233E+03 0.  0.
         13    1    3    3    0    0  0.25836530933E+02  0.85626841309E+01 -0.31845938345E+02  0.41892835656E+02  0.00000000000E+00 0. -1.
        -13    1    3    3    0    0 -0.94090622732E+01 -0.43414196987E+01  0.63751426950E+02  0.64588101195E+02  0.00000000000E+00 0.  1.
         22    1    1    2    0    0 -0.16427468660E+02 -0.42212644322E+01  0.12122462578E+02  0.20847899149E+02  0.00000000000E+00 0.  1.
<mgrwt>
<rscale>  0 0.64937770E+02</rscale>
<asrwt>0</asrwt>
<pdfrwt beam="1">  1        4 0.64077604E-02 0.10158853E+03</pdfrwt>
<pdfrwt beam="2">  1       -4 0.13181291E-01 0.10158853E+03</pdfrwt>
<totfact> 0.11285585E+04</totfact>
</mgrwt>
</event>
<event>
 6    1  0.2866116E-002  0.9364763E+02  0.7546771E-02  0.1407517E+00
         -2   -1    0    0    0  501 -0.00000000000E+00  0.00000000000E+00  0.37641155036E+02  0.37641155036E+02  0.00000000000E+00 0.  1.
          2   -1    0    0  501    0  0.00000000000E+00 -0.00000000000E+00 -0.13049462378E+03  0.13049462378E+03  0.00000000000E+00 0. -1.
         23    2    1    2    0    0  0.76969152478E+01  0.11144969175E+02 -0.11116896817E+03  0.14535617474E+03  0.92662965685E+02 0.  0.
         11    1    3    3    0    0  0.11857335682E+02 -0.35330003136E+02 -0.18507112191E+02  0.41609118384E+02  0.00000000000E+00 0.  1.
        -11    1    3    3    0    0 -0.41604204337E+01  0.46474972311E+02 -0.92661855981E+02  0.10374705636E+03  0.00000000000E+00 0. -1.
         22    1    1    2    0    0 -0.76969152478E+01 -0.11144969175E+02  0.18315499430E+02  0.22779604071E+02  0.00000000000E+00 0.  1.
<mgrwt>
<rscale>  0 0.57751483E+02</rscale>
<asrwt>0</asrwt>
<pdfrwt beam="1">  1        2 0.20076096E-01 0.93647627E+02</pdfrwt>
<pdfrwt beam="2">  1       -2 0.57909469E-02 0.93647627E+02</pdfrwt>
<totfact> 0.37874605E+04</totfact>
</mgrwt>
</event>
<event>
 6    1  0.2866116E-002  0.9035216E+02  0.7546771E-02  0.1426077E+00
         -2   -1    0    0    0  501 -0.00000000000E+00  0.00000000000E+00  0.43988103118E+02  0.43988103118E+02  0.00000000000E+00 0.  1.
          2   -1    0    0  501    0  0.00000000000E+00 -0.00000000000E+00 -0.61617636349E+02  0.61617636349E+02  0.00000000000E+00 0. -1.
         23    2    1    2    0    0  0.74735151391E+01  0.85034969577E+01 -0.22762774825E+02  0.93175411301E+02  0.89640116378E+02 0.  0.
         11    1    3    3    0    0 -0.35991969325E+02  0.10136418249E+02 -0.31402921379E+02  0.48829420455E+02  0.00000000000E+00 0. -1.
        -11    1    3    3    0    0  0.43465484464E+02 -0.16329212911E+01  0.86401465541E+01  0.44345990846E+02  0.00000000000E+00 0.  1.
         22    1    1    2    0    0 -0.74735151391E+01 -0.85034969577E+01  0.51332415942E+01  0.12430328166E+02  0.00000000000E+00 0. -1.
<mgrwt>
<rscale>  0 0.53755660E+02</rscale>
<asrwt>0</asrwt>
<pdfrwt beam="1">  1        2 0.94796363E-02 0.90352163E+02</pdfrwt>
<pdfrwt beam="2">  1       -2 0.67674005E-02 0.90352163E+02</pdfrwt>
<totfact> 0.71639547E+04</totfact>
</mgrwt>
</event>
<event>
 6    1  0.2866116E-002  0.9103456E+02  0.7546771E-02  0.1422541E+00
         -3   -1    0    0    0  501 -0.00000000000E+00  0.00000000000E+00  0.11114039883E+03  0.11114039883E+03  0.00000000000E+00 0.  1.
          3   -1    0    0  501    0  0.00000000000E+00 -0.00000000000E+00 -0.30720485772E+02  0.30720485772E+02  0.00000000000E+00 0. -1.
         23    2    1    2    0    0  0.98583950307E+01 -0.62689686602E+01  0.39373953632E+02  0.99184676876E+02  0.90281803159E+02 0.  0.
         11    1    3    3    0    0  0.60236796014E+01  0.24187136443E+02  0.58104171145E+02  0.63224971251E+02  0.00000000000E+00 0.  1.
        -11    1    3    3    0    0  0.38347154293E+01 -0.30456105104E+02 -0.18730217513E+02  0.35959705625E+02  0.00000000000E+00 0. -1.
         22    1    1    2    0    0 -0.98583950307E+01  0.62689686602E+01  0.41045959426E+02  0.42676207726E+02  0.00000000000E+00 0.  1.
<mgrwt>
<rscale>  0 0.54486827E+02</rscale>
<asrwt>0</asrwt>
<pdfrwt beam="1">  1        3 0.47262286E-02 0.91034564E+02</pdfrwt>
<pdfrwt beam="2">  1       -3 0.17098523E-01 0.91034564E+02</pdfrwt>
<totfact> 0.15126793E+04</totfact>
</mgrwt>
</event>
<event>
 6    1  0.2866116E-002  0.9086397E+02  0.7546771E-02  0.1407437E+00
          4   -1    0    0  501    0  0.00000000000E+00  0.00000000000E+00  0.44120275367E+02  0.44120275367E+02  0.00000000000E+00 0. -1.
         -4   -1    0    0    0  501 -0.00000000000E+00 -0.00000000000E+00 -0.67393782460E+02  0.67393782460E+02  0.00000000000E+00 0.  1.
         23    2    1    2    0    0  0.88467697641E+01 -0.11922891244E+02 -0.96690452475E+01  0.91376976286E+02  0.89642850738E+02 0.  0.
         13    1    3    3    0    0 -0.25239454984E+02  0.16560019754E+02  0.21544438110E+02  0.37086751754E+02  0.00000000000E+00 0. -1.
        -13    1    3    3    0    0  0.34086224748E+02 -0.28482910999E+02 -0.31213483358E+02  0.54290224533E+02  0.00000000000E+00 0.  1.
         22    1    1    2    0    0 -0.88467697641E+01  0.11922891244E+02 -0.13604461845E+02  0.20137081540E+02  0.00000000000E+00 0.  1.
<mgrwt>
<rscale>  0 0.57769729E+02</rscale>
<asrwt>0</asrwt>
<pdfrwt beam="1">  1        4 0.67877346E-02 0.90863972E+02</pdfrwt>
<pdfrwt beam="2">  1       -4 0.10368274E-01 0.90863972E+02</pdfrwt>
<totfact> 0.14931888E+04</totfact>
</mgrwt>
</event>
<event>
 6    1  0.2866116E-002  0.1006699E+03  0.7546771E-02  0.1327437E+00
          2   -1    0    0  501    0  0.00000000000E+00  0.00000000000E+00  0.15691624023E+02  0.15691624023E+02  0.00000000000E+00 0.  1.
         -2   -1    0    0    0  501 -0.00000000000E+00 -0.00000000000E+00 -0.32682311166E+03  0.32682311166E+03  0.00000000000E+00 0. -1.
         23    2    1    2    0    0 -0.34032136299E+02 -0.23412038125E+02 -0.24001122107E+03  0.26026875008E+03  0.91804826681E+02 0.  0.
         13    1    3    3    0    0 -0.58315122422E+02  0.26644999988E+01 -0.99974330069E+02  0.11576968401E+03  0.00000000000E+00 0.  1.
        -13    1    3    3    0    0  0.24282986122E+02 -0.26076538124E+02 -0.14003689100E+03  0.14449906607E+03  0.00000000000E+00 0. -1.
         22    1    1    2    0    0  0.34032136299E+02  0.23412038125E+02 -0.71120266568E+02  0.82245985598E+02  0.00000000000E+00 0. -1.
<mgrwt>
<rscale>  0 0.80571617E+02</rscale>
<asrwt>0</asrwt>
<pdfrwt beam="1">  1        2 0.24140961E-02 0.10066994E+03</pdfrwt>
<pdfrwt beam="2">  1       -2 0.50280477E-01 0.10066994E+03</pdfrwt>
<totfact> 0.14417723E+04</totfact>
</mgrwt>
</event>
<event>
 6    1  0.2866116E-002  0.9450298E+02  0.7546771E-02  0.1419786E+00
          2   -1    0    0  501    0  0.00000000000E+00  0.00000000000E+00  0.46186651811E+03  0.46186651811E+03  0.00000000000E+00 0. -1.
         -2   -1    0    0    0  501 -0.00000000000E+00 -0.00000000000E+00 -0.81577083081E+01  0.81577083081E+01  0.00000000000E+00 0.  1.
         23    2    1    2    0    0 -0.13979352801E+01  0.10804406716E+02  0.44773452674E+03  0.45759919178E+03  0.93872916544E+02 0.  0.
         11    1    3    3    0    0 -0.27086776906E+02  0.41926010256E+02  0.31286994821E+03  0.31682659029E+03  0.00000000000E+00 0. -1.
        -11    1    3    3    0    0  0.25688841626E+02 -0.31121603540E+02  0.13486457852E+03  0.14077260149E+03  0.00000000000E+00 0.  1.
         22    1    1    2    0    0  0.13979352801E+01 -0.10804406716E+02  0.59742830633E+01  0.12425034634E+02  0.00000000000E+00 0.  1.
<mgrwt>
<rscale>  0 0.55066268E+02</rscale>
<asrwt>0</asrwt>
<pdfrwt beam="1">  1        2 0.71056367E-01 0.94502983E+02</pdfrwt>
<pdfrwt beam="2">  1       -2 0.12550324E-02 0.94502983E+02</pdfrwt>
<totfact> 0.90952513E+04</totfact>
</mgrwt>
</event>
<event>
 6    1  0.2866116E-002  0.9442853E+02  0.7546771E-02  0.1361100E+00
         -2   -1    0    0    0  501 -0.00000000000E+00  0.00000000000E+00  0.59302305502E+01  0.59302305502E+01  0.00000000000E+00 0. -1.
          2   -1    0    0  501    0  0.00000000000E+00 -0.00000000000E+00 -0.11453135793E+04  0.11453135793E+04  0.00000000000E+00 0.  1.
         23    2    1    2    0    0 -0.77361662394E+01  0.26949097183E+02 -0.10928107597E+04  0.10968829033E+04  0.90170089277E+02 0.  0.
         11    1    3    3    0    0 -0.56266117483E+01  0.24464463250E+02 -0.10932989911E+04  0.10935871491E+04  0.00000000000E+00 0.  1.
        -11    1    3    3    0    0 -0.21095544911E+01  0.24846339337E+01  0.48823142249E+00  0.32957542168E+01  0.00000000000E+00 0. -1.
         22    1    1    2    0    0  0.77361662394E+01 -0.26949097183E+02 -0.46572589080E+02  0.54360906548E+02  0.00000000000E+00 0. -1.
<mgrwt>
<rscale>  0 0.69704736E+02</rscale>
<asrwt>0</asrwt>
<pdfrwt beam="1">  1        2 0.17620200E+00 0.94428529E+02</pdfrwt>
<pdfrwt beam="2">  1       -2 0.91234364E-03 0.94428529E+02</pdfrwt>
<totfact> 0.47651312E+04</totfact>
</mgrwt>
</event>
<event>
 6    1  0.2866116E-002  0.9067892E+02  0.7546771E-02  0.1433031E+00
          2   -1    0    0  501    0  0.00000000000E+00  0.00000000000E+00  0.15228420399E+04  0.15228420399E+04  0.00000000000E+00 0. -1.
         -2   -1    0    0    0  501 -0.00000000000E+00 -0.00000000000E+00 -0.22467484850E+01  0.22467484850E+01  0.00000000000E+00 0.  1.
         23    2    1    2    0    0  0.95954502565E+01 -0.30799024183E+01  0.14922991326E+04  0.14950516269E+04  0.90117187966E+02 0.  0.
         11    1    3    3    0    0 -0.27408307374E+02 -0.37033908421E+01  0.17003318353E+03  0.17226785515E+03  0.00000000000E+00 0.  1.
        -11    1    3    3    0    0  0.37003757631E+02  0.62348842386E+00  0.13222659490E+04  0.13227837717E+04  0.00000000000E+00 0. -1.
         22    1    1    2    0    0 -0.95954502565E+01  0.30799024183E+01  0.28296158823E+02  0.30037161462E+02  0.00000000000E+00 0.  1.
<mgrwt>
<rscale>  0 0.52356338E+02</rscale>
<asrwt>0</asrwt>
<pdfrwt beam="1">  1        2 0.23428257E+00 0.90678917E+02</pdfrwt>
<pdfrwt beam="2">  1       -2 0.34565483E-03 0.90678917E+02</pdfrwt>
<totfact> 0.11719041E+05</totfact>
</mgrwt>
</event>
<event>
 6    1  0.2866116E-002  0.9271430E+02  0.7546771E-02  0.1415097E+00
          2   -1    0    0  501    0  0.00000000000E+00  0.00000000000E+00  0.30602191288E+03  0.30602191288E+03  0.00000000000E+00 0. -1.
         -2   -1    0    0    0  501 -0.00000000000E+00 -0.00000000000E+00 -0.11241205673E+02  0.11241205673E+02  0.00000000000E+00 0.  1.
         23    2    1    2    0    0  0.53811615322E+01 -0.11175237374E+02  0.28913322386E+03  0.30363458605E+03  0.91880889643E+02 0.  0.
         11    1    3    3    0    0  0.30626635393E+01  0.28663341285E+02  0.30599802745E+02  0.42039445400E+02  0.00000000000E+00 0.  1.
        -11    1    3    3    0    0  0.23184979930E+01 -0.39838578659E+02  0.25853342111E+03  0.26159514065E+03  0.00000000000E+00 0. -1.
         22    1    1    2    0    0 -0.53811615322E+01  0.11175237374E+02  0.56474833479E+01  0.13628532495E+02  0.00000000000E+00 0. -1.
<mgrwt>
<rscale>  0 0.56071824E+02</rscale>
<asrwt>0</asrwt>
<pdfrwt beam="1">  1        2 0.47080288E-01 0.92714296E+02</pdfrwt>
<pdfrwt beam="2">  1       -2 0.17294165E-02 0.92714296E+02</pdfrwt>
<totfact> 0.88543033E+04</totfact>
</mgrwt>
</event>
<event>
 6    1  0.2866116E-002  0.9622756E+02  0.7546771E-02  0.1348202E+00
         -2   -1    0    0    0  501 -0.00000000000E+00  0.00000000000E+00  0.13876283119E+02  0.13876283119E+02  0.00000000000E+00 0.  1.
          2   -1    0    0  501    0  0.00000000000E+00 -0.00000000000E+00 -0.30718633768E+03  0.30718633768E+03  0.00000000000E+00 0. -1.
         23    2    1    2    0    0 -0.32800161526E+02 -0.32959064444E+01 -0.23734814208E+03  0.25611303078E+03  0.90404813971E+02 0.  0.
         11    1    3    3    0    0 -0.14933313454E+02 -0.33540605573E+02 -0.34952982739E+02  0.50692080992E+02  0.00000000000E+00 0.  1.
        -11    1    3    3    0    0 -0.17866848072E+02  0.30244699129E+02 -0.20239515935E+03  0.20542094979E+03  0.00000000000E+00 0. -1.
         22    1    1    2    0    0  0.32800161526E+02  0.32959064444E+01 -0.55961912475E+02  0.64949590016E+02  0.00000000000E+00 0.  1.
<mgrwt>
<rscale>  0 0.73618846E+02</rscale>
<asrwt>0</asrwt>
<pdfrwt beam="1">  1        2 0.47259433E-01 0.96227564E+02</pdfrwt>
<pdfrwt beam="2">  1       -2 0.21348130E-02 0.96227564E+02</pdfrwt>
<totfact> 0.65509597E+04</totfact>
</mgrwt>
</event>
<event>
 6    1  0.2866116E-002  0.9196844E+02  0.7546771E-02  0.1367187E+00
          2   -1    0    0  501    0  0.00000000000E+00  0.00000000000E+00  0.30427267408E+03  0.30427267408E+03  0.00000000000E+00 0. -1.
         -2   -1    0    0    0  501 -0.00000000000E+00 -0.00000000000E+00 -0.14206600143E+02  0.14206600143E+02  0.00000000000E+00 0.  1.
         23    2    1    2    0    0  0.81935854570E+01  0.26161565446E+02  0.26783043390E+03  0.28318074682E+03  0.87787423333E+02 0.  0.
         13    1    3    3    0    0 -0.16118431782E+02 -0.46623636830E+01  0.51052493023E+01  0.17538672945E+02  0.00000000000E+00 0.  1.
        -13    1    3    3    0    0  0.24312017239E+02  0.30823929129E+02  0.26272518460E+03  0.26564207387E+03  0.00000000000E+00 0. -1.
         22    1    1    2    0    0 -0.81935854570E+01 -0.26161565446E+02  0.22235640040E+02  0.35298527409E+02  0.00000000000E+00 0.  1.
<mgrwt>
<rscale>  0 0.67955521E+02</rscale>
<asrwt>0</asrwt>
<pdfrwt beam="1">  1        2 0.46811176E-01 0.91968440E+02</pdfrwt>
<pdfrwt beam="2">  1       -2 0.21856310E-02 0.91968440E+02</pdfrwt>
<totfact> 0.63571695E+04</totfact>
</mgrwt>
</event>
<event>
 6    1  0.2866116E-002  0.1001204E+03  0.7546771E-02  0.1372950E+00
          2   -1    0    0  501    0  0.00000000000E+00  0.00000000000E+00  0.52282940124E+03  0.52282940124E+03  0.00000000000E+00 0. -1.
         -2   -1    0    0    0  501 -0.00000000000E+00 -0.00000000000E+00 -0.10251759629E+02  0.10251759629E+02  0.00000000000E+00 0.  1.
         23    2    1    2    0    0 -0.16379039463E+02  0.10237457405E+02  0.50024209386E+03  0.51016295400E+03  0.98239547528E+02 0.  0.
         11    1    3    3    0    0  0.23719855539E+02 -0.29776539464E+02  0.12498685642E+03  0.13065599154E+03  0.00000000000E+00 0. -1.
        -11    1    3    3    0    0 -0.40098895002E+02  0.40013996869E+02  0.37525523744E+03  0.37950696246E+03  0.00000000000E+00 0.  1.
         22    1    1    2    0    0  0.16379039463E+02 -0.10237457405E+02  0.12335547758E+02  0.22918206874E+02  0.00000000000E+00 0. -1.
<mgrwt>
<rscale>  0 0.66353958E+02</rscale>
<asrwt>0</asrwt>
<pdfrwt beam="1">  1        2 0.80435272E-01 0.10012036E+03</pdfrwt>
<pdfrwt beam="2">  1       -2 0.15771942E-02 0.10012036E+03</pdfrwt>
<totfact> 0.57847338E+04</totfact>
</mgrwt>
</event>
<event>
 6    1  0.2866116E-002  0.7060538E+02  0.7546771E-02  0.1429274E+00
         -4   -1    0    0    0  501 -0.00000000000E+00  0.00000000000E+00  0.12011364240E+03  0.12011364240E+03  0.00000000000E+00 0.  1.
          4   -1    0    0  501    0  0.00000000000E+00 -0.00000000000E+00 -0.18750490324E+02  0.18750490324E+02  0.00000000000E+00 0. -1.
         23    2    1    2    0    0 -0.19763155588E+02  0.10957609982E+02  0.64530984693E+02  0.95652327745E+02  0.66891466440E+02 0.  0.
         13    1    3    3    0    0 -0.16314987479E+00 -0.14748273755E+02  0.61432727539E+02  0.63178463177E+02  0.00000000000E+00 0.  1.
        -13    1    3    3    0    0 -0.19600005713E+02  0.25705883736E+02  0.30982571538E+01  0.32473864568E+02  0.00000000000E+00 0. -1.
         22    1    1    2    0    0  0.19763155588E+02 -0.10957609982E+02  0.36832167379E+02  0.43211804974E+02  0.00000000000E+00 0.  1.
<mgrwt>
<rscale>  0 0.53106042E+02</rscale>
<asrwt>0</asrwt>
<pdfrwt beam="1">  1        4 0.28846909E-02 0.70605381E+02</pdfrwt>
<pdfrwt beam="2">  1       -4 0.18479021E-01 0.70605381E+02</pdfrwt>
<totfact> 0.19724147E+04</totfact>
</mgrwt>
</event>
<event>
 6    1  0.2866116E-002  0.9196400E+02  0.7546771E-02  0.1420157E+00
         -2   -1    0    0    0  501 -0.00000000000E+00  0.00000000000E+00  0.43857055898E+01  0.43857055898E+01  0.00000000000E+00 0.  1.
          2   -1    0    0  501    0  0.00000000000E+00 -0.00000000000E+00 -0.10546829059E+04  0.10546829059E+04  0.00000000000E+00 0. -1.
         23    2    1    2    0    0 -0.10930393163E+02 -0.43242168707E+01 -0.10379674604E+04  0.10420335056E+04  0.91209679249E+02 0.  0.
         11    1    3    3    0    0 -0.13589058469E+02  0.26467156325E+02 -0.90627031818E+03  0.90675854696E+03  0.00000000000E+00 0.  1.
        -11    1    3    3    0    0  0.26586653058E+01 -0.30791373196E+02 -0.13169714221E+03  0.13527495862E+03  0.00000000000E+00 0. -1.
         22    1    1    2    0    0  0.10930393163E+02  0.43242168707E+01 -0.12329739877E+02  0.17035105860E+02  0.00000000000E+00 0.  1.
<mgrwt>
<rscale>  0 0.54987762E+02</rscale>
<asrwt>0</asrwt>
<pdfrwt beam="1">  1        2 0.16225913E+00 0.91964003E+02</pdfrwt>
<pdfrwt beam="2">  1       -2 0.67472304E-03 0.91964003E+02</pdfrwt>
<totfact> 0.81780446E+04</totfact>
</mgrwt>
</event>
<event>
 6    1  0.2866116E-002  0.9119553E+02  0.7546771E-02  0.1416273E+00
         -3   -1    0    0    0  501 -0.00000000000E+00  0.00000000000E+00  0.19947438524E+01  0.19947438524E+01  0.00000000000E+00 0. -1.
          3   -1    0    0  501    0  0.00000000000E+00 -0.00000000000E+00 -0.18355792702E+04  0.18355792702E+04  0.00000000000E+00 0.  1.
         23    2    1    2    0    0  0.78322865200E+01  0.10121919587E+02 -0.17851255793E+04  0.17874534842E+04  0.90293001821E+02 0.  0.
         11    1    3    3    0    0  0.41539631143E+02 -0.16544042857E+02 -0.66359896629E+03  0.66510362679E+03  0.00000000000E+00 0. -1.
        -11    1    3    3    0    0 -0.33707344623E+02  0.26665962443E+02 -0.11215266131E+04  0.11223498574E+04  0.00000000000E+00 0.  1.
         22    1    1    2    0    0 -0.78322865200E+01 -0.10121919587E+02 -0.48458947043E+02  0.50120529894E+02  0.00000000000E+00 0. -1.
<mgrwt>
<rscale>  0 0.55817286E+02</rscale>
<asrwt>0</asrwt>
<pdfrwt beam="1">  1        3 0.28239697E+00 0.91195527E+02</pdfrwt>
<pdfrwt beam="2">  1       -3 0.30688350E-03 0.91195527E+02</pdfrwt>
<totfact> 0.19292648E+03</totfact>
</mgrwt>
</event>
<event>
 6    1  0.2866116E-002  0.9896002E+02  0.7546771E-02  0.1377638E+00
         -1   -1    0    0    0  501 -0.00000000000E+00  0.00000000000E+00  0.18032935630E+03  0.18032935630E+03  0.00000000000E+00 0.  1.
          1   -1    0    0  501    0  0.00000000000E+00 -0.00000000000E+00 -0.21503010653E+02  0.21503010653E+02  0.00000000000E+00 0. -1.
         23    2    1    2    0    0  0.23925552093E+01  0.18364966391E+02  0.10222458867E+03  0.14227772647E+03  0.97211566224E+02 0.  0.
         11    1    3    3    0    0  0.37230019214E+02  0.36403369031E+02  0.30019990292E+02  0.60103905236E+02  0.00000000000E+00 0. -1.
        -11    1    3    3    0    0 -0.34837464005E+02 -0.18038402640E+02  0.72204598382E+02  0.82173821230E+02  0.00000000000E+00 0.  1.
         22    1    1    2    0    0 -0.23925552093E+01 -0.18364966391E+02  0.56601756976E+02  0.59554640489E+02  0.00000000000E+00 0.  1.
<mgrwt>
<rscale>  0 0.65088761E+02</rscale>
<asrwt>0</asrwt>
<pdfrwt beam="1">  1        1 0.33081556E-02 0.98960017E+02</pdfrwt>
<pdfrwt beam="2">  1       -1 0.27742977E-01 0.98960017E+02</pdfrwt>
<totfact> 0.30641458E+04</totfact>
</mgrwt>
</event>
<event>
 6    1  0.2866116E-002  0.1319077E+03  0.7546771E-02  0.1251545E+00
         -1   -1    0    0    0  501 -0.00000000000E+00  0.00000000000E+00  0.94777168886E+01  0.94777168886E+01  0.00000000000E+00 0.  1.
          1   -1    0    0  501    0  0.00000000000E+00 -0.00000000000E+00 -0.32991394577E+04  0.32991394577E+04  0.00000000000E+00 0. -1.
         23    2    1    2    0    0 -0.17160105010E+02  0.74303992484E+02 -0.31178792916E+04  0.31206683455E+04  0.10762942476E+03 0.  0.
         11    1    3    3    0    0 -0.30213876927E+02  0.98668960499E+02 -0.26074985741E+04  0.26095396637E+04  0.00000000000E+00 0. -1.
        -11    1    3    3    0    0  0.13053771916E+02 -0.24364968015E+02 -0.51038071744E+03  0.51112868180E+03  0.00000000000E+00 0.  1.
         22    1    1    2    0    0  0.17160105010E+02 -0.74303992484E+02 -0.17178244927E+03  0.18794882915E+03  0.00000000000E+00 0.  1.
<mgrwt>
<rscale>  0 0.11502084E+03</rscale>
<asrwt>0</asrwt>
<pdfrwt beam="1">  1        1 0.50756037E+00 0.13190772E+03</pdfrwt>
<pdfrwt beam="2">  1       -1 0.14581090E-02 0.13190772E+03</pdfrwt>
<totfact> 0.49790566E+02</totfact>
</mgrwt>
</event>
<event>
 6    1  0.2866116E-002  0.9046476E+02  0.7546771E-02  0.1382035E+00
         -2   -1    0    0    0  501 -0.00000000000E+00  0.00000000000E+00  0.29838391696E+01  0.29838391696E+01  0.00000000000E+00 0.  1.
          2   -1    0    0  501    0  0.00000000000E+00 -0.00000000000E+00 -0.18739264364E+04  0.18739264364E+04  0.00000000000E+00 0. -1.
         23    2    1    2    0    0 -0.17869260243E+02 -0.13779195821E+02 -0.18040010985E+04  0.18062679302E+04  0.87605341135E+02 0.  0.
         11    1    3    3    0    0 -0.45835789768E+02 -0.23238000825E+02 -0.14889545128E+04  0.14898410873E+04  0.00000000000E+00 0. -1.
        -11    1    3    3    0    0  0.27966529525E+02  0.94588050039E+01 -0.31504658570E+03  0.31642684293E+03  0.00000000000E+00 0.  1.
         22    1    1    2    0    0  0.17869260243E+02  0.13779195821E+02 -0.66941498791E+02  0.70642345371E+02  0.00000000000E+00 0.  1.
<mgrwt>
<rscale>  0 0.63931977E+02</rscale>
<asrwt>0</asrwt>
<pdfrwt beam="1">  1        2 0.28829762E+00 0.90464758E+02</pdfrwt>
<pdfrwt beam="2">  1       -2 0.45905020E-03 0.90464758E+02</pdfrwt>
<totfact> 0.52458855E+04</totfact>
</mgrwt>
</event>
<event>
 6    1  0.2866116E-002  0.1027995E+03  0.7546771E-02  0.1327141E+00
          2   -1    0    0  501    0  0.00000000000E+00  0.00000000000E+00  0.14007311069E+04  0.14007311069E+04  0.00000000000E+00 0. -1.
         -2   -1    0    0    0  501 -0.00000000000E+00 -0.00000000000E+00 -0.44041618508E+01  0.44041618508E+01  0.00000000000E+00 0.  1.
         23    2    1    2    0    0  0.30023724176E+02  0.24886382797E+02  0.12304148903E+04  0.12347018038E+04  0.95115645318E+02 0.  0.
         11    1    3    3    0    0  0.35793024199E+01  0.59099934522E+02  0.76066156481E+03  0.76296240395E+03  0.00000000000E+00 0. -1.
        -11    1    3    3    0    0  0.26444421757E+02 -0.34213551724E+02  0.46975332551E+03  0.47173939987E+03  0.00000000000E+00 0.  1.
         22    1    1    2    0    0 -0.30023724176E+02 -0.24886382797E+02  0.16591205471E+03  0.17043346491E+03  0.00000000000E+00 0.  1.
<mgrwt>
<rscale>  0 0.80677191E+02</rscale>
<asrwt>0</asrwt>
<pdfrwt beam="1">  1        2 0.21549674E+00 0.10279952E+03</pdfrwt>
<pdfrwt beam="2">  1       -2 0.67756448E-03 0.10279952E+03</pdfrwt>
<totfact> 0.53406396E+04</totfact>
</mgrwt>
</event>
<event>
 6    1  0.2866116E-002  0.6336771E+02  0.7546771E-02  0.1504764E+00
         -1   -1    0    0    0  501 -0.00000000000E+00  0.00000000000E+00  0.11482916730E+02  0.11482916730E+02  0.00000000000E+00 0.  1.
          1   -1    0    0  501    0  0.00000000000E+00 -0.00000000000E+00 -0.11981875586E+03  0.11981875586E+03  0.00000000000E+00 0. -1.
         23    2    1    2    0    0  0.90714955331E+01 -0.53754543480E+01 -0.96547754629E+02  0.11548565296E+03  0.62484234618E+02 0.  0.
         11    1    3    3    0    0  0.31352324823E+01  0.22557370658E+02 -0.78422616331E+02  0.81662545918E+02  0.00000000000E+00 0. -1.
        -11    1    3    3    0    0  0.59362630508E+01 -0.27932825006E+02 -0.18125138298E+02  0.33823107044E+02  0.00000000000E+00 0.  1.
         22    1    1    2    0    0 -0.90714955331E+01  0.53754543480E+01 -0.11788084504E+02  0.15816019629E+02  0.00000000000E+00 0.  1.
<mgrwt>
<rscale>  0 0.40472315E+02</rscale>
<asrwt>0</asrwt>
<pdfrwt beam="1">  1        1 0.18433656E-01 0.63367714E+02</pdfrwt>
<pdfrwt beam="2">  1       -1 0.17666025E-02 0.63367714E+02</pdfrwt>
<totfact> 0.18154026E+05</totfact>
</mgrwt>
</event>
<event>
 6    1  0.2866116E-002  0.9090993E+02  0.7546771E-02  0.1424847E+00
          4   -1    0    0  501    0  0.00000000000E+00  0.00000000000E+00  0.99771189459E+03  0.99771189459E+03  0.00000000000E+00 0. -1.
         -4   -1    0    0    0  501 -0.00000000000E+00 -0.00000000000E+00 -0.11920474349E+02  0.11920474349E+02  0.00000000000E+00 0.  1.
         23    2    1    2    0    0 -0.11022978389E+02  0.25947651038E+01  0.99237704466E+03  0.99653239537E+03  0.90201870223E+02 0.  0.
         11    1    3    3    0    0 -0.14056606299E+01  0.38838486061E+02  0.77279323138E+03  0.77376985102E+03  0.00000000000E+00 0. -1.
        -11    1    3    3    0    0 -0.96173177589E+01 -0.36243720958E+02  0.21958381328E+03  0.22276254435E+03  0.00000000000E+00 0.  1.
         22    1    1    2    0    0  0.11022978389E+02 -0.25947651038E+01 -0.65856244213E+01  0.13099973569E+02  0.00000000000E+00 0.  1.
<mgrwt>
<rscale>  0 0.54008357E+02</rscale>
<asrwt>0</asrwt>
<pdfrwt beam="1">  1        4 0.15349407E+00 0.90909935E+02</pdfrwt>
<pdfrwt beam="2">  1       -4 0.18339199E-02 0.90909935E+02</pdfrwt>
<totfact> 0.53447472E+02</totfact>
</mgrwt>
</event>
<event>
 6    1  0.2866116E-002  0.9348037E+02  0.7546771E-02  0.1389117E+00
          1   -1    0    0  501    0  0.00000000000E+00  0.00000000000E+00  0.17115175716E+03  0.17115175716E+03  0.00000000000E+00 0. -1.
         -1   -1    0    0    0  501 -0.00000000000E+00 -0.00000000000E+00 -0.18726941438E+02  0.18726941438E+02  0.00000000000E+00 0.  1.
         23    2    1    2    0    0  0.13286718608E+02  0.12492336837E+02  0.13773158048E+03  0.16645890925E+03  0.91684158048E+02 0.  0.
         13    1    3    3    0    0 -0.35760565808E+02  0.22204854870E+02  0.77361114630E+02  0.88071650964E+02  0.00000000000E+00 0. -1.
        -13    1    3    3    0    0  0.49047284416E+02 -0.97125180332E+01  0.60370465851E+02  0.78387258290E+02  0.00000000000E+00 0.  1.
         22    1    1    2    0    0 -0.13286718608E+02 -0.12492336837E+02  0.14693235238E+02  0.23419789341E+02  0.00000000000E+00 0. -1.
<mgrwt>
<rscale>  0 0.62126924E+02</rscale>
<asrwt>0</asrwt>
<pdfrwt beam="1">  1        1 0.26331039E-01 0.93480373E+02</pdfrwt>
<pdfrwt beam="2">  1       -1 0.28810680E-02 0.93480373E+02</pdfrwt>
<totfact> 0.62025622E+04</totfact>
</mgrwt>
</event>
<event>
 6    1  0.2866116E-002  0.9279038E+02  0.7546771E-02  0.1384000E+00
         -2   -1    0    0    0  501 -0.00000000000E+00  0.00000000000E+00  0.50872182718E+02  0.50872182718E+02  0.00000000000E+00 0.  1.
          2   -1    0    0  501    0  0.00000000000E+00 -0.00000000000E+00 -0.63488451431E+02  0.63488451431E+02  0.00000000000E+00 0. -1.
         23    2    1    2    0    0 -0.25151457283E+01  0.20096948280E+02 -0.14898171068E+02  0.93978770481E+02  0.90552970750E+02 0.  0.
         11    1    3    3    0    0 -0.93758196344E+01  0.36268771245E+02  0.28558742894E+02  0.47105536375E+02  0.00000000000E+00 0.  1.
        -11    1    3    3    0    0  0.68606739061E+01 -0.16171822965E+02 -0.43456913962E+02  0.46873234106E+02  0.00000000000E+00 0. -1.
         22    1    1    2    0    0  0.25151457283E+01 -0.20096948280E+02  0.22819023560E+01  0.20381863668E+02  0.00000000000E+00 0. -1.
<mgrwt>
<rscale>  0 0.63423969E+02</rscale>
<asrwt>0</asrwt>
<pdfrwt beam="1">  1        2 0.97674541E-02 0.92790376E+02</pdfrwt>
<pdfrwt beam="2">  1       -2 0.78264896E-02 0.92790376E+02</pdfrwt>
<totfact> 0.55604827E+04</totfact>
</mgrwt>
</event>
<event>
 6    1  0.2866116E-002  0.9250138E+02  0.7546771E-02  0.1397905E+00
         -2   -1    0    0    0  501 -0.00000000000E+00  0.00000000000E+00  0.74707692424E+01  0.74707692424E+01  0.00000000000E+00 0.  1.
          2   -1    0    0  501    0  0.00000000000E+00 -0.00000000000E+00 -0.88497404852E+03  0.88497404852E+03  0.00000000000E+00 0. -1.
         23    2    1    2    0    0 -0.11128104948E+02 -0.11985704144E+02 -0.86918969164E+03  0.87409794983E+03  0.91044022416E+02 0.  0.
         11    1    3    3    0    0  0.84013117730E+01 -0.66343009029E+01 -0.82924290559E+03  0.82931199947E+03  0.00000000000E+00 0. -1.
        -11    1    3    3    0    0 -0.19529416721E+02 -0.53514032411E+01 -0.39946786051E+02  0.44785950363E+02  0.00000000000E+00 0.  1.
         22    1    1    2    0    0  0.11128104948E+02  0.11985704144E+02 -0.83135876364E+01  0.18346867933E+02  0.00000000000E+00 0.  1.
<mgrwt>
<rscale>  0 0.59982558E+02</rscale>
<asrwt>0</asrwt>
<pdfrwt beam="1">  1        2 0.13614975E+00 0.92501383E+02</pdfrwt>
<pdfrwt beam="2">  1       -2 0.11493500E-02 0.92501383E+02</pdfrwt>
<totfact> 0.48673519E+04</totfact>
</mgrwt>
</event>
<event>
 6    1  0.2866116E-002  0.9803034E+02  0.7546771E-02  0.1380798E+00
          2   -1    0    0  501    0  0.00000000000E+00  0.00000000000E+00  0.22601393527E+04  0.22601393527E+04  0.00000000000E+00 0.  1.
         -2   -1    0    0    0  501 -0.00000000000E+00 -0.00000000000E+00 -0.20812559029E+01  0.20812559029E+01  0.00000000000E+00 0. -1.
         23    2    1    2    0    0 -0.12719437045E+02 -0.12868866899E+02  0.21752926767E+04  0.21775004423E+04  0.96346017619E+02 0.  0.
         13    1    3    3    0    0  0.21902871278E+02 -0.44430189151E+02  0.13155449375E+04  0.13164772160E+04  0.00000000000E+00 0.  1.
        -13    1    3    3    0    0 -0.34622308323E+02  0.31561322253E+02  0.85974773917E+03  0.86102322635E+03  0.00000000000E+00 0. -1.
         22    1    1    2    0    0  0.12719437045E+02  0.12868866899E+02  0.82765420091E+02  0.84720166293E+02  0.00000000000E+00 0.  1.
<mgrwt>
<rscale>  0 0.64254544E+02</rscale>
<asrwt>0</asrwt>
<pdfrwt beam="1">  1        2 0.34771178E+00 0.98030337E+02</pdfrwt>
<pdfrwt beam="2">  1       -2 0.32019502E-03 0.98030337E+02</pdfrwt>
<totfact> 0.55741240E+04</totfact>
</mgrwt>
</event>
<event>
 6    1  0.2866116E-002  0.9139722E+02  0.7546771E-02  0.1395077E+00
          2   -1    0    0  501    0  0.00000000000E+00  0.00000000000E+00  0.35357937193E+03  0.35357937193E+03  0.00000000000E+00 0. -1.
         -2   -1    0    0    0  501 -0.00000000000E+00 -0.00000000000E+00 -0.11686870961E+02  0.11686870961E+02  0.00000000000E+00 0.  1.
         23    2    1    2    0    0 -0.16587277587E+02  0.62785810298E+01  0.33321327773E+03  0.34552067950E+03  0.89659874798E+02 0.  0.
         13    1    3    3    0    0 -0.23967409639E+02  0.12290330578E+02  0.33479037020E+03  0.33587211990E+03  0.00000000000E+00 0. -1.
        -13    1    3    3    0    0  0.73801320517E+01 -0.60117495483E+01 -0.15770924640E+01  0.96485596008E+01  0.00000000000E+00 0.  1.
         22    1    1    2    0    0  0.16587277587E+02 -0.62785810298E+01  0.86792232339E+01  0.19745563387E+02  0.00000000000E+00 0.  1.
<mgrwt>
<rscale>  0 0.60661394E+02</rscale>
<asrwt>0</asrwt>
<pdfrwt beam="1">  1        2 0.54396818E-01 0.91397218E+02</pdfrwt>
<pdfrwt beam="2">  1       -2 0.17979804E-02 0.91397218E+02</pdfrwt>
<totfact> 0.71856313E+04</totfact>
</mgrwt>
</event>
<event>
 6    1  0.2866116E-002  0.1007563E+03  0.7546771E-02  0.1332506E+00
         -2   -1    0    0    0  501 -0.00000000000E+00  0.00000000000E+00  0.23883523912E+02  0.23883523912E+02  0.00000000000E+00 0.  1.
          2   -1    0    0  501    0  0.00000000000E+00 -0.00000000000E+00 -0.30677402565E+03  0.30677402565E+03  0.00000000000E+00 0. -1.
         23    2    1    2    0    0  0.33267296549E+02  0.17706087819E+02 -0.27399891308E+03  0.29193702640E+03  0.93443054557E+02 0.  0.
         13    1    3    3    0    0 -0.16278468084E+02 -0.89509469234E+01 -0.18957904688E+03  0.19048706778E+03  0.00000000000E+00 0. -1.
        -13    1    3    3    0    0  0.49545764633E+02  0.26657034742E+02 -0.84419866203E+02  0.10144995862E+03  0.00000000000E+00 0.  1.
         22    1    1    2    0    0 -0.33267296549E+02 -0.17706087819E+02 -0.88915886562E+01  0.38720523167E+02  0.00000000000E+00 0.  1.
<mgrwt>
<rscale>  0 0.78794955E+02</rscale>
<asrwt>0</asrwt>
<pdfrwt beam="1">  1        2 0.47195998E-01 0.10075626E+03</pdfrwt>
<pdfrwt beam="2">  1       -2 0.36743888E-02 0.10075626E+03</pdfrwt>
<totfact> 0.29951486E+04</totfact>
</mgrwt>
</event>
<event>
 6    1  0.2866116E-002  0.8725184E+02  0.7546771E-02  0.1423782E+00
         -2   -1    0    0    0  501 -0.00000000000E+00  0.00000000000E+00  0.26063960879E+02  0.26063960879E+02  0.00000000000E+00 0.  1.
          2   -1    0    0  501    0  0.00000000000E+00 -0.00000000000E+00 -0.17209493690E+03  0.17209493690E+03  0.00000000000E+00 0. -1.
         23    2    1    2    0    0 -0.12137462033E+02  0.47107338770E+01 -0.15798905781E+03  0.18048109480E+03  0.86274991711E+02 0.  0.
         13    1    3    3    0    0  0.99553595964E+01  0.27915579918E+00  0.81204523006E+01  0.12850247399E+02  0.00000000000E+00 0.  1.
        -13    1    3    3    0    0 -0.22092821629E+02  0.44315780778E+01 -0.16610951011E+03  0.16763084740E+03  0.00000000000E+00 0. -1.
         22    1    1    2    0    0  0.12137462033E+02 -0.47107338770E+01  0.11958081785E+02  0.17677802981E+02  0.00000000000E+00 0.  1.
<mgrwt>
<rscale>  0 0.54228805E+02</rscale>
<asrwt>0</asrwt>
<pdfrwt beam="1">  1        2 0.26476146E-01 0.87251838E+02</pdfrwt>
<pdfrwt beam="2">  1       -2 0.40098399E-02 0.87251838E+02</pdfrwt>
<totfact> 0.47750265E+04</totfact>
</mgrwt>
</event>
<event>
 6    1  0.2866116E-002  0.9449994E+02  0.7546771E-02  0.1392531E+00
         -4   -1    0    0    0  501 -0.00000000000E+00  0.00000000000E+00  0.42213698496E+02  0.42213698496E+02  0.00000000000E+00 0.  1.
          4   -1    0    0  501    0  0.00000000000E+00 -0.00000000000E+00 -0.76002680285E+02  0.76002680285E+02  0.00000000000E+00 0. -1.
         23    2    1    2    0    0  0.16695896807E+02 -0.72860179800E+00 -0.36465689858E+02  0.10129158641E+03  0.93010510748E+02 0.  0.
         11    1    3    3    0    0  0.17849295873E+01 -0.34987841401E+02 -0.50429363488E+02  0.61404036686E+02  0.00000000000E+00 0.  1.
        -11    1    3    3    0    0  0.14910967220E+02  0.34259239603E+02  0.13963673630E+02  0.39887549723E+02  0.00000000000E+00 0. -1.
         22    1    1    2    0    0 -0.16695896807E+02  0.72860179800E+00  0.26767080687E+01  0.16924792373E+02  0.00000000000E+00 0. -1.
<mgrwt>
<rscale>  0 0.61281499E+02</rscale>
<asrwt>0</asrwt>
<pdfrwt beam="1">  1        4 0.11692720E-01 0.94499941E+02</pdfrwt>
<pdfrwt beam="2">  1       -4 0.64944152E-02 0.94499941E+02</pdfrwt>
<totfact> 0.13257379E+04</totfact>
</mgrwt>
</event>
<event>
 6    1  0.2866116E-002  0.9224147E+02  0.7546771E-02  0.1403121E+00
          2   -1    0    0  501    0  0.00000000000E+00  0.00000000000E+00  0.45814809935E+02  0.45814809935E+02  0.00000000000E+00 0. -1.
         -2   -1    0    0    0  501 -0.00000000000E+00 -0.00000000000E+00 -0.64409529671E+02  0.64409529671E+02  0.00000000000E+00 0.  1.
         23    2    1    2    0    0 -0.57688337650E+01  0.14048696081E+02 -0.10020676598E+02  0.92784169874E+02  0.90982651726E+02 0.  0.
         13    1    3    3    0    0 -0.34294654318E+02  0.26300998339E+02 -0.32818298392E+02  0.54266993078E+02  0.00000000000E+00 0.  1.
        -13    1    3    3    0    0  0.28525820553E+02 -0.12252302258E+02  0.22797621794E+02  0.38517176796E+02  0.00000000000E+00 0. -1.
         22    1    1    2    0    0  0.57688337650E+01 -0.14048696081E+02 -0.85740431379E+01  0.17440169733E+02  0.00000000000E+00 0.  1.
<mgrwt>
<rscale>  0 0.58757421E+02</rscale>
<asrwt>0</asrwt>
<pdfrwt beam="1">  1        2 0.70484323E-02 0.92241467E+02</pdfrwt>
<pdfrwt beam="2">  1       -2 0.99091584E-02 0.92241467E+02</pdfrwt>
<totfact> 0.57816042E+04</totfact>
</mgrwt>
</event>
<event>
 6    1  0.2866116E-002  0.9419784E+02  0.7546771E-02  0.1374607E+00
          2   -1    0    0  501    0  0.00000000000E+00  0.00000000000E+00  0.34975130884E+03  0.34975130884E+03  0.00000000000E+00 0. -1.
         -2   -1    0    0    0  501 -0.00000000000E+00 -0.00000000000E+00 -0.12818165690E+02  0.12818165690E+02  0.00000000000E+00 0.  1.
         23    2    1    2    0    0  0.40095555314E+00 -0.22564579919E+02  0.32203076538E+03  0.33552503156E+03  0.91454425373E+02 0.  0.
         11    1    3    3    0    0  0.12383460908E+02  0.15912492725E+02  0.13253609833E+02  0.24129146325E+02  0.00000000000E+00 0.  1.
        -11    1    3    3    0    0 -0.11982505355E+02 -0.38477072643E+02  0.30877715555E+03  0.31139588523E+03  0.00000000000E+00 0. -1.
         22    1    1    2    0    0 -0.40095555314E+00  0.22564579919E+02  0.14902377767E+02  0.27044442967E+02  0.00000000000E+00 0.  1.
<mgrwt>
<rscale>  0 0.65902920E+02</rscale>
<asrwt>0</asrwt>
<pdfrwt beam="1">  1        2 0.53807886E-01 0.94197839E+02</pdfrwt>
<pdfrwt beam="2">  1       -2 0.19720258E-02 0.94197839E+02</pdfrwt>
<totfact> 0.63916798E+04</totfact>
</mgrwt>
</event>
<event>
 6    1  0.2866116E-002  0.9594212E+02  0.7546771E-02  0.1402338E+00
         -1   -1    0    0    0  501 -0.00000000000E+00  0.00000000000E+00  0.24386543385E+02  0.24386543385E+02  0.00000000000E+00 0.  1.
          1   -1    0    0  501    0  0.00000000000E+00 -0.00000000000E+00 -0.12317130562E+03  0.12317130562E+03  0.00000000000E+00 0. -1.
         23    2    1    2    0    0  0.13660677357E+02 -0.31744537247E+00 -0.85956839886E+02  0.12881563811E+03  0.94964074373E+02 0.  0.
         13    1    3    3    0    0  0.66552973673E+01 -0.47590564258E+02 -0.46023232821E+02  0.66537904601E+02  0.00000000000E+00 0. -1.
        -13    1    3    3    0    0  0.70053799899E+01  0.47273118885E+02 -0.39933607065E+02  0.62277733510E+02  0.00000000000E+00 0.  1.
         22    1    1    2    0    0 -0.13660677357E+02  0.31744537247E+00 -0.12827922350E+02  0.18742210895E+02  0.00000000000E+00 0. -1.
<mgrwt>
<rscale>  0 0.58939215E+02</rscale>
<asrwt>0</asrwt>
<pdfrwt beam="1">  1        1 0.18949431E-01 0.95942120E+02</pdfrwt>
<pdfrwt beam="2">  1       -1 0.37517759E-02 0.95942120E+02</pdfrwt>
<totfact> 0.64095039E+04</totfact>
</mgrwt>
</event>
<event>
 6    1  0.2866116E-002  0.9170841E+02  0.7546771E-02  0.1410373E+00
         -2   -1    0    0    0  501 -0.00000000000E+00  0.00000000000E+00  0.11636027570E+02  0.11636027570E+02  0.00000000000E+00 0.  1.
          2   -1    0    0  501    0  0.00000000000E+00 -0.00000000000E+00 -0.24149796264E+03  0.24149796264E+03  0.00000000000E+00 0. -1.
         23    2    1    2    0    0 -0.81165451995E+01  0.11151523156E+02 -0.20746696898E+03  0.22683248301E+03  0.90665304044E+02 0.  0.
         11    1    3    3    0    0 -0.10329237534E+02  0.13616266243E+02 -0.21651952066E+03  0.21719299870E+03  0.00000000000E+00 0. -1.
        -11    1    3    3    0    0  0.22126923348E+01 -0.24647430869E+01  0.90525516849E+01  0.96394843151E+01  0.00000000000E+00 0.  1.
         22    1    1    2    0    0  0.81165451995E+01 -0.11151523156E+02 -0.22394966094E+02  0.26301507201E+02  0.00000000000E+00 0. -1.
<mgrwt>
<rscale>  0 0.57110782E+02</rscale>
<asrwt>0</asrwt>
<pdfrwt beam="1">  1        2 0.37153533E-01 0.91708408E+02</pdfrwt>
<pdfrwt beam="2">  1       -2 0.17901581E-02 0.91708408E+02</pdfrwt>
<totfact> 0.10783396E+05</totfact>
</mgrwt>
</event>
<event>
 6    1  0.2866116E-002  0.9362829E+02  0.7546771E-02  0.1380631E+00
          2   -1    0    0  501    0  0.00000000000E+00  0.00000000000E+00  0.39565021243E+02  0.39565021243E+02  0.00000000000E+00 0. -1.
         -2   -1    0    0    0  501 -0.00000000000E+00 -0.00000000000E+00 -0.97976856004E+02  0.97976856004E+02  0.00000000000E+00 0.  1.
         23    2    1    2    0    0  0.52975259573E+01  0.20139536583E+02 -0.22921807813E+02  0.96393283979E+02  0.91283028039E+02 0.  0.
         13    1    3    3    0    0  0.32280475810E+01 -0.21089802774E+01 -0.56187571191E+02  0.56319723414E+02  0.00000000000E+00 0.  1.
        -13    1    3    3    0    0  0.20694783763E+01  0.22248516861E+02  0.33265763379E+02  0.40073560566E+02  0.00000000000E+00 0. -1.
         22    1    1    2    0    0 -0.52975259573E+01 -0.20139536583E+02 -0.35490026949E+02  0.41148593267E+02  0.00000000000E+00 0.  1.
<mgrwt>
<rscale>  0 0.64298311E+02</rscale>
<asrwt>0</asrwt>
<pdfrwt beam="1">  1        2 0.60869264E-02 0.93628286E+02</pdfrwt>
<pdfrwt beam="2">  1       -2 0.15073362E-01 0.93628286E+02</pdfrwt>
<totfact> 0.35859416E+04</totfact>
</mgrwt>
</event>
<event>
 6    1  0.2866116E-002  0.9316170E+02  0.7546771E-02  0.1382019E+00
          2   -1    0    0  501    0  0.00000000000E+00  0.00000000000E+00  0.59933994664E+03  0.59933994664E+03  0.00000000000E+00 0. -1.
         -2   -1    0    0    0  501 -0.00000000000E+00 -0.00000000000E+00 -0.11481416820E+02  0.11481416820E+02  0.00000000000E+00 0.  1.
         23    2    1    2    0    0  0.36692821466E+01 -0.20338329993E+02  0.58190351606E+03  0.58931384182E+03  0.90840469265E+02 0.  0.
         11    1    3    3    0    0  0.23191141812E+01 -0.47699055678E+02  0.51218555061E+03  0.51440705327E+03  0.00000000000E+00 0. -1.
        -11    1    3    3    0    0  0.13501679654E+01  0.27360725685E+02  0.69717965447E+02  0.74906788542E+02  0.00000000000E+00 0.  1.
         22    1    1    2    0    0 -0.36692821466E+01  0.20338329993E+02  0.59550137614E+01  0.21507521644E+02  0.00000000000E+00 0.  1.
<mgrwt>
<rscale>  0 0.63936032E+02</rscale>
<asrwt>0</asrwt>
<pdfrwt beam="1">  1        2 0.92206122E-01 0.93161699E+02</pdfrwt>
<pdfrwt beam="2">  1       -2 0.17663723E-02 0.93161699E+02</pdfrwt>
<totfact> 0.41928219E+04</totfact>
</mgrwt>
</event>
<event>
 6    1  0.2866116E-002  0.1060329E+03  0.7546771E-02  0.1301910E+00
          2   -1    0    0  501    0  0.00000000000E+00  0.00000000000E+00  0.12329442437E+04  0.12329442437E+04  0.00000000000E+00 0. -1.
         -2   -1    0    0    0  501 -0.00000000000E+00 -0.00000000000E+00 -0.70858266485E+01  0.70858266485E+01  0.00000000000E+00 0.  1.
         23    2    1    2    0    0  0.52389394802E+02  0.19771670326E+02  0.10530694386E+04  0.10583941744E+04  0.90041202682E+02 0.  0.
         11    1    3    3    0    0  0.44961187021E+02 -0.17834052945E+02  0.87056207202E+03  0.87190474424E+03  0.00000000000E+00 0. -1.
        -11    1    3    3    0    0  0.74282077804E+01  0.37605723271E+02  0.18250736660E+03  0.18648943015E+03  0.00000000000E+00 0.  1.
         22    1    1    2    0    0 -0.52389394802E+02 -0.19771670326E+02  0.17278897843E+03  0.18163589596E+03  0.00000000000E+00 0.  1.
<mgrwt>
<rscale>  0 0.90389950E+02</rscale>
<asrwt>0</asrwt>
<pdfrwt beam="1">  1        2 0.18968356E+00 0.10603295E+03</pdfrwt>
<pdfrwt beam="2">  1       -2 0.10901282E-02 0.10603295E+03</pdfrwt>
<totfact> 0.33510657E+04</totfact>
</mgrwt>
</event>
<event>
 6    1  0.2866116E-002  0.9279039E+02  0.7546771E-02  0.1377100E+00
         -2   -1    0    0    0  501 -0.00000000000E+00  0.00000000000E+00  0.45785553773E+01  0.45785553773E+01  0.00000000000E+00 0.  1.
          2   -1    0    0  501    0  0.00000000000E+00 -0.00000000000E+00 -0.19627098804E+04  0.19627098804E+04  0.00000000000E+00 0. -1.
         23    2    1    2    0    0  0.18001961479E+02  0.13769545134E+02 -0.19244847666E+04  0.19267204449E+04  0.89979914091E+02 0.  0.
         11    1    3    3    0    0  0.26246655986E+00  0.40038677916E+02 -0.16376741894E+04  0.16381635801E+04  0.00000000000E+00 0. -1.
        -11    1    3    3    0    0  0.17739494919E+02 -0.26269132782E+02 -0.28681057723E+03  0.28855686481E+03  0.00000000000E+00 0.  1.
         22    1    1    2    0    0 -0.18001961479E+02 -0.13769545134E+02 -0.33646558451E+02  0.40567990903E+02  0.00000000000E+00 0.  1.
<mgrwt>
<rscale>  0 0.65232327E+02</rscale>
<asrwt>0</asrwt>
<pdfrwt beam="1">  1        2 0.30195604E+00 0.92790387E+02</pdfrwt>
<pdfrwt beam="2">  1       -2 0.70439156E-03 0.92790387E+02</pdfrwt>
<totfact> 0.26005760E+04</totfact>
</mgrwt>
</event>
<event>
 6    1  0.2866116E-002  0.9249463E+02  0.7546771E-02  0.1412401E+00
          2   -1    0    0  501    0  0.00000000000E+00  0.00000000000E+00  0.37665916885E+03  0.37665916885E+03  0.00000000000E+00 0. -1.
         -2   -1    0    0    0  501 -0.00000000000E+00 -0.00000000000E+00 -0.16334034537E+02  0.16334034537E+02  0.00000000000E+00 0.  1.
         23    2    1    2    0    0  0.92180375340E+01 -0.92032847031E+01  0.36691604530E+03  0.37839482084E+03  0.91572831522E+02 0.  0.
         11    1    3    3    0    0  0.34288100683E+01 -0.25597760780E+02  0.35786070312E+03  0.35879142260E+03  0.00000000000E+00 0. -1.
        -11    1    3    3    0    0  0.57892274657E+01  0.16394476076E+02  0.90553421839E+01  0.19603398240E+02  0.00000000000E+00 0.  1.
         22    1    1    2    0    0 -0.92180375340E+01  0.92032847031E+01 -0.65909109890E+01  0.14598382546E+02  0.00000000000E+00 0.  1.
<mgrwt>
<rscale>  0 0.56661604E+02</rscale>
<asrwt>0</asrwt>
<pdfrwt beam="1">  1        2 0.57947558E-01 0.92494628E+02</pdfrwt>
<pdfrwt beam="2">  1       -2 0.25129287E-02 0.92494628E+02</pdfrwt>
<totfact> 0.41596832E+04</totfact>
</mgrwt>
</event>
<event>
 6    1  0.2866116E-002  0.7206845E+02  0.7546771E-02  0.1444370E+00
         -4   -1    0    0    0  501 -0.00000000000E+00  0.00000000000E+00  0.24367792488E+02  0.24367792488E+02  0.00000000000E+00 0.  1.
          4   -1    0    0  501    0  0.00000000000E+00 -0.00000000000E+00 -0.87871309223E+02  0.87871309223E+02  0.00000000000E+00 0. -1.
         23    2    1    2    0    0 -0.16860982549E+02  0.16329707230E+01 -0.62287882461E+02  0.95255665881E+02  0.70049284472E+02 0.  0.
         13    1    3    3    0    0  0.13858925265E+02  0.21052536718E+02 -0.25530826484E+01  0.25333719482E+02  0.00000000000E+00 0.  1.
        -13    1    3    3    0    0 -0.30719907814E+02 -0.19419565995E+02 -0.59734799813E+02  0.69921946399E+02  0.00000000000E+00 0. -1.
         22    1    1    2    0    0  0.16860982549E+02 -0.16329707230E+01 -0.12156342729E+01  0.16983435830E+02  0.00000000000E+00 0. -1.
<mgrwt>
<rscale>  0 0.50180667E+02</rscale>
<asrwt>0</asrwt>
<pdfrwt beam="1">  1        4 0.13518663E-01 0.72068451E+02</pdfrwt>
<pdfrwt beam="2">  1       -4 0.37488912E-02 0.72068451E+02</pdfrwt>
<totfact> 0.22722928E+04</totfact>
</mgrwt>
</event>
<event>
 6    1  0.2866116E-002  0.9415238E+02  0.7546771E-02  0.1370317E+00
          2   -1    0    0  501    0  0.00000000000E+00  0.00000000000E+00  0.13431725186E+04  0.13431725186E+04  0.00000000000E+00 0. -1.
         -2   -1    0    0    0  501 -0.00000000000E+00 -0.00000000000E+00 -0.28973063687E+01  0.28973063687E+01  0.00000000000E+00 0.  1.
         23    2    1    2    0    0 -0.27450445058E+01  0.24102252421E+02  0.12020895257E+04  0.12057710801E+04  0.90973710696E+02 0.  0.
         13    1    3    3    0    0  0.39612337790E+02 -0.48004745331E+01  0.67987676848E+03  0.68104669603E+03  0.00000000000E+00 0.  1.
        -13    1    3    3    0    0 -0.42357382296E+02  0.28902726954E+02  0.52221275724E+03  0.52472438412E+03  0.00000000000E+00 0. -1.
         22    1    1    2    0    0  0.27450445058E+01 -0.24102252421E+02  0.13818568647E+03  0.14029874478E+03  0.00000000000E+00 0.  1.
<mgrwt>
<rscale>  0 0.67079144E+02</rscale>
<asrwt>0</asrwt>
<pdfrwt beam="1">  1        2 0.20664143E+00 0.94152376E+02</pdfrwt>
<pdfrwt beam="2">  1       -2 0.44574051E-03 0.94152376E+02</pdfrwt>
<totfact> 0.10216369E+05</totfact>
</mgrwt>
</event>
<event>
 6    1  0.2866116E-002  0.1029373E+03  0.7546771E-02  0.1313213E+00
         -1   -1    0    0    0  501 -0.00000000000E+00  0.00000000000E+00  0.51690161118E+02  0.51690161118E+02  0.00000000000E+00 0.  1.
          1   -1    0    0  501    0  0.00000000000E+00 -0.00000000000E+00 -0.15888783830E+03  0.15888783830E+03  0.00000000000E+00 0. -1.
         23    2    1    2    0    0  0.11866070567E+02 -0.48377721059E+02 -0.12650338446E+02  0.10371169609E+03  0.90082613844E+02 0.  0.
         13    1    3    3    0    0 -0.85230915097E+00  0.14574196462E+02 -0.33210035494E+02  0.36277266862E+02  0.00000000000E+00 0.  1.
        -13    1    3    3    0    0  0.12718379718E+02 -0.62951917521E+02  0.20559697049E+02  0.67434429226E+02  0.00000000000E+00 0. -1.
         22    1    1    2    0    0 -0.11866070567E+02  0.48377721059E+02 -0.94547338736E+02  0.10686630333E+03  0.00000000000E+00 0.  1.
<mgrwt>
<rscale>  0 0.85854373E+02</rscale>
<asrwt>0</asrwt>
<pdfrwt beam="1">  1        1 0.24444283E-01 0.10293729E+03</pdfrwt>
<pdfrwt beam="2">  1       -1 0.79523326E-02 0.10293729E+03</pdfrwt>
<totfact> 0.15539611E+04</totfact>
</mgrwt>
</event>
<event>
 6    1  0.2866116E-002  0.9274789E+02  0.7546771E-02  0.1389675E+00
          2   -1    0    0  501    0  0.00000000000E+00  0.00000000000E+00  0.13258181212E+03  0.13258181212E+03  0.00000000000E+00 0. -1.
         -2   -1    0    0    0  501 -0.00000000000E+00 -0.00000000000E+00 -0.23441566617E+02  0.23441566617E+02  0.00000000000E+00 0.  1.
         23    2    1    2    0    0 -0.15023162964E+02 -0.10806113320E+02  0.86980275931E+02  0.12715242860E+03  0.90882914714E+02 0.  0.
         11    1    3    3    0    0 -0.32723221016E+02  0.11311383813E+02 -0.10881307979E+01  0.34640159152E+02  0.00000000000E+00 0.  1.
        -11    1    3    3    0    0  0.17700058052E+02 -0.22117497133E+02  0.88068406729E+02  0.92512269447E+02  0.00000000000E+00 0. -1.
         22    1    1    2    0    0  0.15023162964E+02  0.10806113320E+02  0.22159969577E+02  0.28870950143E+02  0.00000000000E+00 0.  1.
<mgrwt>
<rscale>  0 0.61987691E+02</rscale>
<asrwt>0</asrwt>
<pdfrwt beam="1">  1        2 0.20397201E-01 0.92747893E+02</pdfrwt>
<pdfrwt beam="2">  1       -2 0.36063950E-02 0.92747893E+02</pdfrwt>
<totfact> 0.74924225E+04</totfact>
</mgrwt>
</event>
<event>
 6    1  0.2866116E-002  0.9274744E+02  0.7546771E-02  0.1394014E+00
         -2   -1    0    0    0  501 -0.00000000000E+00  0.00000000000E+00  0.27001324280E+03  0.27001324280E+03  0.00000000000E+00 0.  1.
          2   -1    0    0  501    0  0.00000000000E+00 -0.00000000000E+00 -0.11635157090E+02  0.11635157090E+02  0.00000000000E+00 0. -1.
         23    2    1    2    0    0  0.17261168465E+02 -0.23272445564E+00  0.23457126338E+03  0.25224148086E+03  0.91126752188E+02 0.  0.
         11    1    3    3    0    0 -0.15765001250E+02 -0.38713217404E+02  0.11502797461E+03  0.12238743158E+03  0.00000000000E+00 0. -1.
        -11    1    3    3    0    0  0.33026169715E+02  0.38480492949E+02  0.11954328877E+03  0.12985404927E+03  0.00000000000E+00 0.  1.
         22    1    1    2    0    0 -0.17261168465E+02  0.23272445564E+00  0.23806822329E+02  0.29406919030E+02  0.00000000000E+00 0.  1.
<mgrwt>
<rscale>  0 0.60919152E+02</rscale>
<asrwt>0</asrwt>
<pdfrwt beam="1">  1        2 0.17900244E-02 0.92747437E+02</pdfrwt>
<pdfrwt beam="2">  1       -2 0.41540494E-01 0.92747437E+02</pdfrwt>
<totfact> 0.30866843E+04</totfact>
</mgrwt>
</event>
<event>
 6    1  0.2866116E-002  0.1039765E+03  0.7546771E-02  0.1304722E+00
          2   -1    0    0  501    0  0.00000000000E+00  0.00000000000E+00  0.11519749030E+04  0.11519749030E+04  0.00000000000E+00 0. -1.
         -2   -1    0    0    0  501 -0.00000000000E+00 -0.00000000000E+00 -0.70102150572E+01  0.70102150572E+01  0.00000000000E+00 0.  1.
         23    2    1    2    0    0  0.35092122660E+02 -0.44153656689E+02  0.95995251098E+03  0.96556715587E+03  0.87350481883E+02 0.  0.
         11    1    3    3    0    0  0.31493381250E+02 -0.70206238029E+02  0.76200805698E+03  0.76588316852E+03  0.00000000000E+00 0. -1.
        -11    1    3    3    0    0  0.35987414092E+01  0.26052581340E+02  0.19794445401E+03  0.19968398736E+03  0.00000000000E+00 0.  1.
         22    1    1    2    0    0 -0.35092122660E+02  0.44153656689E+02  0.18501217693E+03  0.19341796215E+03  0.00000000000E+00 0.  1.
<mgrwt>
<rscale>  0 0.89232250E+02</rscale>
<asrwt>0</asrwt>
<pdfrwt beam="1">  1        2 0.17722676E+00 0.10397648E+03</pdfrwt>
<pdfrwt beam="2">  1       -2 0.10784955E-02 0.10397648E+03</pdfrwt>
<totfact> 0.37620674E+04</totfact>
</mgrwt>
</event>
<event>
 6    1  0.2866116E-002  0.9602276E+02  0.7546771E-02  0.1367461E+00
          2   -1    0    0  501    0  0.00000000000E+00  0.00000000000E+00  0.16464520408E+03  0.16464520408E+03  0.00000000000E+00 0. -1.
         -2   -1    0    0    0  501 -0.00000000000E+00 -0.00000000000E+00 -0.23145758881E+02  0.23145758881E+02  0.00000000000E+00 0.  1.
         23    2    1    2    0    0  0.99448018879E+01  0.21817296912E+02  0.92940231828E+02  0.13363479312E+03  0.92981061027E+02 0.  0.
         13    1    3    3    0    0 -0.66235727341E+01 -0.34508890915E+02  0.21622470844E+02  0.41258532613E+02  0.00000000000E+00 0. -1.
        -13    1    3    3    0    0  0.16568374622E+02  0.56326187827E+02  0.71317760984E+02  0.92376260503E+02  0.00000000000E+00 0.  1.
         22    1    1    2    0    0 -0.99448018879E+01 -0.21817296912E+02  0.48559213373E+02  0.54156169847E+02  0.00000000000E+00 0.  1.
<mgrwt>
<rscale>  0 0.67878007E+02</rscale>
<asrwt>0</asrwt>
<pdfrwt beam="1">  1        2 0.25330031E-01 0.96022764E+02</pdfrwt>
<pdfrwt beam="2">  1       -2 0.35608861E-02 0.96022764E+02</pdfrwt>
<totfact> 0.60416832E+04</totfact>
</mgrwt>
</event>
<event>
 6    1  0.2866116E-002  0.1010192E+03  0.7546771E-02  0.1363135E+00
          2   -1    0    0  501    0  0.00000000000E+00  0.00000000000E+00  0.64267136816E+03  0.64267136816E+03  0.00000000000E+00 0. -1.
         -2   -1    0    0    0  501 -0.00000000000E+00 -0.00000000000E+00 -0.63741698161E+01  0.63741698161E+01  0.00000000000E+00 0.  1.
         23    2    1    2    0    0  0.51582137775E+01  0.21523187810E+02  0.57649997556E+03  0.58528377329E+03  0.98564794305E+02 0.  0.
         13    1    3    3    0    0  0.16412067147E+02 -0.32599003871E+02  0.35970953847E+03  0.36155636223E+03  0.00000000000E+00 0. -1.
        -13    1    3    3    0    0 -0.11253853370E+02  0.54122191681E+02  0.21679043709E+03  0.22372741106E+03  0.00000000000E+00 0.  1.
         22    1    1    2    0    0 -0.51582137775E+01 -0.21523187810E+02  0.59797222784E+02  0.63761764684E+02  0.00000000000E+00 0.  1.
<mgrwt>
<rscale>  0 0.69113244E+02</rscale>
<asrwt>0</asrwt>
<pdfrwt beam="1">  1        2 0.98872467E-01 0.10101917E+03</pdfrwt>
<pdfrwt beam="2">  1       -2 0.98064202E-03 0.10101917E+03</pdfrwt>
<totfact> 0.90547473E+04</totfact>
</mgrwt>
</event>
<event>
 6    1  0.2866116E-002  0.9026325E+02  0.7546771E-02  0.1411995E+00
          1   -1    0    0  501    0  0.00000000000E+00  0.00000000000E+00  0.14829668196E+03  0.14829668196E+03  0.00000000000E+00 0. -1.
         -1   -1    0    0    0  501 -0.00000000000E+00 -0.00000000000E+00 -0.18537118586E+02  0.18537118586E+02  0.00000000000E+00 0.  1.
         23    2    1    2    0    0 -0.12405845636E+02  0.67110369597E+01  0.11733633069E+03  0.14803806344E+03  0.89154420558E+02 0.  0.
         13    1    3    3    0    0 -0.21692591162E+02  0.13380399955E+02  0.12912455551E+03  0.13161593539E+03  0.00000000000E+00 0. -1.
        -13    1    3    3    0    0  0.92867455258E+01 -0.66693629954E+01 -0.11788224820E+02  0.16422128048E+02  0.00000000000E+00 0.  1.
         22    1    1    2    0    0  0.12405845636E+02 -0.67110369597E+01  0.12423232688E+02  0.18795737108E+02  0.00000000000E+00 0.  1.
<mgrwt>
<rscale>  0 0.56751102E+02</rscale>
<asrwt>0</asrwt>
<pdfrwt beam="1">  1        1 0.22814873E-01 0.90263247E+02</pdfrwt>
<pdfrwt beam="2">  1       -1 0.28518645E-02 0.90263247E+02</pdfrwt>
<totfact> 0.74820061E+04</totfact>
</mgrwt>
</event>
<event>
 6    1  0.2866116E-002  0.1209412E+03  0.7546771E-02  0.1279888E+00
         -2   -1    0    0    0  501 -0.00000000000E+00  0.00000000000E+00  0.62566722275E+01  0.62566722275E+01  0.00000000000E+00 0.  1.
          2   -1    0    0  501    0  0.00000000000E+00 -0.00000000000E+00 -0.26583360479E+04  0.26583360479E+04  0.00000000000E+00 0. -1.
         23    2    1    2    0    0  0.25164878855E+02 -0.51111390094E+02 -0.24873793446E+04  0.24903178064E+04  0.10668236739E+03 0.  0.
         11    1    3    3    0    0 -0.41057897110E+02 -0.19948879700E+02 -0.74017789054E+03  0.74158412764E+03  0.00000000000E+00 0.  1.
        -11    1    3    3    0    0  0.66222775965E+02 -0.31162510394E+02 -0.17472014541E+04  0.17487336787E+04  0.00000000000E+00 0. -1.
         22    1    1    2    0    0 -0.25164878855E+02  0.51111390094E+02 -0.16470003103E+03  0.17427491370E+03  0.00000000000E+00 0.  1.
<mgrwt>
<rscale>  0 0.10019437E+03</rscale>
<asrwt>0</asrwt>
<pdfrwt beam="1">  1        2 0.40897548E+00 0.12094120E+03</pdfrwt>
<pdfrwt beam="2">  1       -2 0.96256331E-03 0.12094120E+03</pdfrwt>
<totfact> 0.73514010E+03</totfact>
</mgrwt>
</event>
<event>
 6    1  0.2866116E-002  0.1147812E+03  0.7546771E-02  0.1309164E+00
          1   -1    0    0  501    0  0.00000000000E+00  0.00000000000E+00  0.50143166632E+03  0.50143166632E+03  0.00000000000E+00 0. -1.
         -1   -1    0    0    0  501 -0.00000000000E+00 -0.00000000000E+00 -0.14581821186E+02  0.14581821186E+02  0.00000000000E+00 0.  1.
         23    2    1    2    0    0 -0.38100946467E+02  0.65686765517E+01  0.44265173335E+03  0.45729123688E+03  0.10807353356E+03 0.  0.
         13    1    3    3    0    0 -0.33724403171E+02 -0.29354111360E+02  0.39466061257E+03  0.39718509330E+03  0.00000000000E+00 0. -1.
        -13    1    3    3    0    0 -0.43765432965E+01  0.35922787912E+02  0.47991120775E+02  0.60106143578E+02  0.00000000000E+00 0.  1.
         22    1    1    2    0    0  0.38100946467E+02 -0.65686765517E+01  0.44198111783E+02  0.58722250625E+02  0.00000000000E+00 0.  1.
<mgrwt>
<rscale>  0 0.87443386E+02</rscale>
<asrwt>0</asrwt>
<pdfrwt beam="1">  1        1 0.77143320E-01 0.11478118E+03</pdfrwt>
<pdfrwt beam="2">  1       -1 0.22433575E-02 0.11478118E+03</pdfrwt>
<totfact> 0.24049259E+04</totfact>
</mgrwt>
</event>
<event>
 6    1  0.2866116E-002  0.9359747E+02  0.7546771E-02  0.1384744E+00
          2   -1    0    0  501    0  0.00000000000E+00  0.00000000000E+00  0.86849179238E+03  0.86849179238E+03  0.00000000000E+00 0. -1.
         -2   -1    0    0    0  501 -0.00000000000E+00 -0.00000000000E+00 -0.41812922910E+01  0.41812922910E+01  0.00000000000E+00 0.  1.
         23    2    1    2    0    0 -0.80137601950E+01 -0.17774735653E+02  0.80041596724E+03  0.80586984442E+03  0.91544109330E+02 0.  0.
         13    1    3    3    0    0 -0.15662333165E+02 -0.14240741740E+02  0.79613998953E+03  0.79642136482E+03  0.00000000000E+00 0. -1.
        -13    1    3    3    0    0  0.76485729700E+01 -0.35339939130E+01  0.42759777089E+01  0.94484796037E+01  0.00000000000E+00 0.  1.
         22    1    1    2    0    0  0.80137601950E+01  0.17774735653E+02  0.63894532844E+02  0.66803240246E+02  0.00000000000E+00 0.  1.
<mgrwt>
<rscale>  0 0.63233045E+02</rscale>
<asrwt>0</asrwt>
<pdfrwt beam="1">  1        2 0.13361398E+00 0.93597465E+02</pdfrwt>
<pdfrwt beam="2">  1       -2 0.64327643E-03 0.93597465E+02</pdfrwt>
<totfact> 0.11335845E+05</totfact>
</mgrwt>
</event>
<event>
 6    1  0.2866116E-002  0.8965063E+02  0.7546771E-02  0.1431136E+00
         -4   -1    0    0    0  501 -0.00000000000E+00  0.00000000000E+00  0.17447500771E+03  0.17447500771E+03  0.00000000000E+00 0.  1.
          4   -1    0    0  501    0  0.00000000000E+00 -0.00000000000E+00 -0.15269343029E+02  0.15269343029E+02  0.00000000000E+00 0. -1.
         23    2    1    2    0    0 -0.10727466232E+02 -0.29162688784E+00  0.12451325033E+03  0.15343006716E+03  0.89006024652E+02 0.  0.
         13    1    3    3    0    0 -0.15540508257E+02 -0.12070898077E+02 -0.73118093609E+01  0.20992297001E+02  0.00000000000E+00 0. -1.
        -13    1    3    3    0    0  0.48130420250E+01  0.11779271189E+02  0.13182505969E+03  0.13243777016E+03  0.00000000000E+00 0.  1.
         22    1    1    2    0    0  0.10727466232E+02  0.29162688784E+00  0.34692414355E+02  0.36314283578E+02  0.00000000000E+00 0.  1.
<mgrwt>
<rscale>  0 0.52732628E+02</rscale>
<asrwt>0</asrwt>
<pdfrwt beam="1">  1        4 0.23491298E-02 0.89650633E+02</pdfrwt>
<pdfrwt beam="2">  1       -4 0.26842307E-01 0.89650633E+02</pdfrwt>
<totfact> 0.14946826E+04</totfact>
</mgrwt>
</event>
<event>
 6    1  0.2866116E-002  0.9216750E+02  0.7546771E-02  0.1418835E+00
          2   -1    0    0  501    0  0.00000000000E+00  0.00000000000E+00  0.20581001820E+03  0.20581001820E+03  0.00000000000E+00 0. -1.
         -2   -1    0    0    0  501 -0.00000000000E+00 -0.00000000000E+00 -0.15692886980E+02  0.15692886980E+02  0.00000000000E+00 0.  1.
         23    2    1    2    0    0 -0.11720888299E+02  0.21533907118E+01  0.18803032378E+03  0.20940451358E+03  0.91393825464E+02 0.  0.
         13    1    3    3    0    0 -0.45581237211E+02 -0.15043278302E+02  0.66049071024E+02  0.81648203844E+02  0.00000000000E+00 0.  1.
        -13    1    3    3    0    0  0.33860348912E+02  0.17196669014E+02  0.12198125275E+03  0.12775630973E+03  0.00000000000E+00 0. -1.
         22    1    1    2    0    0  0.11720888299E+02 -0.21533907118E+01  0.20868074448E+01  0.12098391604E+02  0.00000000000E+00 0. -1.
<mgrwt>
<rscale>  0 0.55268239E+02</rscale>
<asrwt>0</asrwt>
<pdfrwt beam="1">  1        2 0.31663078E-01 0.92167498E+02</pdfrwt>
<pdfrwt beam="2">  1       -2 0.24142905E-02 0.92167498E+02</pdfrwt>
<totfact> 0.83135484E+04</totfact>
</mgrwt>
</event>
<event>
 6    1  0.2866116E-002  0.9802272E+02  0.7546771E-02  0.1337332E+00
         -1   -1    0    0    0  501 -0.00000000000E+00  0.00000000000E+00  0.18752911851E+03  0.18752911851E+03  0.00000000000E+00 0.  1.
          1   -1    0    0  501    0  0.00000000000E+00 -0.00000000000E+00 -0.27692457845E+02  0.27692457845E+02  0.00000000000E+00 0. -1.
         23    2    1    2    0    0  0.26675695094E+02  0.26527452171E+02  0.78413218381E+02  0.12552723216E+03  0.90516047025E+02 0.  0.
         11    1    3    3    0    0 -0.22821316008E+02  0.36316121689E+02  0.17229421049E+02  0.46222571419E+02  0.00000000000E+00 0. -1.
        -11    1    3    3    0    0  0.49497011103E+02 -0.97886695187E+01  0.61183797332E+02  0.79304660740E+02  0.00000000000E+00 0.  1.
         22    1    1    2    0    0 -0.26675695094E+02 -0.26527452171E+02  0.81423442281E+02  0.89694344193E+02  0.00000000000E+00 0. -1.
<mgrwt>
<rscale>  0 0.77152687E+02</rscale>
<asrwt>0</asrwt>
<pdfrwt beam="1">  1        1 0.42603783E-02 0.98022718E+02</pdfrwt>
<pdfrwt beam="2">  1       -1 0.28850633E-01 0.98022718E+02</pdfrwt>
<totfact> 0.20309409E+04</totfact>
</mgrwt>
</event>
<event>
 6    1  0.2866116E-002  0.9061785E+02  0.7546771E-02  0.1390312E+00
          2   -1    0    0  501    0  0.00000000000E+00  0.00000000000E+00  0.54181639481E+03  0.54181639481E+03  0.00000000000E+00 0. -1.
         -2   -1    0    0    0  501 -0.00000000000E+00 -0.00000000000E+00 -0.21577449064E+02  0.21577449064E+02  0.00000000000E+00 0.  1.
         23    2    1    2    0    0  0.18228241752E+02 -0.73109552974E+01  0.53255648791E+03  0.54021107635E+03  0.88463977638E+02 0.  0.
         11    1    3    3    0    0 -0.28207252416E+02 -0.27486414695E+02  0.26435286151E+03  0.26727062590E+03  0.00000000000E+00 0.  1.
        -11    1    3    3    0    0  0.46435494168E+02  0.20175459398E+02  0.26820362640E+03  0.27294045045E+03  0.00000000000E+00 0. -1.
         22    1    1    2    0    0 -0.18228241752E+02  0.73109552974E+01 -0.12317542165E+02  0.23182767516E+02  0.00000000000E+00 0.  1.
<mgrwt>
<rscale>  0 0.61829277E+02</rscale>
<asrwt>0</asrwt>
<pdfrwt beam="1">  1        2 0.83356358E-01 0.90617847E+02</pdfrwt>
<pdfrwt beam="2">  1       -2 0.33196080E-02 0.90617847E+02</pdfrwt>
<totfact> 0.18784849E+04</totfact>
</mgrwt>
</event>
<event>
 6    1  0.2866116E-002  0.9356777E+02  0.7546771E-02  0.1385100E+00
          2   -1    0    0  501    0  0.00000000000E+00  0.00000000000E+00  0.51860015467E+02  0.51860015467E+02  0.00000000000E+00 0. -1.
         -2   -1    0    0    0  501 -0.00000000000E+00 -0.00000000000E+00 -0.64052542156E+02  0.64052542156E+02  0.00000000000E+00 0.  1.
         23    2    1    2    0    0 -0.50935612347E+01 -0.18723838850E+02 -0.11263561669E+01  0.93574548817E+02  0.91533605855E+02 0.  0.
         13    1    3    3    0    0 -0.43426091572E+02  0.11006455680E+02 -0.40104550119E+01  0.44978341958E+02  0.00000000000E+00 0.  1.
        -13    1    3    3    0    0  0.38332530338E+02 -0.29730294530E+02  0.28840988450E+01  0.48596206859E+02  0.00000000000E+00 0. -1.
         22    1    1    2    0    0  0.50935612347E+01  0.18723838850E+02 -0.11066170522E+02  0.22338008805E+02  0.00000000000E+00 0.  1.
<mgrwt>
<rscale>  0 0.63142119E+02</rscale>
<asrwt>0</asrwt>
<pdfrwt beam="1">  1        2 0.79784639E-02 0.93567770E+02</pdfrwt>
<pdfrwt beam="2">  1       -2 0.98542373E-02 0.93567770E+02</pdfrwt>
<totfact> 0.50057752E+04</totfact>
</mgrwt>
</event>
<event>
 6    1  0.2866116E-002  0.9378194E+02  0.7546771E-02  0.1406011E+00
          2   -1    0    0  501    0  0.00000000000E+00  0.00000000000E+00  0.33606741482E+03  0.33606741482E+03  0.00000000000E+00 0. -1.
         -2   -1    0    0    0  501 -0.00000000000E+00 -0.00000000000E+00 -0.97764440436E+01  0.97764440436E+01  0.00000000000E+00 0.  1.
         23    2    1    2    0    0  0.10227964257E+02  0.92772360134E+01  0.31273301156E+03  0.32649194373E+03  0.92759767388E+02 0.  0.
         13    1    3    3    0    0  0.20080456946E+02 -0.83477251930E+01  0.11532148198E+02  0.24615030147E+02  0.00000000000E+00 0.  1.
        -13    1    3    3    0    0 -0.98524926894E+01  0.17624961206E+02  0.30120086336E+03  0.30187691359E+03  0.00000000000E+00 0. -1.
         22    1    1    2    0    0 -0.10227964257E+02 -0.92772360134E+01  0.13557959216E+02  0.19351915125E+02  0.00000000000E+00 0.  1.
<mgrwt>
<rscale>  0 0.58093440E+02</rscale>
<asrwt>0</asrwt>
<pdfrwt beam="1">  1        2 0.51702670E-01 0.93781943E+02</pdfrwt>
<pdfrwt beam="2">  1       -2 0.15040686E-02 0.93781943E+02</pdfrwt>
<totfact> 0.98179740E+04</totfact>
</mgrwt>
</event>
<event>
 6    1  0.2866116E-002  0.1173814E+03  0.7546771E-02  0.1265448E+00
         -2   -1    0    0    0  501 -0.00000000000E+00  0.00000000000E+00  0.70390895578E+02  0.70390895578E+02  0.00000000000E+00 0.  1.
          2   -1    0    0  501    0  0.00000000000E+00 -0.00000000000E+00 -0.20169356084E+03  0.20169356084E+03  0.00000000000E+00 0. -1.
         23    2    1    2    0    0  0.24914511304E+02  0.78425227732E+02 -0.14720372767E+03  0.18827459421E+03  0.83708638553E+02 0.  0.
         11    1    3    3    0    0 -0.27481291765E+02  0.70473376767E+01 -0.43218718102E+02  0.51698587599E+02  0.00000000000E+00 0.  1.
        -11    1    3    3    0    0  0.52395803069E+02  0.71377890055E+02 -0.10398500956E+03  0.13657600661E+03  0.00000000000E+00 0. -1.
         22    1    1    2    0    0 -0.24914511304E+02 -0.78425227732E+02  0.15901062400E+02  0.83809862210E+02  0.00000000000E+00 0.  1.
<mgrwt>
<rscale>  0 0.10740710E+03</rscale>
<asrwt>0</asrwt>
<pdfrwt beam="1">  1        2 0.31029778E-01 0.11738137E+03</pdfrwt>
<pdfrwt beam="2">  1       -2 0.10829369E-01 0.11738137E+03</pdfrwt>
<totfact> 0.92091540E+03</totfact>
</mgrwt>
</event>
<event>
 6    1  0.2866116E-002  0.9384874E+02  0.7546771E-02  0.1373857E+00
         -2   -1    0    0    0  501 -0.00000000000E+00  0.00000000000E+00  0.43177995478E+01  0.43177995478E+01  0.00000000000E+00 0.  1.
          2   -1    0    0  501    0  0.00000000000E+00 -0.00000000000E+00 -0.10951148001E+04  0.10951148001E+04  0.00000000000E+00 0. -1.
         23    2    1    2    0    0 -0.22547266614E+01 -0.22994044634E+02 -0.10320091462E+04  0.10362675642E+04  0.90960304168E+02 0.  0.
         13    1    3    3    0    0 -0.26465866676E+02  0.24496472200E+02 -0.27024019720E+03  0.27263580732E+03  0.00000000000E+00 0. -1.
        -13    1    3    3    0    0  0.24211140014E+02 -0.47490516834E+02 -0.76176894899E+03  0.76363175690E+03  0.00000000000E+00 0.  1.
         22    1    1    2    0    0  0.22547266614E+01  0.22994044634E+02 -0.58787854323E+02  0.63165035398E+02  0.00000000000E+00 0. -1.
<mgrwt>
<rscale>  0 0.66106578E+02</rscale>
<asrwt>0</asrwt>
<pdfrwt beam="1">  1        2 0.16847931E+00 0.93848744E+02</pdfrwt>
<pdfrwt beam="2">  1       -2 0.66427643E-03 0.93848744E+02</pdfrwt>
<totfact> 0.79485927E+04</totfact>
</mgrwt>
</event>
<event>
 6    1  0.2866116E-002  0.9184906E+02  0.7546771E-02  0.1392006E+00
         -2   -1    0    0    0  501 -0.00000000000E+00  0.00000000000E+00  0.68256943960E+01  0.68256943960E+01  0.00000000000E+00 0.  1.
          2   -1    0    0  501    0  0.00000000000E+00 -0.00000000000E+00 -0.44553412588E+03  0.44553412588E+03  0.00000000000E+00 0. -1.
         23    2    1    2    0    0 -0.21334289217E+01 -0.18230318055E+02 -0.37214911031E+03  0.38331607146E+03  0.89996412818E+02 0.  0.
         13    1    3    3    0    0  0.29536031616E+02 -0.35066652296E+02 -0.11706850391E+03  0.12572621793E+03  0.00000000000E+00 0.  1.
        -13    1    3    3    0    0 -0.31669460538E+02  0.16836334242E+02 -0.25508060640E+03  0.25758985353E+03  0.00000000000E+00 0. -1.
         22    1    1    2    0    0  0.21334289217E+01  0.18230318055E+02 -0.66559321174E+02  0.69043748815E+02  0.00000000000E+00 0.  1.
<mgrwt>
<rscale>  0 0.61410556E+02</rscale>
<asrwt>0</asrwt>
<pdfrwt beam="1">  1        2 0.68543713E-01 0.91849063E+02</pdfrwt>
<pdfrwt beam="2">  1       -2 0.10501068E-02 0.91849063E+02</pdfrwt>
<totfact> 0.12123980E+05</totfact>
</mgrwt>
</event>
<event>
 6    1  0.2866116E-002  0.1428228E+03  0.7546771E-02  0.1220394E+00
         -2   -1    0    0    0  501 -0.00000000000E+00  0.00000000000E+00  0.17811611628E+03  0.17811611628E+03  0.00000000000E+00 0.  1.
          2   -1    0    0  501    0  0.00000000000E+00 -0.00000000000E+00 -0.13252182661E+03  0.13252182661E+03  0.00000000000E+00 0. -1.
         23    2    1    2    0    0  0.14136898388E+02 -0.11271114098E+03 -0.60589289855E+02  0.15514322993E+03  0.86571973238E+02 0.  0.
         11    1    3    3    0    0  0.12915349723E+02 -0.10802844279E+03 -0.80060199843E+02  0.13507992563E+03  0.00000000000E+00 0. -1.
        -11    1    3    3    0    0  0.12215486654E+01 -0.46826981914E+01  0.19470909989E+02  0.20063304296E+02  0.00000000000E+00 0.  1.
         22    1    1    2    0    0 -0.14136898388E+02  0.11271114098E+03  0.10618357953E+03  0.15549471296E+03  0.00000000000E+00 0.  1.
<mgrwt>
<rscale>  0 0.13487682E+03</rscale>
<asrwt>0</asrwt>
<pdfrwt beam="1">  1        2 0.20387973E-01 0.14282283E+03</pdfrwt>
<pdfrwt beam="2">  1       -2 0.27402480E-01 0.14282283E+03</pdfrwt>
<totfact> 0.31613900E+03</totfact>
</mgrwt>
</event>
<event>
 6    1  0.2866116E-002  0.9243260E+02  0.7546771E-02  0.1398063E+00
         -1   -1    0    0    0  501 -0.00000000000E+00  0.00000000000E+00  0.48901573733E+01  0.48901573733E+01  0.00000000000E+00 0.  1.
          1   -1    0    0  501    0  0.00000000000E+00 -0.00000000000E+00 -0.60691647129E+03  0.60691647129E+03  0.00000000000E+00 0. -1.
         23    2    1    2    0    0 -0.13779106730E+02 -0.88021501257E+01 -0.52323751072E+03  0.53133913748E+03  0.90974967756E+02 0.  0.
         13    1    3    3    0    0  0.16674405742E+02 -0.30494450232E+02 -0.42181256859E+03  0.42324199972E+03  0.00000000000E+00 0.  1.
        -13    1    3    3    0    0 -0.30453512472E+02  0.21692300106E+02 -0.10142494213E+03  0.10809713776E+03  0.00000000000E+00 0. -1.
         22    1    1    2    0    0  0.13779106730E+02  0.88021501257E+01 -0.78788803198E+02  0.80467491190E+02  0.00000000000E+00 0. -1.
<mgrwt>
<rscale>  0 0.59944897E+02</rscale>
<asrwt>0</asrwt>
<pdfrwt beam="1">  1        1 0.93371744E-01 0.92432605E+02</pdfrwt>
<pdfrwt beam="2">  1       -1 0.75233207E-03 0.92432605E+02</pdfrwt>
<totfact> 0.86117447E+04</totfact>
</mgrwt>
</event>
<event>
 6    1  0.2866116E-002  0.1100738E+03  0.7546771E-02  0.1384424E+00
         -2   -1    0    0    0  501 -0.00000000000E+00  0.00000000000E+00  0.43209986115E+01  0.43209986115E+01  0.00000000000E+00 0.  1.
          2   -1    0    0  501    0  0.00000000000E+00 -0.00000000000E+00 -0.10917864052E+04  0.10917864052E+04  0.00000000000E+00 0. -1.
         23    2    1    2    0    0  0.11893376529E+02  0.19347808048E+01 -0.10644710364E+04  0.10701471102E+04  0.10941231389E+03 0.  0.
         13    1    3    3    0    0 -0.43139409052E+02  0.25605550011E+02 -0.48565554361E+03  0.48823965411E+03  0.00000000000E+00 0.  1.
        -13    1    3    3    0    0  0.55032785581E+02 -0.23670769206E+02 -0.57881549280E+03  0.58190745613E+03  0.00000000000E+00 0. -1.
         22    1    1    2    0    0 -0.11893376529E+02 -0.19347808048E+01 -0.22994370168E+02  0.25960293555E+02  0.00000000000E+00 0. -1.
<mgrwt>
<rscale>  0 0.63315106E+02</rscale>
<asrwt>0</asrwt>
<pdfrwt beam="1">  1        2 0.16796732E+00 0.11007384E+03</pdfrwt>
<pdfrwt beam="2">  1       -2 0.66476831E-03 0.11007384E+03</pdfrwt>
<totfact> 0.81243456E+04</totfact>
</mgrwt>
</event>
<event>
 6    1  0.2866116E-002  0.1045724E+03  0.7546771E-02  0.1304043E+00
          2   -1    0    0  501    0  0.00000000000E+00  0.00000000000E+00  0.72786254299E+03  0.72786254299E+03  0.00000000000E+00 0. -1.
         -2   -1    0    0    0  501 -0.00000000000E+00 -0.00000000000E+00 -0.23903352801E+02  0.23903352801E+02  0.00000000000E+00 0.  1.
         23    2    1    2    0    0 -0.27060399937E+02  0.49181562100E+02  0.68436727004E+03  0.69231057954E+03  0.88228606198E+02 0.  0.
         11    1    3    3    0    0  0.19231578438E+01  0.95292884013E+00  0.48892809390E+03  0.48893280480E+03  0.00000000000E+00 0. -1.
        -11    1    3    3    0    0 -0.28983557780E+02  0.48228633260E+02  0.19543917614E+03  0.20337777474E+03  0.00000000000E+00 0.  1.
         22    1    1    2    0    0  0.27060399937E+02 -0.49181562100E+02  0.19591920155E+02  0.59455316253E+02  0.00000000000E+00 0.  1.
<mgrwt>
<rscale>  0 0.89509741E+02</rscale>
<asrwt>0</asrwt>
<pdfrwt beam="1">  1        2 0.11197884E+00 0.10457236E+03</pdfrwt>
<pdfrwt beam="2">  1       -2 0.36774395E-02 0.10457236E+03</pdfrwt>
<totfact> 0.11699214E+04</totfact>
</mgrwt>
</event>
<event>
 6    1  0.2866116E-002  0.9539294E+02  0.7546771E-02  0.1358073E+00
          2   -1    0    0  501    0  0.00000000000E+00  0.00000000000E+00  0.56066898025E+02  0.56066898025E+02  0.00000000000E+00 0. -1.
         -2   -1    0    0    0  501 -0.00000000000E+00 -0.00000000000E+00 -0.78792809146E+02  0.78792809146E+02  0.00000000000E+00 0.  1.
         23    2    1    2    0    0 -0.82437324899E+00 -0.28603923110E+02  0.43125848443E+01  0.95490375545E+02  0.90999722116E+02 0.  0.
         11    1    3    3    0    0  0.20731188887E+01  0.13913179714E+01  0.44883107383E+02  0.44952496215E+02  0.00000000000E+00 0. -1.
        -11    1    3    3    0    0 -0.28974921377E+01 -0.29995241081E+02 -0.40570522538E+02  0.50537879331E+02  0.00000000000E+00 0.  1.
         22    1    1    2    0    0  0.82437324899E+00  0.28603923110E+02 -0.27038495966E+02  0.39369331625E+02  0.00000000000E+00 0.  1.
<mgrwt>
<rscale>  0 0.70597392E+02</rscale>
<asrwt>0</asrwt>
<pdfrwt beam="1">  1        2 0.86256766E-02 0.95392942E+02</pdfrwt>
<pdfrwt beam="2">  1       -2 0.12121971E-01 0.95392942E+02</pdfrwt>
<totfact> 0.32926847E+04</totfact>
</mgrwt>
</event>
<event>
 6    1  0.2866116E-002  0.9975924E+02  0.7546771E-02  0.1370340E+00
         -2   -1    0    0    0  501 -0.00000000000E+00  0.00000000000E+00  0.76151401588E+01  0.76151401588E+01  0.00000000000E+00 0.  1.
          2   -1    0    0  501    0  0.00000000000E+00 -0.00000000000E+00 -0.12891811242E+04  0.12891811242E+04  0.00000000000E+00 0. -1.
         23    2    1    2    0    0 -0.94134965692E+01  0.18081958314E+02 -0.12688591750E+04  0.12727747296E+04  0.97654161312E+02 0.  0.
         11    1    3    3    0    0  0.35901081257E+01 -0.14800503767E+02 -0.11067097728E+04  0.11068145577E+04  0.00000000000E+00 0. -1.
        -11    1    3    3    0    0 -0.13003604695E+02  0.32882462081E+02 -0.16214940219E+03  0.16596017196E+03  0.00000000000E+00 0.  1.
         22    1    1    2    0    0  0.94134965692E+01 -0.18081958314E+02 -0.12706808976E+02  0.24021534682E+02  0.00000000000E+00 0.  1.
<mgrwt>
<rscale>  0 0.67072660E+02</rscale>
<asrwt>0</asrwt>
<pdfrwt beam="1">  1        2 0.19833556E+00 0.99759242E+02</pdfrwt>
<pdfrwt beam="2">  1       -2 0.11715600E-02 0.99759242E+02</pdfrwt>
<totfact> 0.28065375E+04</totfact>
</mgrwt>
</event>
<event>
 6    1  0.2866116E-002  0.1196544E+03  0.7546771E-02  0.1265267E+00
          2   -1    0    0  501    0  0.00000000000E+00  0.00000000000E+00  0.12281255766E+04  0.12281255766E+04  0.00000000000E+00 0. -1.
         -2   -1    0    0    0  501 -0.00000000000E+00 -0.00000000000E+00 -0.84559441526E+01  0.84559441526E+01  0.00000000000E+00 0.  1.
         23    2    1    2    0    0  0.61700943466E+02 -0.47653617740E+02  0.87891298905E+03  0.88702041918E+03  0.90770634161E+02 0.  0.
         11    1    3    3    0    0  0.67451407356E+02 -0.69061728795E+02  0.66669520759E+03  0.67364806432E+03  0.00000000000E+00 0.  1.
        -11    1    3    3    0    0 -0.57504638894E+01  0.21408111055E+02  0.21221778146E+03  0.21337235487E+03  0.00000000000E+00 0. -1.
         22    1    1    2    0    0 -0.61700943466E+02  0.47653617740E+02  0.34075664341E+03  0.34956110157E+03  0.00000000000E+00 0. -1.
<mgrwt>
<rscale>  0 0.10750175E+03</rscale>
<asrwt>0</asrwt>
<pdfrwt beam="1">  1        2 0.18894226E+00 0.11965443E+03</pdfrwt>
<pdfrwt beam="2">  1       -2 0.13009155E-02 0.11965443E+03</pdfrwt>
<totfact> 0.26454315E+04</totfact>
</mgrwt>
</event>
<event>
 6    1  0.2866116E-002  0.9197051E+02  0.7546771E-02  0.1412376E+00
         -2   -1    0    0    0  501 -0.00000000000E+00  0.00000000000E+00  0.14371357957E+03  0.14371357957E+03  0.00000000000E+00 0. -1.
          2   -1    0    0  501    0  0.00000000000E+00 -0.00000000000E+00 -0.19585934750E+02  0.19585934750E+02  0.00000000000E+00 0.  1.
         23    2    1    2    0    0  0.42588972887E+01 -0.12552049949E+02  0.10067181885E+03  0.13635757794E+03  0.91010338901E+02 0.  0.
         13    1    3    3    0    0  0.47121264682E+02 -0.10066784075E+02  0.62424080562E+02  0.78857590382E+02  0.00000000000E+00 0.  1.
        -13    1    3    3    0    0 -0.42862367393E+02 -0.24852658739E+01  0.38247738287E+02  0.57499987557E+02  0.00000000000E+00 0. -1.
         22    1    1    2    0    0 -0.42588972887E+01  0.12552049949E+02  0.23455825975E+02  0.26941936386E+02  0.00000000000E+00 0. -1.
<mgrwt>
<rscale>  0 0.56667034E+02</rscale>
<asrwt>0</asrwt>
<pdfrwt beam="1">  1        2 0.30132208E-02 0.91970506E+02</pdfrwt>
<pdfrwt beam="2">  1       -2 0.22109781E-01 0.91970506E+02</pdfrwt>
<totfact> 0.47361657E+04</totfact>
</mgrwt>
</event>
<event>
 6    1  0.2866116E-002  0.9537374E+02  0.7546771E-02  0.1359299E+00
         -1   -1    0    0    0  501 -0.00000000000E+00  0.00000000000E+00  0.60759447445E+01  0.60759447445E+01  0.00000000000E+00 0.  1.
          1   -1    0    0  501    0  0.00000000000E+00 -0.00000000000E+00 -0.62764204737E+03  0.62764204737E+03  0.00000000000E+00 0. -1.
         23    2    1    2    0    0 -0.24682445604E-01 -0.28048287451E+02 -0.48995121933E+03  0.49914762189E+03  0.91156152150E+02 0.  0.
         11    1    3    3    0    0  0.30687200070E+02 -0.42634035693E+02 -0.18519685156E+03  0.19250256901E+03  0.00000000000E+00 0. -1.
        -11    1    3    3    0    0 -0.30711882515E+02  0.14585748242E+02 -0.30475436777E+03  0.30664505288E+03  0.00000000000E+00 0.  1.
         22    1    1    2    0    0  0.24682445604E-01  0.28048287451E+02 -0.13161488329E+03  0.13457037023E+03  0.00000000000E+00 0. -1.
<mgrwt>
<rscale>  0 0.70234138E+02</rscale>
<asrwt>0</asrwt>
<pdfrwt beam="1">  1        1 0.96560226E-01 0.95373744E+02</pdfrwt>
<pdfrwt beam="2">  1       -1 0.93476159E-03 0.95373744E+02</pdfrwt>
<totfact> 0.60862945E+04</totfact>
</mgrwt>
</event>
<event>
 6    1  0.2866116E-002  0.9777200E+02  0.7546771E-02  0.1355344E+00
         -1   -1    0    0    0  501 -0.00000000000E+00  0.00000000000E+00  0.47212530600E+02  0.47212530600E+02  0.00000000000E+00 0.  1.
          1   -1    0    0  501    0  0.00000000000E+00 -0.00000000000E+00 -0.83905885121E+02  0.83905885121E+02  0.00000000000E+00 0. -1.
         23    2    1    2    0    0 -0.26706455471E+02 -0.78322517999E+01 -0.24909171991E+02  0.10089514836E+03  0.93727184858E+02 0.  0.
         11    1    3    3    0    0 -0.36459194786E+02  0.33977808305E+02 -0.29178784630E+02  0.57750894488E+02  0.00000000000E+00 0. -1.
        -11    1    3    3    0    0  0.97527393158E+01 -0.41810060105E+02  0.42696126388E+01  0.43144253873E+02  0.00000000000E+00 0.  1.
         22    1    1    2    0    0  0.26706455471E+02  0.78322517999E+01 -0.11784182529E+02  0.30223267360E+02  0.00000000000E+00 0.  1.
<mgrwt>
<rscale>  0 0.71415764E+02</rscale>
<asrwt>0</asrwt>
<pdfrwt beam="1">  1        1 0.12908597E-01 0.97772001E+02</pdfrwt>
<pdfrwt beam="2">  1       -1 0.72634664E-02 0.97772001E+02</pdfrwt>
<totfact> 0.39769358E+04</totfact>
</mgrwt>
</event>
<event>
 6    1  0.2866116E-002  0.9487691E+02  0.7546771E-02  0.1368219E+00
         -2   -1    0    0    0  501 -0.00000000000E+00  0.00000000000E+00  0.87488322974E+01  0.87488322974E+01  0.00000000000E+00 0.  1.
          2   -1    0    0  501    0  0.00000000000E+00 -0.00000000000E+00 -0.40870091802E+03  0.40870091802E+03  0.00000000000E+00 0. -1.
         23    2    1    2    0    0  0.24211795334E+02 -0.40334451776E+01 -0.32644086614E+03  0.33994891731E+03  0.91646863429E+02 0.  0.
         13    1    3    3    0    0  0.22310190648E+02 -0.41047055974E+02 -0.98537020323E+02  0.10905113381E+03  0.00000000000E+00 0.  1.
        -13    1    3    3    0    0  0.19016046862E+01  0.37013610796E+02 -0.22790384582E+03  0.23089778350E+03  0.00000000000E+00 0. -1.
         22    1    1    2    0    0 -0.24211795334E+02  0.40334451776E+01 -0.73511219577E+02  0.77500833008E+02  0.00000000000E+00 0. -1.
<mgrwt>
<rscale>  0 0.67664860E+02</rscale>
<asrwt>0</asrwt>
<pdfrwt beam="1">  1        2 0.62877070E-01 0.94876906E+02</pdfrwt>
<pdfrwt beam="2">  1       -2 0.13459741E-02 0.94876906E+02</pdfrwt>
<totfact> 0.93809688E+04</totfact>
</mgrwt>
</event>
<event>
 6    1  0.2866116E-002  0.9391611E+02  0.7546771E-02  0.1402620E+00
          2   -1    0    0  501    0  0.00000000000E+00  0.00000000000E+00  0.31049350515E+03  0.31049350515E+03  0.00000000000E+00 0.  1.
         -2   -1    0    0    0  501 -0.00000000000E+00 -0.00000000000E+00 -0.10454967013E+02  0.10454967013E+02  0.00000000000E+00 0. -1.
         23    2    1    2    0    0 -0.12987863931E+02  0.64541800700E+01  0.28491500725E+03  0.29999466018E+03  0.92789513059E+02 0.  0.
         13    1    3    3    0    0  0.47799589230E+01 -0.92643699002E+01 -0.31998274669E+01  0.10904836210E+02  0.00000000000E+00 0. -1.
        -13    1    3    3    0    0 -0.17767822854E+02  0.15718549970E+02  0.28811483472E+03  0.28908982397E+03  0.00000000000E+00 0.  1.
         22    1    1    2    0    0  0.12987863931E+02 -0.64541800700E+01  0.15123530886E+02  0.20953811976E+02  0.00000000000E+00 0. -1.
<mgrwt>
<rscale>  0 0.58873595E+02</rscale>
<asrwt>0</asrwt>
<pdfrwt beam="1">  1        2 0.47768225E-01 0.93916105E+02</pdfrwt>
<pdfrwt beam="2">  1       -2 0.16084567E-02 0.93916105E+02</pdfrwt>
<totfact> 0.96925752E+04</totfact>
</mgrwt>
</event>
<event>
 6    1  0.2866116E-002  0.9254109E+02  0.7546771E-02  0.1422932E+00
         -2   -1    0    0    0  501 -0.00000000000E+00  0.00000000000E+00  0.47085352806E+01  0.47085352806E+01  0.00000000000E+00 0.  1.
          2   -1    0    0  501    0  0.00000000000E+00 -0.00000000000E+00 -0.74414048530E+03  0.74414048530E+03  0.00000000000E+00 0. -1.
         23    2    1    2    0    0  0.23675434540E+01  0.10798652867E+02 -0.72386238638E+03  0.72975379925E+03  0.91878381239E+02 0.  0.
         13    1    3    3    0    0 -0.11157095761E+02  0.24405475960E+02 -0.69228765122E+03  0.69280754909E+03  0.00000000000E+00 0. -1.
        -13    1    3    3    0    0  0.13524639215E+02 -0.13606823093E+02 -0.31574735159E+02  0.36946250161E+02  0.00000000000E+00 0.  1.
         22    1    1    2    0    0 -0.23675434540E+01 -0.10798652867E+02 -0.15569563642E+02  0.19095221333E+02  0.00000000000E+00 0.  1.
<mgrwt>
<rscale>  0 0.54405403E+02</rscale>
<asrwt>0</asrwt>
<pdfrwt beam="1">  1        2 0.11448304E+00 0.92541089E+02</pdfrwt>
<pdfrwt beam="2">  1       -2 0.72439076E-03 0.92541089E+02</pdfrwt>
<totfact> 0.11572808E+05</totfact>
</mgrwt>
</event>
<event>
 6    1  0.2866116E-002  0.9264884E+02  0.7546771E-02  0.1393185E+00
          2   -1    0    0  501    0  0.00000000000E+00  0.00000000000E+00  0.73994463528E+02  0.73994463528E+02  0.00000000000E+00 0. -1.
         -2   -1    0    0    0  501 -0.00000000000E+00 -0.00000000000E+00 -0.43777173637E+02  0.43777173637E+02  0.00000000000E+00 0.  1.
         23    2    1    2    0    0  0.15305484313E+02 -0.85855679856E+01  0.35846654576E+02  0.99341781646E+02  0.90971628042E+02 0.  0.
         11    1    3    3    0    0  0.37555666032E+02 -0.25055269313E+02  0.50731825691E+02  0.67911064705E+02  0.00000000000E+00 0. -1.
        -11    1    3    3    0    0 -0.22250181719E+02  0.16469701327E+02 -0.14885171114E+02  0.31430716941E+02  0.00000000000E+00 0.  1.
         22    1    1    2    0    0 -0.15305484313E+02  0.85855679856E+01 -0.56293646861E+01  0.18429855519E+02  0.00000000000E+00 0. -1.
<mgrwt>
<rscale>  0 0.61121429E+02</rscale>
<asrwt>0</asrwt>
<pdfrwt beam="1">  1        2 0.11383764E-01 0.92648837E+02</pdfrwt>
<pdfrwt beam="2">  1       -2 0.67349498E-02 0.92648837E+02</pdfrwt>
<totfact> 0.58067561E+04</totfact>
</mgrwt>
</event>
<event>
 6    1  0.2866116E-002  0.8798628E+02  0.7546771E-02  0.1414232E+00
          3   -1    0    0  501    0  0.00000000000E+00  0.00000000000E+00  0.37755543999E+02  0.37755543999E+02  0.00000000000E+00 0. -1.
         -3   -1    0    0    0  501 -0.00000000000E+00 -0.00000000000E+00 -0.88628677697E+02  0.88628677697E+02  0.00000000000E+00 0.  1.
         23    2    1    2    0    0 -0.12579058919E+01 -0.14654207502E+02 -0.17217451588E+02  0.89655036257E+02  0.86748237805E+02 0.  0.
         13    1    3    3    0    0 -0.25954193932E+02  0.14239477118E+02 -0.36530681455E+02  0.47019927465E+02  0.00000000000E+00 0.  1.
        -13    1    3    3    0    0  0.24696288040E+02 -0.28893684620E+02  0.19313229867E+02  0.42635108792E+02  0.00000000000E+00 0. -1.
         22    1    1    2    0    0  0.12579058919E+01  0.14654207502E+02 -0.33655682110E+02  0.36729185440E+02  0.00000000000E+00 0. -1.
<mgrwt>
<rscale>  0 0.56260078E+02</rscale>
<asrwt>0</asrwt>
<pdfrwt beam="1">  1        3 0.58085453E-02 0.87986277E+02</pdfrwt>
<pdfrwt beam="2">  1       -3 0.13635181E-01 0.87986277E+02</pdfrwt>
<totfact> 0.15924006E+04</totfact>
</mgrwt>
</event>
<event>
 6    1  0.2866116E-002  0.9471348E+02  0.7546771E-02  0.1379276E+00
         -2   -1    0    0    0  501 -0.00000000000E+00  0.00000000000E+00  0.34967497127E+01  0.34967497127E+01  0.00000000000E+00 0. -1.
          2   -1    0    0  501    0  0.00000000000E+00 -0.00000000000E+00 -0.10923670789E+04  0.10923670789E+04  0.00000000000E+00 0.  1.
         23    2    1    2    0    0  0.20044320698E+02 -0.46047598599E+01 -0.10072114324E+04  0.10116548385E+04  0.92453577138E+02 0.  0.
         11    1    3    3    0    0  0.56277324826E+02  0.49748589239E+01 -0.66571038925E+03  0.66810344174E+03  0.00000000000E+00 0.  1.
        -11    1    3    3    0    0 -0.36233004128E+02 -0.95796187838E+01 -0.34150104320E+03  0.34355139672E+03  0.00000000000E+00 0. -1.
         22    1    1    2    0    0 -0.20044320698E+02  0.46047598599E+01 -0.81658896782E+02  0.84208990192E+02  0.00000000000E+00 0. -1.
<mgrwt>
<rscale>  0 0.64654481E+02</rscale>
<asrwt>0</asrwt>
<pdfrwt beam="1">  1        2 0.16805659E+00 0.94713476E+02</pdfrwt>
<pdfrwt beam="2">  1       -2 0.53796113E-03 0.94713476E+02</pdfrwt>
<totfact> 0.10742636E+05</totfact>
</mgrwt>
</event>
<event>
 6    1  0.2866116E-002  0.9043971E+02  0.7546771E-02  0.1417944E+00
         -2   -1    0    0    0  501 -0.00000000000E+00  0.00000000000E+00  0.50394931467E+01  0.50394931467E+01  0.00000000000E+00 0.  1.
          2   -1    0    0  501    0  0.00000000000E+00 -0.00000000000E+00 -0.55356765358E+03  0.55356765358E+03  0.00000000000E+00 0. -1.
         23    2    1    2    0    0 -0.75554804512E+01 -0.10316792590E+02 -0.51147931283E+03  0.51941354262E+03  0.89531108052E+02 0.  0.
         13    1    3    3    0    0 -0.66796331310E+01  0.34821624379E+02 -0.34842564867E+03  0.35022506432E+03  0.00000000000E+00 0. -1.
        -13    1    3    3    0    0 -0.87584732015E+00 -0.45138416969E+02 -0.16305366416E+03  0.16918847830E+03  0.00000000000E+00 0.  1.
         22    1    1    2    0    0  0.75554804512E+01  0.10316792590E+02 -0.37048847604E+02  0.39193604108E+02  0.00000000000E+00 0.  1.
<mgrwt>
<rscale>  0 0.55458257E+02</rscale>
<asrwt>0</asrwt>
<pdfrwt beam="1">  1        2 0.85164208E-01 0.90439708E+02</pdfrwt>
<pdfrwt beam="2">  1       -2 0.77530706E-03 0.90439708E+02</pdfrwt>
<totfact> 0.14687549E+05</totfact>
</mgrwt>
</event>
<event>
 6    1  0.2866116E-002  0.9300596E+02  0.7546771E-02  0.1416266E+00
         -1   -1    0    0    0  501 -0.00000000000E+00  0.00000000000E+00  0.31456735176E+02  0.31456735176E+02  0.00000000000E+00 0.  1.
          1   -1    0    0  501    0  0.00000000000E+00 -0.00000000000E+00 -0.92002328034E+02  0.92002328034E+02  0.00000000000E+00 0. -1.
         23    2    1    2    0    0 -0.61833712778E+01  0.10362003413E+02 -0.61264839379E+02  0.11137094877E+03  0.92219859529E+02 0.  0.
         11    1    3    3    0    0 -0.74152990490E+01  0.50620987708E+02 -0.44265190531E+02  0.67652628546E+02  0.00000000000E+00 0. -1.
        -11    1    3    3    0    0  0.12319277712E+01 -0.40258984295E+02 -0.16999648848E+02  0.43718320227E+02  0.00000000000E+00 0.  1.
         22    1    1    2    0    0  0.61833712778E+01 -0.10362003413E+02  0.71924652002E+00  0.12088114437E+02  0.00000000000E+00 0. -1.
<mgrwt>
<rscale>  0 0.55818759E+02</rscale>
<asrwt>0</asrwt>
<pdfrwt beam="1">  1        1 0.14154204E-01 0.93005955E+02</pdfrwt>
<pdfrwt beam="2">  1       -1 0.48394977E-02 0.93005955E+02</pdfrwt>
<totfact> 0.63847114E+04</totfact>
</mgrwt>
</event>
<event>
 6    1  0.2866116E-002  0.9047429E+02  0.7546771E-02  0.1428090E+00
         -2   -1    0    0    0  501 -0.00000000000E+00  0.00000000000E+00  0.37958865466E+02  0.37958865466E+02  0.00000000000E+00 0.  1.
          2   -1    0    0  501    0  0.00000000000E+00 -0.00000000000E+00 -0.68422999318E+02  0.68422999318E+02  0.00000000000E+00 0. -1.
         23    2    1    2    0    0 -0.70427999907E+01  0.83645975808E+01 -0.30406195153E+02  0.95447017675E+02  0.89811073677E+02 0.  0.
         11    1    3    3    0    0 -0.69317352242E+01 -0.15546483888E+02 -0.57115601848E+02  0.59598104743E+02  0.00000000000E+00 0. -1.
        -11    1    3    3    0    0 -0.11106476652E+00  0.23911081469E+02  0.26709406695E+02  0.35848912932E+02  0.00000000000E+00 0.  1.
         22    1    1    2    0    0  0.70427999907E+01 -0.83645975808E+01 -0.57938698874E-01  0.10934847109E+02  0.00000000000E+00 0.  1.
<mgrwt>
<rscale>  0 0.53345222E+02</rscale>
<asrwt>0</asrwt>
<pdfrwt beam="1">  1        2 0.10526615E-01 0.90474286E+02</pdfrwt>
<pdfrwt beam="2">  1       -2 0.58398255E-02 0.90474286E+02</pdfrwt>
<totfact> 0.78780713E+04</totfact>
</mgrwt>
</event>
<event>
 6    1  0.2866116E-002  0.9006836E+02  0.7546771E-02  0.1407991E+00
         -1   -1    0    0    0  501 -0.00000000000E+00  0.00000000000E+00  0.62955972843E+02  0.62955972843E+02  0.00000000000E+00 0. -1.
          1   -1    0    0  501    0  0.00000000000E+00 -0.00000000000E+00 -0.10923292932E+03  0.10923292932E+03  0.00000000000E+00 0.  1.
         23    2    1    2    0    0 -0.11794810371E+02  0.94469921969E+01 -0.89151443359E+02  0.12672919649E+03  0.88791588442E+02 0.  0.
         13    1    3    3    0    0  0.21758159917E+02  0.21882586877E+02 -0.21016421570E+00  0.30859509076E+02  0.00000000000E+00 0. -1.
        -13    1    3    3    0    0 -0.33552970288E+02 -0.12435594680E+02 -0.88941279143E+02  0.95869687419E+02  0.00000000000E+00 0.  1.
         22    1    1    2    0    0  0.11794810371E+02 -0.94469921969E+01  0.42874486887E+02  0.45459705664E+02  0.00000000000E+00 0. -1.
<mgrwt>
<rscale>  0 0.57644444E+02</rscale>
<asrwt>0</asrwt>
<pdfrwt beam="1">  1        1 0.16805066E-01 0.90068360E+02</pdfrwt>
<pdfrwt beam="2">  1       -1 0.96855344E-02 0.90068360E+02</pdfrwt>
<totfact> 0.18254331E+04</totfact>
</mgrwt>
</event>
<event>
 6    1  0.2866116E-002  0.9167241E+02  0.7546771E-02  0.1431203E+00
         -1   -1    0    0    0  501 -0.00000000000E+00  0.00000000000E+00  0.58776979467E+01  0.58776979467E+01  0.00000000000E+00 0.  1.
          1   -1    0    0  501    0  0.00000000000E+00 -0.00000000000E+00 -0.46053338516E+03  0.46053338516E+03  0.00000000000E+00 0. -1.
         23    2    1    2    0    0 -0.69398708946E+01  0.72370621203E+01 -0.43225065525E+03  0.44186475276E+03  0.91122411582E+02 0.  0.
         11    1    3    3    0    0  0.18427823999E+02 -0.95577295468E+01 -0.21134186305E+02  0.29624123990E+02  0.00000000000E+00 0.  1.
        -11    1    3    3    0    0 -0.25367694894E+02  0.16794791667E+02 -0.41111646895E+03  0.41224062877E+03  0.00000000000E+00 0. -1.
         22    1    1    2    0    0  0.69398708946E+01 -0.72370621203E+01 -0.22405031967E+02  0.24546330349E+02  0.00000000000E+00 0.  1.
<mgrwt>
<rscale>  0 0.52719303E+02</rscale>
<asrwt>0</asrwt>
<pdfrwt beam="1">  1        1 0.70851292E-01 0.91672410E+02</pdfrwt>
<pdfrwt beam="2">  1       -1 0.90426120E-03 0.91672410E+02</pdfrwt>
<totfact> 0.95105368E+04</totfact>
</mgrwt>
</event>
<event>
 6    1  0.2866116E-002  0.1018841E+03  0.7546771E-02  0.1323740E+00
         -2   -1    0    0    0  501 -0.00000000000E+00  0.00000000000E+00  0.17334032582E+02  0.17334032582E+02  0.00000000000E+00 0.  1.
          2   -1    0    0  501    0  0.00000000000E+00 -0.00000000000E+00 -0.35945252467E+03  0.35945252467E+03  0.00000000000E+00 0. -1.
         23    2    1    2    0    0  0.17840506384E+02 -0.38623696458E+02 -0.30037176753E+03  0.31718066319E+03  0.92575918979E+02 0.  0.
         13    1    3    3    0    0 -0.79578756939E+01 -0.22283460779E+02 -0.27877581616E+03  0.27977819087E+03  0.00000000000E+00 0. -1.
        -13    1    3    3    0    0  0.25798382078E+02 -0.16340235679E+02 -0.21595951366E+02  0.37402472315E+02  0.00000000000E+00 0.  1.
         22    1    1    2    0    0 -0.17840506384E+02  0.38623696458E+02 -0.41746724564E+02  0.59605894071E+02  0.00000000000E+00 0.  1.
<mgrwt>
<rscale>  0 0.81901510E+02</rscale>
<asrwt>0</asrwt>
<pdfrwt beam="1">  1        2 0.55300379E-01 0.10188412E+03</pdfrwt>
<pdfrwt beam="2">  1       -2 0.26667747E-02 0.10188412E+03</pdfrwt>
<totfact> 0.40554883E+04</totfact>
</mgrwt>
</event>
<event>
 6    1  0.2866116E-002  0.9032495E+02  0.7546771E-02  0.1423061E+00
         -2   -1    0    0    0  501 -0.00000000000E+00  0.00000000000E+00  0.55094686754E+01  0.55094686754E+01  0.00000000000E+00 0.  1.
          2   -1    0    0  501    0  0.00000000000E+00 -0.00000000000E+00 -0.49423938333E+03  0.49423938333E+03  0.00000000000E+00 0. -1.
         23    2    1    2    0    0 -0.10534977148E+01  0.11818721174E+02 -0.45770388507E+03  0.46653128828E+03  0.89542194047E+02 0.  0.
         11    1    3    3    0    0 -0.17052286234E+02 -0.16103027727E+02 -0.39813952659E+03  0.39882975140E+03  0.00000000000E+00 0. -1.
        -11    1    3    3    0    0  0.15998788519E+02  0.27921748901E+02 -0.59564358479E+02  0.67701536886E+02  0.00000000000E+00 0.  1.
         22    1    1    2    0    0  0.10534977148E+01 -0.11818721174E+02 -0.31026029584E+02  0.33217563718E+02  0.00000000000E+00 0.  1.
<mgrwt>
<rscale>  0 0.54378604E+02</rscale>
<asrwt>0</asrwt>
<pdfrwt beam="1">  1        2 0.76036840E-01 0.90324950E+02</pdfrwt>
<pdfrwt beam="2">  1       -2 0.84761044E-03 0.90324950E+02</pdfrwt>
<totfact> 0.14650247E+05</totfact>
</mgrwt>
</event>
<event>
 6    1  0.2866116E-002  0.9123490E+02  0.7546771E-02  0.1426723E+00
         -2   -1    0    0    0  501 -0.00000000000E+00  0.00000000000E+00  0.12718379517E+02  0.12718379517E+02  0.00000000000E+00 0.  1.
          2   -1    0    0  501    0  0.00000000000E+00 -0.00000000000E+00 -0.26678875339E+03  0.26678875339E+03  0.00000000000E+00 0. -1.
         23    2    1    2    0    0 -0.45445467972E+01 -0.98939059653E+01 -0.25253685474E+03  0.26851195388E+03  0.90582912812E+02 0.  0.
         11    1    3    3    0    0 -0.50911281429E+01  0.30805055297E+02 -0.33775482002E+02  0.45996241174E+02  0.00000000000E+00 0.  1.
        -11    1    3    3    0    0  0.54658134568E+00 -0.40698961262E+02 -0.21876137274E+03  0.22251571271E+03  0.00000000000E+00 0. -1.
         22    1    1    2    0    0  0.45445467972E+01  0.98939059653E+01 -0.15335191287E+01  0.10995179024E+02  0.00000000000E+00 0.  1.
<mgrwt>
<rscale>  0 0.53623468E+02</rscale>
<asrwt>0</asrwt>
<pdfrwt beam="1">  1        2 0.41044421E-01 0.91234897E+02</pdfrwt>
<pdfrwt beam="2">  1       -2 0.19566739E-02 0.91234897E+02</pdfrwt>
<totfact> 0.85425901E+04</totfact>
</mgrwt>
</event>
<event>
 6    1  0.2866116E-002  0.9808417E+02  0.7546771E-02  0.1340208E+00
         -4   -1    0    0    0  501 -0.00000000000E+00  0.00000000000E+00  0.37919834990E+02  0.37919834990E+02  0.00000000000E+00 0.  1.
          4   -1    0    0  501    0  0.00000000000E+00 -0.00000000000E+00 -0.14796353328E+03  0.14796353328E+03  0.00000000000E+00 0. -1.
         23    2    1    2    0    0  0.35572545750E+02  0.32539976407E+01 -0.11348392850E+03  0.14999702413E+03  0.91348293403E+02 0.  0.
         11    1    3    3    0    0  0.36255701094E+02 -0.26106212576E+02 -0.14844261161E+02  0.47078257044E+02  0.00000000000E+00 0.  1.
        -11    1    3    3    0    0 -0.68315534437E+00  0.29360210217E+02 -0.98639667340E+02  0.10291876708E+03  0.00000000000E+00 0. -1.
         22    1    1    2    0    0 -0.35572545750E+02 -0.32539976407E+01  0.34402302132E+01  0.35886344139E+02  0.00000000000E+00 0. -1.
<mgrwt>
<rscale>  0 0.76195672E+02</rscale>
<asrwt>0</asrwt>
<pdfrwt beam="1">  1        4 0.22763621E-01 0.98084174E+02</pdfrwt>
<pdfrwt beam="2">  1       -4 0.58338207E-02 0.98084174E+02</pdfrwt>
<totfact> 0.49690169E+03</totfact>
</mgrwt>
</event>
<event>
 6    1  0.2866116E-002  0.9310084E+02  0.7546771E-02  0.1414153E+00
         -2   -1    0    0    0  501 -0.00000000000E+00  0.00000000000E+00  0.26138931601E+02  0.26138931601E+02  0.00000000000E+00 0.  1.
          2   -1    0    0  501    0  0.00000000000E+00 -0.00000000000E+00 -0.10669381011E+03  0.10669381011E+03  0.00000000000E+00 0. -1.
         23    2    1    2    0    0  0.75644864189E+00  0.12406973214E+02 -0.72769695136E+02  0.11816596705E+03  0.92267340048E+02 0.  0.
         13    1    3    3    0    0 -0.88821613033E+01  0.20439973315E+02  0.16682134078E+02  0.27838442771E+02  0.00000000000E+00 0.  1.
        -13    1    3    3    0    0  0.96386099452E+01 -0.80330001007E+01 -0.89451829214E+02  0.90327524277E+02  0.00000000000E+00 0. -1.
         22    1    1    2    0    0 -0.75644864189E+00 -0.12406973214E+02 -0.77851833760E+01  0.14666774665E+02  0.00000000000E+00 0.  1.
<mgrwt>
<rscale>  0 0.56277280E+02</rscale>
<asrwt>0</asrwt>
<pdfrwt beam="1">  1        2 0.16414432E-01 0.93100844E+02</pdfrwt>
<pdfrwt beam="2">  1       -2 0.40213741E-02 0.93100844E+02</pdfrwt>
<totfact> 0.81659632E+04</totfact>
</mgrwt>
</event>
<event>
 6    1  0.2866116E-002  0.9261544E+02  0.7546771E-02  0.1386863E+00
          2   -1    0    0  501    0  0.00000000000E+00  0.00000000000E+00  0.49095634053E+02  0.49095634053E+02  0.00000000000E+00 0. -1.
         -2   -1    0    0    0  501 -0.00000000000E+00 -0.00000000000E+00 -0.66718562374E+02  0.66718562374E+02  0.00000000000E+00 0.  1.
         23    2    1    2    0    0 -0.14977322455E+02 -0.12403534524E+02 -0.52477908929E+01  0.92763992892E+02  0.90550821153E+02 0.  0.
         11    1    3    3    0    0  0.24958906326E+02  0.23437373452E+01  0.28850077610E+02  0.38219982834E+02  0.00000000000E+00 0. -1.
        -11    1    3    3    0    0 -0.39936228781E+02 -0.14747271870E+02 -0.34097868503E+02  0.54544010059E+02  0.00000000000E+00 0.  1.
         22    1    1    2    0    0  0.14977322455E+02  0.12403534524E+02 -0.12375137428E+02  0.23050203535E+02  0.00000000000E+00 0.  1.
<mgrwt>
<rscale>  0 0.62693586E+02</rscale>
<asrwt>0</asrwt>
<pdfrwt beam="1">  1        2 0.75531745E-02 0.92615436E+02</pdfrwt>
<pdfrwt beam="2">  1       -2 0.10264394E-01 0.92615436E+02</pdfrwt>
<totfact> 0.50221542E+04</totfact>
</mgrwt>
</event>
<event>
 6    1  0.2866116E-002  0.9563863E+02  0.7546771E-02  0.1361735E+00
         -2   -1    0    0    0  501 -0.00000000000E+00  0.00000000000E+00  0.37179461720E+01  0.37179461720E+01  0.00000000000E+00 0.  1.
          2   -1    0    0  501    0  0.00000000000E+00 -0.00000000000E+00 -0.14031942576E+04  0.14031942576E+04  0.00000000000E+00 0. -1.
         23    2    1    2    0    0  0.26698891237E+02  0.32516225366E+00 -0.13112709722E+04  0.13147540875E+04  0.91835785944E+02 0.  0.
         13    1    3    3    0    0  0.29026566234E+02 -0.41036418411E+02 -0.89982442560E+03  0.90122723333E+03  0.00000000000E+00 0. -1.
        -13    1    3    3    0    0 -0.23276749966E+01  0.41361580665E+02 -0.41144654658E+03  0.41352685417E+03  0.00000000000E+00 0.  1.
         22    1    1    2    0    0 -0.26698891237E+02 -0.32516225366E+00 -0.88205339244E+02  0.92158116272E+02  0.00000000000E+00 0.  1.
<mgrwt>
<rscale>  0 0.69519458E+02</rscale>
<asrwt>0</asrwt>
<pdfrwt beam="1">  1        2 0.21587572E+00 0.95638633E+02</pdfrwt>
<pdfrwt beam="2">  1       -2 0.57199257E-03 0.95638633E+02</pdfrwt>
<totfact> 0.67105149E+04</totfact>
</mgrwt>
</event>
<event>
 6    1  0.2866116E-002  0.9251014E+02  0.7546771E-02  0.1428838E+00
          2   -1    0    0  501    0  0.00000000000E+00  0.00000000000E+00  0.12397020666E+04  0.12397020666E+04  0.00000000000E+00 0. -1.
         -2   -1    0    0    0  501 -0.00000000000E+00 -0.00000000000E+00 -0.16243106947E+02  0.16243106947E+02  0.00000000000E+00 0.  1.
         23    2    1    2    0    0  0.24532442441E+01  0.98110172861E+01  0.12362122136E+04  0.12396688116E+04  0.91955701107E+02 0.  0.
         13    1    3    3    0    0 -0.12026204271E+02 -0.31891744901E+02  0.89015260968E+03  0.89080490653E+03  0.00000000000E+00 0. -1.
        -13    1    3    3    0    0  0.14479448515E+02  0.41702762187E+02  0.34605960395E+03  0.34886390511E+03  0.00000000000E+00 0.  1.
         22    1    1    2    0    0 -0.24532442441E+01 -0.98110172861E+01 -0.12753254017E+02  0.16276361864E+02  0.00000000000E+00 0.  1.
<mgrwt>
<rscale>  0 0.53194030E+02</rscale>
<asrwt>0</asrwt>
<pdfrwt beam="1">  1        2 0.19072332E+00 0.92510137E+02</pdfrwt>
<pdfrwt beam="2">  1       -2 0.24989405E-02 0.92510137E+02</pdfrwt>
<totfact> 0.10016147E+04</totfact>
</mgrwt>
</event>
<event>
 6    1  0.2866116E-002  0.9211587E+02  0.7546771E-02  0.1387504E+00
         -2   -1    0    0    0  501 -0.00000000000E+00  0.00000000000E+00  0.40457348376E+02  0.40457348376E+02  0.00000000000E+00 0.  1.
          2   -1    0    0  501    0  0.00000000000E+00 -0.00000000000E+00 -0.83321207012E+02  0.83321207012E+02  0.00000000000E+00 0. -1.
         23    2    1    2    0    0 -0.14960715108E+02  0.12602345491E+02 -0.47548981695E+02  0.10366407089E+03  0.90014953343E+02 0.  0.
         11    1    3    3    0    0 -0.33753772900E+02 -0.24117543052E+02 -0.46618491301E+02  0.62403980634E+02  0.00000000000E+00 0. -1.
        -11    1    3    3    0    0  0.18793057791E+02  0.36719888543E+02 -0.93049039466E+00  0.41260090259E+02  0.00000000000E+00 0.  1.
         22    1    1    2    0    0  0.14960715108E+02 -0.12602345491E+02  0.46851230586E+01  0.20114484495E+02  0.00000000000E+00 0. -1.
<mgrwt>
<rscale>  0 0.62531658E+02</rscale>
<asrwt>0</asrwt>
<pdfrwt beam="1">  1        2 0.12818647E-01 0.92115872E+02</pdfrwt>
<pdfrwt beam="2">  1       -2 0.62242076E-02 0.92115872E+02</pdfrwt>
<totfact> 0.56757289E+04</totfact>
</mgrwt>
</event>
<event>
 6    1  0.2866116E-002  0.9076522E+02  0.7546771E-02  0.1392818E+00
         -2   -1    0    0    0  501 -0.00000000000E+00  0.00000000000E+00  0.11855049604E+02  0.11855049604E+02  0.00000000000E+00 0.  1.
          2   -1    0    0  501    0  0.00000000000E+00 -0.00000000000E+00 -0.46417488826E+03  0.46417488826E+03  0.00000000000E+00 0. -1.
         23    2    1    2    0    0 -0.17806789306E+02 -0.59489798888E+01 -0.44754752898E+03  0.45665864346E+03  0.88802330183E+02 0.  0.
         13    1    3    3    0    0 -0.24732299685E+02 -0.67972796278E+01 -0.44883185843E+03  0.44956415204E+03  0.00000000000E+00 0. -1.
        -13    1    3    3    0    0  0.69255103791E+01  0.84829973898E+00  0.12843294468E+01  0.70944914255E+01  0.00000000000E+00 0.  1.
         22    1    1    2    0    0  0.17806789306E+02  0.59489798888E+01 -0.47723096747E+01  0.19371294400E+02  0.00000000000E+00 0.  1.
<mgrwt>
<rscale>  0 0.61211103E+02</rscale>
<asrwt>0</asrwt>
<pdfrwt beam="1">  1        2 0.71411516E-01 0.90765224E+02</pdfrwt>
<pdfrwt beam="2">  1       -2 0.18238539E-02 0.90765224E+02</pdfrwt>
<totfact> 0.52772574E+04</totfact>
</mgrwt>
</event>
<event>
 6    1  0.2866116E-002  0.9446150E+02  0.7546771E-02  0.1372477E+00
         -3   -1    0    0    0  501 -0.00000000000E+00  0.00000000000E+00  0.10040072195E+03  0.10040072195E+03  0.00000000000E+00 0.  1.
          3   -1    0    0  501    0  0.00000000000E+00 -0.00000000000E+00 -0.44915022759E+02  0.44915022759E+02  0.00000000000E+00 0. -1.
         23    2    1    2    0    0  0.20433074525E+02 -0.10942583828E+02  0.10930134811E+02  0.95091756491E+02  0.91573596796E+02 0.  0.
         13    1    3    3    0    0 -0.12805333173E+02 -0.11242878480E+02  0.44620663124E+02  0.47763819485E+02  0.00000000000E+00 0.  1.
        -13    1    3    3    0    0  0.33238407698E+02  0.30029465200E+00 -0.33690528313E+02  0.47327937005E+02  0.00000000000E+00 0. -1.
         22    1    1    2    0    0 -0.20433074525E+02  0.10942583828E+02  0.44555564380E+02  0.50223988218E+02  0.00000000000E+00 0.  1.
<mgrwt>
<rscale>  0 0.66483402E+02</rscale>
<asrwt>0</asrwt>
<pdfrwt beam="1">  1        3 0.69100035E-02 0.94461496E+02</pdfrwt>
<pdfrwt beam="2">  1       -3 0.15446265E-01 0.94461496E+02</pdfrwt>
<totfact> 0.99635339E+03</totfact>
</mgrwt>
</event>
<event>
 6    1  0.2866116E-002  0.9360068E+02  0.7546771E-02  0.1415651E+00
          2   -1    0    0  501    0  0.00000000000E+00  0.00000000000E+00  0.74308339255E+02  0.74308339255E+02  0.00000000000E+00 0. -1.
         -2   -1    0    0    0  501 -0.00000000000E+00 -0.00000000000E+00 -0.79727477179E+02  0.79727477179E+02  0.00000000000E+00 0.  1.
         23    2    1    2    0    0 -0.11316765661E+01 -0.11897667805E+02  0.43831987641E+02  0.10335536103E+03  0.92834542716E+02 0.  0.
         13    1    3    3    0    0  0.23889010155E+01  0.38542962672E+02  0.34816110496E+02  0.51994503264E+02  0.00000000000E+00 0. -1.
        -13    1    3    3    0    0 -0.35205775816E+01 -0.50440630477E+02  0.90158771449E+01  0.51360857763E+02  0.00000000000E+00 0.  1.
         22    1    1    2    0    0  0.11316765661E+01  0.11897667805E+02 -0.49251125564E+02  0.50680455408E+02  0.00000000000E+00 0. -1.
<mgrwt>
<rscale>  0 0.55951748E+02</rscale>
<asrwt>0</asrwt>
<pdfrwt beam="1">  1        2 0.11432052E-01 0.93600681E+02</pdfrwt>
<pdfrwt beam="2">  1       -2 0.12265766E-01 0.93600681E+02</pdfrwt>
<totfact> 0.22904035E+04</totfact>
</mgrwt>
</event>
<event>
 6    1  0.2866116E-002  0.9135218E+02  0.7546771E-02  0.1426238E+00
         -2   -1    0    0    0  501 -0.00000000000E+00  0.00000000000E+00  0.52277736142E+02  0.52277736142E+02  0.00000000000E+00 0.  1.
          2   -1    0    0  501    0  0.00000000000E+00 -0.00000000000E+00 -0.51248378187E+02  0.51248378187E+02  0.00000000000E+00 0. -1.
         23    2    1    2    0    0 -0.64383466711E+00  0.10907369520E+02 -0.41244898647E+01  0.91445245972E+02  0.90696396628E+02 0.  0.
         11    1    3    3    0    0  0.29211942960E+02  0.39063800127E+02 -0.10551970879E+02  0.49906534455E+02  0.00000000000E+00 0. -1.
        -11    1    3    3    0    0 -0.29855777628E+02 -0.28156430607E+02  0.64274810147E+01  0.41538711516E+02  0.00000000000E+00 0.  1.
         22    1    1    2    0    0  0.64383466711E+00 -0.10907369520E+02  0.51538478197E+01  0.12080868358E+02  0.00000000000E+00 0.  1.
<mgrwt>
<rscale>  0 0.53722724E+02</rscale>
<asrwt>0</asrwt>
<pdfrwt beam="1">  1        2 0.78843659E-02 0.91352184E+02</pdfrwt>
<pdfrwt beam="2">  1       -2 0.80427287E-02 0.91352184E+02</pdfrwt>
<totfact> 0.69242573E+04</totfact>
</mgrwt>
</event>
<event>
 6    1  0.2866116E-002  0.1038733E+03  0.7546771E-02  0.1313221E+00
          2   -1    0    0  501    0  0.00000000000E+00  0.00000000000E+00  0.15721177007E+02  0.15721177007E+02  0.00000000000E+00 0. -1.
         -2   -1    0    0    0  501 -0.00000000000E+00 -0.00000000000E+00 -0.37318276131E+03  0.37318276131E+03  0.00000000000E+00 0.  1.
         23    2    1    2    0    0  0.45935684752E+02  0.15469778937E+02 -0.26205146544E+03  0.28188762191E+03  0.91870885800E+02 0.  0.
         11    1    3    3    0    0  0.38835748142E+02  0.41489048433E+02 -0.24117866746E+03  0.24778358725E+03  0.00000000000E+00 0. -1.
        -11    1    3    3    0    0  0.70999366100E+01 -0.26019269496E+02 -0.20872797977E+02  0.34104034664E+02  0.00000000000E+00 0.  1.
         22    1    1    2    0    0 -0.45935684752E+02 -0.15469778937E+02 -0.95410118866E+02  0.10701631640E+03  0.00000000000E+00 0.  1.
<mgrwt>
<rscale>  0 0.85851437E+02</rscale>
<asrwt>0</asrwt>
<pdfrwt beam="1">  1        2 0.24186427E-02 0.10387329E+03</pdfrwt>
<pdfrwt beam="2">  1       -2 0.57412730E-01 0.10387329E+03</pdfrwt>
<totfact> 0.11075801E+04</totfact>
</mgrwt>
</event>
<event>
 6    1  0.2866116E-002  0.9386898E+02  0.7546771E-02  0.1381933E+00
          2   -1    0    0  501    0  0.00000000000E+00  0.00000000000E+00  0.15723710951E+03  0.15723710951E+03  0.00000000000E+00 0. -1.
         -2   -1    0    0    0  501 -0.00000000000E+00 -0.00000000000E+00 -0.22422214422E+02  0.22422214422E+02  0.00000000000E+00 0.  1.
         23    2    1    2    0    0  0.11273557630E+02 -0.16799267834E+02  0.12710269212E+03  0.15800784417E+03  0.91662838562E+02 0.  0.
         13    1    3    3    0    0 -0.24649356952E+02 -0.42763618201E+02  0.61988915592E+02  0.79239784805E+02  0.00000000000E+00 0.  1.
        -13    1    3    3    0    0  0.35922914582E+02  0.25964350367E+02  0.65113776532E+02  0.78768059366E+02  0.00000000000E+00 0. -1.
         22    1    1    2    0    0 -0.11273557630E+02  0.16799267834E+02  0.77122029687E+01  0.21651479765E+02  0.00000000000E+00 0.  1.
<mgrwt>
<rscale>  0 0.63958446E+02</rscale>
<asrwt>0</asrwt>
<pdfrwt beam="1">  1        2 0.24190324E-01 0.93868975E+02</pdfrwt>
<pdfrwt beam="2">  1       -2 0.34495715E-02 0.93868975E+02</pdfrwt>
<totfact> 0.66347723E+04</totfact>
</mgrwt>
</event>
<event>
 6    1  0.3375958E-002  0.1269772E+03  0.7546771E-02  0.1356832E+00
          2   -1    0    0  501    0  0.00000000000E+00  0.00000000000E+00  0.73597324667E+03  0.73597324667E+03  0.00000000000E+00 0. -1.
         -2   -1    0    0    0  501 -0.00000000000E+00 -0.00000000000E+00 -0.75570382201E+01  0.75570382201E+01  0.00000000000E+00 0.  1.
         23    2    1    2    0    0  0.56568516401E+01 -0.11023193035E+02  0.71043822498E+03  0.72169639736E+03  0.12637130881E+03 0.  0.
         13    1    3    3    0    0 -0.21819656209E+02 -0.60136327633E+02  0.49129720272E+03  0.49544466562E+03  0.00000000000E+00 0.  1.
        -13    1    3    3    0    0  0.27476507849E+02  0.49113134599E+02  0.21914102226E+03  0.22625173173E+03  0.00000000000E+00 0. -1.
         22    1    1    2    0    0 -0.56568516401E+01  0.11023193035E+02  0.17977983472E+02  0.21833887535E+02  0.00000000000E+00 0.  1.
<mgrwt>
<rscale>  0 0.70967867E+02</rscale>
<asrwt>0</asrwt>
<pdfrwt beam="1">  1        2 0.11322660E+00 0.12697724E+03</pdfrwt>
<pdfrwt beam="2">  1       -2 0.11626218E-02 0.12697724E+03</pdfrwt>
<totfact> 0.62313281E+04</totfact>
</mgrwt>
</event>
<event>
 6    1  0.2866116E-002  0.9342376E+02  0.7546771E-02  0.1416942E+00
          2   -1    0    0  501    0  0.00000000000E+00  0.00000000000E+00  0.28085873391E+02  0.28085873391E+02  0.00000000000E+00 0. -1.
         -2   -1    0    0    0  501 -0.00000000000E+00 -0.00000000000E+00 -0.12258234927E+03  0.12258234927E+03  0.00000000000E+00 0.  1.
         23    2    1    2    0    0 -0.85732936431E+01  0.80813259293E+01 -0.52741955872E+02  0.10728332744E+03  0.92677878934E+02 0.  0.
         13    1    3    3    0    0  0.29072781050E+02  0.36187586013E+02 -0.27416956669E+02  0.53911571044E+02  0.00000000000E+00 0. -1.
        -13    1    3    3    0    0 -0.37646074693E+02 -0.28106260084E+02 -0.25324999202E+02  0.53371756391E+02  0.00000000000E+00 0.  1.
         22    1    1    2    0    0  0.85732936431E+01 -0.80813259293E+01 -0.41754520007E+02  0.43384895225E+02  0.00000000000E+00 0.  1.
<mgrwt>
<rscale>  0 0.55673084E+02</rscale>
<asrwt>0</asrwt>
<pdfrwt beam="1">  1        2 0.43209037E-02 0.93423757E+02</pdfrwt>
<pdfrwt beam="2">  1       -2 0.18858823E-01 0.93423757E+02</pdfrwt>
<totfact> 0.38591193E+04</totfact>
</mgrwt>
</event>
<event>
 6    1  0.2866116E-002  0.9480554E+02  0.7546771E-02  0.1371100E+00
         -1   -1    0    0    0  501 -0.00000000000E+00  0.00000000000E+00  0.81260895211E+01  0.81260895211E+01  0.00000000000E+00 0.  1.
          1   -1    0    0  501    0  0.00000000000E+00 -0.00000000000E+00 -0.43185614759E+03  0.43185614759E+03  0.00000000000E+00 0. -1.
         23    2    1    2    0    0  0.12475542595E+02  0.19861411061E+02 -0.32855539325E+03  0.34196013942E+03  0.91858454733E+02 0.  0.
         11    1    3    3    0    0  0.21549201444E+01 -0.17383174209E+02 -0.83035946599E+01  0.19384739118E+02  0.00000000000E+00 0.  1.
        -11    1    3    3    0    0  0.10320622451E+02  0.37244585270E+02 -0.32025179859E+03  0.32257540031E+03  0.00000000000E+00 0. -1.
         22    1    1    2    0    0 -0.12475542595E+02 -0.19861411061E+02 -0.95174664819E+02  0.98022097691E+02  0.00000000000E+00 0.  1.
<mgrwt>
<rscale>  0 0.66862399E+02</rscale>
<asrwt>0</asrwt>
<pdfrwt beam="1">  1        1 0.66439424E-01 0.94805541E+02</pdfrwt>
<pdfrwt beam="2">  1       -1 0.12501673E-02 0.94805541E+02</pdfrwt>
<totfact> 0.65571567E+04</totfact>
</mgrwt>
</event>
<event>
 6    1  0.2866116E-002  0.8949711E+02  0.7546771E-02  0.1434564E+00
          2   -1    0    0  501    0  0.00000000000E+00  0.00000000000E+00  0.13956860046E+03  0.13956860046E+03  0.00000000000E+00 0.  1.
         -2   -1    0    0    0  501 -0.00000000000E+00 -0.00000000000E+00 -0.18381964409E+02  0.18381964409E+02  0.00000000000E+00 0. -1.
         23    2    1    2    0    0 -0.45966887472E+01 -0.91533423555E+01  0.11587371241E+03  0.14641191758E+03  0.88909049920E+02 0.  0.
         11    1    3    3    0    0  0.34912921081E+02 -0.14584398839E+01  0.15421298484E+02  0.38194967630E+02  0.00000000000E+00 0. -1.
        -11    1    3    3    0    0 -0.39509609828E+02 -0.76949024716E+01  0.10045241392E+03  0.10821694995E+03  0.00000000000E+00 0.  1.
         22    1    1    2    0    0  0.45966887472E+01  0.91533423555E+01  0.53129236444E+01  0.11538647294E+02  0.00000000000E+00 0. -1.
<mgrwt>
<rscale>  0 0.52054770E+02</rscale>
<asrwt>0</asrwt>
<pdfrwt beam="1">  1        2 0.21472092E-01 0.89497108E+02</pdfrwt>
<pdfrwt beam="2">  1       -2 0.28279946E-02 0.89497108E+02</pdfrwt>
<totfact> 0.10032564E+05</totfact>
</mgrwt>
</event>
<event>
 6    1  0.2866116E-002  0.7740953E+02  0.7546771E-02  0.1402000E+00
          1   -1    0    0  501    0  0.00000000000E+00  0.00000000000E+00  0.96901694933E+03  0.96901694933E+03  0.00000000000E+00 0. -1.
         -1   -1    0    0    0  501 -0.00000000000E+00 -0.00000000000E+00 -0.37809138831E+01  0.37809138831E+01  0.00000000000E+00 0.  1.
         23    2    1    2    0    0  0.15426972537E+02 -0.21120622152E+02  0.88560194967E+03  0.88897865432E+03  0.72857137037E+02 0.  0.
         11    1    3    3    0    0  0.50022325211E+01  0.17877449579E+02  0.71311279366E+02  0.73688018690E+02  0.00000000000E+00 0.  1.
        -11    1    3    3    0    0  0.10424740015E+02 -0.38998071731E+02  0.81429067031E+03  0.81529063563E+03  0.00000000000E+00 0. -1.
         22    1    1    2    0    0 -0.15426972537E+02  0.21120622152E+02  0.79634085769E+02  0.83819208885E+02  0.00000000000E+00 0.  1.
<mgrwt>
<rscale>  0 0.59017871E+02</rscale>
<asrwt>0</asrwt>
<pdfrwt beam="1">  1        1 0.14907933E+00 0.77409525E+02</pdfrwt>
<pdfrwt beam="2">  1       -1 0.58167983E-03 0.77409525E+02</pdfrwt>
<totfact> 0.60852071E+04</totfact>
</mgrwt>
</event>
<event>
 6    1  0.2866116E-002  0.9394029E+02  0.7546771E-02  0.1395204E+00
         -2   -1    0    0    0  501 -0.00000000000E+00  0.00000000000E+00  0.44755068690E+01  0.44755068690E+01  0.00000000000E+00 0.  1.
          2   -1    0    0  501    0  0.00000000000E+00 -0.00000000000E+00 -0.75513607250E+03  0.75513607250E+03  0.00000000000E+00 0. -1.
         23    2    1    2    0    0 -0.14164823179E+02 -0.80671642280E+01 -0.70281490234E+03  0.70906527535E+03  0.92515168481E+02 0.  0.
         13    1    3    3    0    0  0.11619215458E+02  0.60208163634E+01 -0.12408839000E+02  0.18034291859E+02  0.00000000000E+00 0.  1.
        -13    1    3    3    0    0 -0.25784038636E+02 -0.14087980591E+02 -0.69040606334E+03  0.69103098349E+03  0.00000000000E+00 0. -1.
         22    1    1    2    0    0  0.14164823179E+02  0.80671642280E+01 -0.47845663285E+02  0.50546304015E+02  0.00000000000E+00 0. -1.
<mgrwt>
<rscale>  0 0.60630650E+02</rscale>
<asrwt>0</asrwt>
<pdfrwt beam="1">  1        2 0.11617484E+00 0.93940288E+02</pdfrwt>
<pdfrwt beam="2">  1       -2 0.68853919E-03 0.93940288E+02</pdfrwt>
<totfact> 0.12240437E+05</totfact>
</mgrwt>
</event>
<event>
 6    1  0.2866116E-002  0.9964681E+02  0.7546771E-02  0.1328963E+00
          2   -1    0    0  501    0  0.00000000000E+00  0.00000000000E+00  0.14082288698E+04  0.14082288698E+04  0.00000000000E+00 0. -1.
         -2   -1    0    0    0  501 -0.00000000000E+00 -0.00000000000E+00 -0.40996343551E+01  0.40996343551E+01  0.00000000000E+00 0.  1.
         23    2    1    2    0    0 -0.13528699145E+02 -0.39192350703E+02  0.11938035259E+04  0.11979550679E+04  0.90611369736E+02 0.  0.
         13    1    3    3    0    0 -0.31129720474E+02  0.18751735736E+02  0.32034710201E+03  0.32240184996E+03  0.00000000000E+00 0.  1.
        -13    1    3    3    0    0  0.17601021329E+02 -0.57944086438E+02  0.87345642385E+03  0.87555321795E+03  0.00000000000E+00 0. -1.
         22    1    1    2    0    0  0.13528699145E+02  0.39192350703E+02  0.21032570955E+03  0.21437343621E+03  0.00000000000E+00 0.  1.
<mgrwt>
<rscale>  0 0.80031161E+02</rscale>
<asrwt>0</asrwt>
<pdfrwt beam="1">  1        2 0.21665021E+00 0.99646808E+02</pdfrwt>
<pdfrwt beam="2">  1       -2 0.63071410E-03 0.99646808E+02</pdfrwt>
<totfact> 0.58377311E+04</totfact>
</mgrwt>
</event>
<event>
 6    1  0.2866116E-002  0.1000124E+03  0.7546771E-02  0.1336897E+00
          2   -1    0    0  501    0  0.00000000000E+00  0.00000000000E+00  0.45923017890E+03  0.45923017890E+03  0.00000000000E+00 0. -1.
         -2   -1    0    0    0  501 -0.00000000000E+00 -0.00000000000E+00 -0.10189130947E+02  0.10189130947E+02  0.00000000000E+00 0.  1.
         23    2    1    2    0    0 -0.23447978862E+02  0.26904100434E+02  0.35554273756E+03  0.36934147823E+03  0.93428320029E+02 0.  0.
         13    1    3    3    0    0  0.35894881394E+02  0.87013404073E+01  0.10824969772E+03  0.11437723940E+03  0.00000000000E+00 0.  1.
        -13    1    3    3    0    0 -0.59342860257E+02  0.18202760027E+02  0.24729303984E+03  0.25496423884E+03  0.00000000000E+00 0. -1.
         22    1    1    2    0    0  0.23447978862E+02 -0.26904100434E+02  0.93498310393E+02  0.10007783161E+03  0.00000000000E+00 0. -1.
<mgrwt>
<rscale>  0 0.77298542E+02</rscale>
<asrwt>0</asrwt>
<pdfrwt beam="1">  1        2 0.70650781E-01 0.10001245E+03</pdfrwt>
<pdfrwt beam="2">  1       -2 0.15675590E-02 0.10001245E+03</pdfrwt>
<totfact> 0.67139677E+04</totfact>
</mgrwt>
</event>
<event>
 6    1  0.2866116E-002  0.9853906E+02  0.7546771E-02  0.1400946E+00
         -2   -1    0    0    0  501 -0.00000000000E+00  0.00000000000E+00  0.92997515444E+02  0.92997515444E+02  0.00000000000E+00 0.  1.
          2   -1    0    0  501    0  0.00000000000E+00 -0.00000000000E+00 -0.50726905185E+02  0.50726905185E+02  0.00000000000E+00 0. -1.
         23    2    1    2    0    0 -0.86844971679E+01  0.95288112027E+01 -0.10307821398E+01  0.98544454741E+02  0.97692007423E+02 0.  0.
         13    1    3    3    0    0 -0.49102721374E+02  0.24294695439E+02  0.53424468357E+01  0.55044084250E+02  0.00000000000E+00 0. -1.
        -13    1    3    3    0    0  0.40418224206E+02 -0.14765884237E+02 -0.63732289755E+01  0.43500370490E+02  0.00000000000E+00 0.  1.
         22    1    1    2    0    0  0.86844971679E+01 -0.95288112027E+01  0.43301392399E+02  0.45179965889E+02  0.00000000000E+00 0.  1.
<mgrwt>
<rscale>  0 0.59264049E+02</rscale>
<asrwt>0</asrwt>
<pdfrwt beam="1">  1        2 0.78041393E-02 0.98539064E+02</pdfrwt>
<pdfrwt beam="2">  1       -2 0.14307310E-01 0.98539064E+02</pdfrwt>
<totfact> 0.28716640E+04</totfact>
</mgrwt>
</event>
<event>
 6    1  0.2866116E-002  0.9438024E+02  0.7546771E-02  0.1405451E+00
          2   -1    0    0  501    0  0.00000000000E+00  0.00000000000E+00  0.10174041829E+04  0.10174041829E+04  0.00000000000E+00 0. -1.
         -2   -1    0    0    0  501 -0.00000000000E+00 -0.00000000000E+00 -0.31558436130E+01  0.31558436130E+01  0.00000000000E+00 0.  1.
         23    2    1    2    0    0  0.13659862020E+02  0.45532165346E+00  0.95953422227E+03  0.96416469205E+03  0.93385387202E+02 0.  0.
         11    1    3    3    0    0 -0.15368267198E+02  0.26466679753E+02  0.77280873391E+03  0.77341451239E+03  0.00000000000E+00 0. -1.
        -11    1    3    3    0    0  0.29028129218E+02 -0.26011358100E+02  0.18672548836E+03  0.19075017966E+03  0.00000000000E+00 0.  1.
         22    1    1    2    0    0 -0.13659862020E+02 -0.45532165346E+00  0.54714117056E+02  0.56395334501E+02  0.00000000000E+00 0. -1.
<mgrwt>
<rscale>  0 0.58221403E+02</rscale>
<asrwt>0</asrwt>
<pdfrwt beam="1">  1        2 0.15652346E+00 0.94380240E+02</pdfrwt>
<pdfrwt beam="2">  1       -2 0.48551521E-03 0.94380240E+02</pdfrwt>
<totfact> 0.13689402E+05</totfact>
</mgrwt>
</event>
<event>
 6    1  0.2866116E-002  0.9307962E+02  0.7546771E-02  0.1409168E+00
          2   -1    0    0  501    0  0.00000000000E+00  0.00000000000E+00  0.85292603550E+03  0.85292603550E+03  0.00000000000E+00 0. -1.
         -2   -1    0    0    0  501 -0.00000000000E+00 -0.00000000000E+00 -0.73197628388E+01  0.73197628388E+01  0.00000000000E+00 0.  1.
         23    2    1    2    0    0  0.20811495802E+01  0.13280223890E+02  0.84085108180E+03  0.84598720899E+03  0.92103857009E+02 0.  0.
         11    1    3    3    0    0  0.17452987277E+02 -0.51531790693E+01  0.78483013394E+03  0.78504108246E+03  0.00000000000E+00 0. -1.
        -11    1    3    3    0    0 -0.15371837697E+02  0.18433402959E+02  0.56020947861E+02  0.60946126523E+02  0.00000000000E+00 0.  1.
         22    1    1    2    0    0 -0.20811495802E+01 -0.13280223890E+02  0.47551908597E+01  0.14258589350E+02  0.00000000000E+00 0.  1.
<mgrwt>
<rscale>  0 0.57379847E+02</rscale>
<asrwt>0</asrwt>
<pdfrwt beam="1">  1        2 0.13121931E+00 0.93079622E+02</pdfrwt>
<pdfrwt beam="2">  1       -2 0.11261180E-02 0.93079622E+02</pdfrwt>
<totfact> 0.52534092E+04</totfact>
</mgrwt>
</event>
<event>
 6    1  0.2866116E-002  0.9058697E+02  0.7546771E-02  0.1406319E+00
         -2   -1    0    0    0  501 -0.00000000000E+00  0.00000000000E+00  0.27623898688E+01  0.27623898688E+01  0.00000000000E+00 0.  1.
          2   -1    0    0  501    0  0.00000000000E+00 -0.00000000000E+00 -0.13228631268E+04  0.13228631268E+04  0.00000000000E+00 0. -1.
         23    2    1    2    0    0 -0.15146967936E+02  0.17538717563E+01 -0.12707047928E+04  0.12739296174E+04  0.89294417299E+02 0.  0.
         11    1    3    3    0    0  0.32514051061E+02 -0.11022855198E+02 -0.77874526911E+03  0.77950167480E+03  0.00000000000E+00 0. -1.
        -11    1    3    3    0    0 -0.47661018997E+02  0.12776726955E+02 -0.49195952372E+03  0.49442794264E+03  0.00000000000E+00 0.  1.
         22    1    1    2    0    0  0.15146967936E+02 -0.17538717563E+01 -0.49395944134E+02  0.51695899264E+02  0.00000000000E+00 0. -1.
<mgrwt>
<rscale>  0 0.58023476E+02</rscale>
<asrwt>0</asrwt>
<pdfrwt beam="1">  1        2 0.20351725E+00 0.90586973E+02</pdfrwt>
<pdfrwt beam="2">  1       -2 0.42498337E-03 0.90586973E+02</pdfrwt>
<totfact> 0.11140685E+05</totfact>
</mgrwt>
</event>
<event>
 6    1  0.2866116E-002  0.9214145E+02  0.7546771E-02  0.1405206E+00
         -2   -1    0    0    0  501 -0.00000000000E+00  0.00000000000E+00  0.17272257145E+02  0.17272257145E+02  0.00000000000E+00 0. -1.
          2   -1    0    0  501    0  0.00000000000E+00 -0.00000000000E+00 -0.18390912427E+03  0.18390912427E+03  0.00000000000E+00 0.  1.
         23    2    1    2    0    0 -0.38753996693E+00 -0.14739647386E+02 -0.16078955385E+03  0.18531952576E+03  0.90954046690E+02 0.  0.
         11    1    3    3    0    0 -0.35930560799E+02  0.64565618902E+01 -0.27363137894E+02  0.45622732341E+02  0.00000000000E+00 0. -1.
        -11    1    3    3    0    0  0.35543020833E+02 -0.21196209276E+02 -0.13342641596E+03  0.13969679342E+03  0.00000000000E+00 0.  1.
         22    1    1    2    0    0  0.38753996693E+00  0.14739647386E+02 -0.58473132786E+01  0.15861855656E+02  0.00000000000E+00 0. -1.
<mgrwt>
<rscale>  0 0.58277452E+02</rscale>
<asrwt>0</asrwt>
<pdfrwt beam="1">  1        2 0.28293713E-01 0.92141446E+02</pdfrwt>
<pdfrwt beam="2">  1       -2 0.26572702E-02 0.92141446E+02</pdfrwt>
<totfact> 0.81622127E+04</totfact>
</mgrwt>
</event>
<event>
 6    1  0.2866116E-002  0.1023488E+03  0.7546771E-02  0.1328289E+00
         -2   -1    0    0    0  501 -0.00000000000E+00  0.00000000000E+00  0.17327612575E+02  0.17327612575E+02  0.00000000000E+00 0.  1.
          2   -1    0    0  501    0  0.00000000000E+00 -0.00000000000E+00 -0.32711345435E+03  0.32711345435E+03  0.00000000000E+00 0. -1.
         23    2    1    2    0    0  0.32940729656E+02  0.20353307268E+02 -0.27078873708E+03  0.28948542152E+03  0.94741333947E+02 0.  0.
         13    1    3    3    0    0  0.28176788759E+02  0.57593086766E+02 -0.18650490125E+03  0.19721808553E+03  0.00000000000E+00 0. -1.
        -13    1    3    3    0    0  0.47639408970E+01 -0.37239779498E+02 -0.84283835832E+02  0.92267335999E+02  0.00000000000E+00 0.  1.
         22    1    1    2    0    0 -0.32940729656E+02 -0.20353307268E+02 -0.38997104696E+02  0.54955645403E+02  0.00000000000E+00 0.  1.
<mgrwt>
<rscale>  0 0.80269356E+02</rscale>
<asrwt>0</asrwt>
<pdfrwt beam="1">  1        2 0.50325146E-01 0.10234876E+03</pdfrwt>
<pdfrwt beam="2">  1       -2 0.26657866E-02 0.10234876E+03</pdfrwt>
<totfact> 0.44828343E+04</totfact>
</mgrwt>
</event>
<event>
 6    1  0.2866116E-002  0.9671382E+02  0.7546771E-02  0.1353592E+00
          2   -1    0    0  501    0  0.00000000000E+00  0.00000000000E+00  0.14744830012E+03  0.14744830012E+03  0.00000000000E+00 0. -1.
         -2   -1    0    0    0  501 -0.00000000000E+00 -0.00000000000E+00 -0.42229698806E+02  0.42229698806E+02  0.00000000000E+00 0.  1.
         23    2    1    2    0    0  0.29177366448E+02  0.51099684859E+01  0.12196008081E+03  0.15565289604E+03  0.92065912488E+02 0.  0.
         13    1    3    3    0    0  0.54939729759E+02 -0.21650898167E+02  0.82535425958E+02  0.10148513110E+03  0.00000000000E+00 0. -1.
        -13    1    3    3    0    0 -0.25762363311E+02  0.26760866652E+02  0.39424654856E+02  0.54167764933E+02  0.00000000000E+00 0.  1.
         22    1    1    2    0    0 -0.29177366448E+02 -0.51099684859E+01 -0.16741479499E+02  0.34025102888E+02  0.00000000000E+00 0.  1.
<mgrwt>
<rscale>  0 0.71947878E+02</rscale>
<asrwt>0</asrwt>
<pdfrwt beam="1">  1        2 0.22684354E-01 0.96713819E+02</pdfrwt>
<pdfrwt beam="2">  1       -2 0.64968768E-02 0.96713819E+02</pdfrwt>
<totfact> 0.27926334E+04</totfact>
</mgrwt>
</event>
<event>
 6    1  0.2866116E-002  0.9276261E+02  0.7546771E-02  0.1394324E+00
         -1   -1    0    0    0  501 -0.00000000000E+00  0.00000000000E+00  0.90489628639E+01  0.90489628639E+01  0.00000000000E+00 0.  1.
          1   -1    0    0  501    0  0.00000000000E+00 -0.00000000000E+00 -0.34320027583E+03  0.34320027583E+03  0.00000000000E+00 0. -1.
         23    2    1    2    0    0  0.91473743747E+01 -0.14529579492E+02 -0.30017286789E+03  0.31417933105E+03  0.91159850284E+02 0.  0.
         11    1    3    3    0    0  0.40467078407E+02 -0.14779009544E+02 -0.25841017326E+03  0.26197675699E+03  0.00000000000E+00 0. -1.
        -11    1    3    3    0    0 -0.31319704033E+02  0.24943005204E+00 -0.41762694636E+02  0.52202574068E+02  0.00000000000E+00 0.  1.
         22    1    1    2    0    0 -0.91473743747E+01  0.14529579492E+02 -0.33978445073E+02  0.38069907640E+02  0.00000000000E+00 0. -1.
<mgrwt>
<rscale>  0 0.60843970E+02</rscale>
<asrwt>0</asrwt>
<pdfrwt beam="1">  1        1 0.52800045E-01 0.92762608E+02</pdfrwt>
<pdfrwt beam="2">  1       -1 0.13921481E-02 0.92762608E+02</pdfrwt>
<totfact> 0.74647783E+04</totfact>
</mgrwt>
</event>
<event>
 6    1  0.2866116E-002  0.9141481E+02  0.7546771E-02  0.1423274E+00
         -2   -1    0    0    0  501 -0.00000000000E+00  0.00000000000E+00  0.15413058428E+02  0.15413058428E+02  0.00000000000E+00 0. -1.
          2   -1    0    0  501    0  0.00000000000E+00 -0.00000000000E+00 -0.29952310295E+03  0.29952310295E+03  0.00000000000E+00 0.  1.
         23    2    1    2    0    0  0.11319094303E+02  0.14288447301E+01 -0.28855719682E+03  0.30269113559E+03  0.90700078461E+02 0.  0.
         13    1    3    3    0    0  0.26402004393E+01  0.43182505248E+02 -0.93465568267E+02  0.10299277581E+03  0.00000000000E+00 0. -1.
        -13    1    3    3    0    0  0.86788938635E+01 -0.41753660518E+02 -0.19509162855E+03  0.19969835977E+03  0.00000000000E+00 0.  1.
         22    1    1    2    0    0 -0.11319094303E+02 -0.14288447301E+01  0.44471522979E+01  0.12245025793E+02  0.00000000000E+00 0.  1.
<mgrwt>
<rscale>  0 0.54334237E+02</rscale>
<asrwt>0</asrwt>
<pdfrwt beam="1">  1        2 0.46080479E-01 0.91414811E+02</pdfrwt>
<pdfrwt beam="2">  1       -2 0.23712397E-02 0.91414811E+02</pdfrwt>
<totfact> 0.57413644E+04</totfact>
</mgrwt>
</event>
<event>
 6    1  0.2866116E-002  0.9805480E+02  0.7546771E-02  0.1364484E+00
         -2   -1    0    0    0  501 -0.00000000000E+00  0.00000000000E+00  0.32777283196E+03  0.32777283196E+03  0.00000000000E+00 0.  1.
          2   -1    0    0  501    0  0.00000000000E+00 -0.00000000000E+00 -0.11523942542E+02  0.11523942542E+02  0.00000000000E+00 0. -1.
         23    2    1    2    0    0 -0.41182390436E+01 -0.23300564729E+02  0.23404951811E+03  0.25375957293E+03  0.95157068661E+02 0.  0.
         11    1    3    3    0    0  0.74091622007E+01  0.27139285695E+02  0.22641022913E+02  0.36111666136E+02  0.00000000000E+00 0. -1.
        -11    1    3    3    0    0 -0.11527401244E+02 -0.50439850423E+02  0.21140849520E+03  0.21764790679E+03  0.00000000000E+00 0.  1.
         22    1    1    2    0    0  0.41182390436E+01  0.23300564729E+02  0.82199371309E+02  0.85537201574E+02  0.00000000000E+00 0. -1.
<mgrwt>
<rscale>  0 0.68724747E+02</rscale>
<asrwt>0</asrwt>
<pdfrwt beam="1">  1        2 0.17729145E-02 0.98054801E+02</pdfrwt>
<pdfrwt beam="2">  1       -2 0.50426582E-01 0.98054801E+02</pdfrwt>
<totfact> 0.21679066E+04</totfact>
</mgrwt>
</event>
<event>
 6    1  0.2866116E-002  0.9132118E+02  0.7546771E-02  0.1430908E+00
          4   -1    0    0  501    0  0.00000000000E+00  0.00000000000E+00  0.39315960786E+03  0.39315960786E+03  0.00000000000E+00 0. -1.
         -4   -1    0    0    0  501 -0.00000000000E+00 -0.00000000000E+00 -0.19463006225E+02  0.19463006225E+02  0.00000000000E+00 0.  1.
         23    2    1    2    0    0 -0.10186236534E+02 -0.20841369584E+00  0.38599592972E+03  0.39665150511E+03  0.90751065526E+02 0.  0.
         11    1    3    3    0    0 -0.52747601147E+01  0.14447652250E+02  0.37961927852E+03  0.37993072312E+03  0.00000000000E+00 0. -1.
        -11    1    3    3    0    0 -0.49114764191E+01 -0.14656065946E+02  0.63766511988E+01  0.16720781984E+02  0.00000000000E+00 0.  1.
         22    1    1    2    0    0  0.10186236534E+02  0.20841369584E+00 -0.12299328077E+02  0.15971108983E+02  0.00000000000E+00 0. -1.
<mgrwt>
<rscale>  0 0.52778229E+02</rscale>
<asrwt>0</asrwt>
<pdfrwt beam="1">  1        4 0.60486088E-01 0.91321185E+02</pdfrwt>
<pdfrwt beam="2">  1       -4 0.29943089E-02 0.91321185E+02</pdfrwt>
<totfact> 0.21074005E+03</totfact>
</mgrwt>
</event>
<event>
 6    1  0.2866116E-002  0.9228392E+02  0.7546771E-02  0.1422600E+00
         -4   -1    0    0    0  501 -0.00000000000E+00  0.00000000000E+00  0.83060235662E+02  0.83060235662E+02  0.00000000000E+00 0.  1.
          4   -1    0    0  501    0  0.00000000000E+00 -0.00000000000E+00 -0.38271822970E+02  0.38271822970E+02  0.00000000000E+00 0. -1.
         23    2    1    2    0    0 -0.11135275834E+02  0.12455760618E+01  0.20427308503E+02  0.94517711260E+02  0.91601184390E+02 0.  0.
         13    1    3    3    0    0 -0.44031721817E+02 -0.34359674394E+01  0.36788294975E+02  0.57480231781E+02  0.00000000000E+00 0.  1.
        -13    1    3    3    0    0  0.32896445983E+02  0.46815435012E+01 -0.16360986472E+02  0.37037479480E+02  0.00000000000E+00 0. -1.
         22    1    1    2    0    0  0.11135275834E+02 -0.12455760618E+01  0.24361104189E+02  0.26814347371E+02  0.00000000000E+00 0. -1.
<mgrwt>
<rscale>  0 0.54474698E+02</rscale>
<asrwt>0</asrwt>
<pdfrwt beam="1">  1        4 0.58879728E-02 0.92283925E+02</pdfrwt>
<pdfrwt beam="2">  1       -4 0.12778498E-01 0.92283925E+02</pdfrwt>
<totfact> 0.13262038E+04</totfact>
</mgrwt>
</event>
<event>
 6    1  0.2866116E-002  0.1021322E+03  0.7546771E-02  0.1405010E+00
         -2   -1    0    0    0  501 -0.00000000000E+00  0.00000000000E+00  0.12837664891E+02  0.12837664891E+02  0.00000000000E+00 0.  1.
          2   -1    0    0  501    0  0.00000000000E+00 -0.00000000000E+00 -0.48231024652E+03  0.48231024652E+03  0.00000000000E+00 0. -1.
         23    2    1    2    0    0  0.10184526918E+02  0.37716919020E+01 -0.47286584610E+03  0.48376966496E+03  0.10155308998E+03 0.  0.
         13    1    3    3    0    0  0.11768197537E+02  0.26059772753E+02 -0.45290882156E+03  0.45381053632E+03  0.00000000000E+00 0. -1.
        -13    1    3    3    0    0 -0.15836706192E+01 -0.22288080851E+02 -0.19957024544E+02  0.29959128648E+02  0.00000000000E+00 0.  1.
         22    1    1    2    0    0 -0.10184526918E+02 -0.37716919020E+01  0.33932644734E+01  0.11378246443E+02  0.00000000000E+00 0.  1.
<mgrwt>
<rscale>  0 0.58322251E+02</rscale>
<asrwt>0</asrwt>
<pdfrwt beam="1">  1        2 0.74201577E-01 0.10213217E+03</pdfrwt>
<pdfrwt beam="2">  1       -2 0.19750253E-02 0.10213217E+03</pdfrwt>
<totfact> 0.45825286E+04</totfact>
</mgrwt>
</event>
<event>
 6    1  0.2866116E-002  0.9009236E+02  0.7546771E-02  0.1414987E+00
         -2   -1    0    0    0  501 -0.00000000000E+00  0.00000000000E+00  0.15967999191E+02  0.15967999191E+02  0.00000000000E+00 0.  1.
          2   -1    0    0  501    0  0.00000000000E+00 -0.00000000000E+00 -0.64165037865E+03  0.64165037865E+03  0.00000000000E+00 0. -1.
         23    2    1    2    0    0  0.13405964613E+02 -0.19080970985E+01 -0.63488553421E+03  0.64124587714E+03  0.89068920955E+02 0.  0.
         13    1    3    3    0    0  0.13906692124E+02 -0.35063614020E+02 -0.13242933182E+03  0.13769669945E+03  0.00000000000E+00 0.  1.
        -13    1    3    3    0    0 -0.50072751141E+00  0.33155516921E+02 -0.50245620239E+03  0.50354917769E+03  0.00000000000E+00 0. -1.
         22    1    1    2    0    0 -0.13405964613E+02  0.19080970985E+01  0.92031547517E+01  0.16372500699E+02  0.00000000000E+00 0.  1.
<mgrwt>
<rscale>  0 0.56095660E+02</rscale>
<asrwt>0</asrwt>
<pdfrwt beam="1">  1        2 0.98715445E-01 0.90092360E+02</pdfrwt>
<pdfrwt beam="2">  1       -2 0.24566152E-02 0.90092360E+02</pdfrwt>
<totfact> 0.24068998E+04</totfact>
</mgrwt>
</event>
<event>
 6    1  0.2866116E-002  0.9277326E+02  0.7546771E-02  0.1425160E+00
          1   -1    0    0  501    0  0.00000000000E+00  0.00000000000E+00  0.13228129880E+04  0.13228129880E+04  0.00000000000E+00 0. -1.
         -1   -1    0    0    0  501 -0.00000000000E+00 -0.00000000000E+00 -0.41737428305E+01  0.41737428305E+01  0.00000000000E+00 0.  1.
         23    2    1    2    0    0  0.97146016680E+01  0.42529530009E+01  0.13100745687E+04  0.13133553414E+04  0.92165156693E+02 0.  0.
         13    1    3    3    0    0  0.39382223791E+02 -0.28476163105E+02  0.68742272421E+03  0.68913848621E+03  0.00000000000E+00 0. -1.
        -13    1    3    3    0    0 -0.29667622123E+02  0.32729116106E+02  0.62265184447E+03  0.62421685516E+03  0.00000000000E+00 0.  1.
         22    1    1    2    0    0 -0.97146016680E+01 -0.42529530009E+01  0.85646764444E+01  0.13631389415E+02  0.00000000000E+00 0.  1.
<mgrwt>
<rscale>  0 0.53943906E+02</rscale>
<asrwt>0</asrwt>
<pdfrwt beam="1">  1        1 0.20350936E+00 0.92773257E+02</pdfrwt>
<pdfrwt beam="2">  1       -1 0.64211534E-03 0.92773257E+02</pdfrwt>
<totfact> 0.30955749E+04</totfact>
</mgrwt>
</event>
<event>
 6    1  0.2866116E-002  0.9027455E+02  0.7546771E-02  0.1411205E+00
         -2   -1    0    0    0  501 -0.00000000000E+00  0.00000000000E+00  0.81617515839E+02  0.81617515839E+02  0.00000000000E+00 0.  1.
          2   -1    0    0  501    0  0.00000000000E+00 -0.00000000000E+00 -0.44515890762E+02  0.44515890762E+02  0.00000000000E+00 0. -1.
         23    2    1    2    0    0 -0.13915669305E+02  0.31775394150E+01  0.43186789958E+01  0.90377789382E+02  0.89138943321E+02 0.  0.
         13    1    3    3    0    0 -0.20904077375E+02 -0.33329882881E+02  0.26178121383E+02  0.47256275593E+02  0.00000000000E+00 0.  1.
        -13    1    3    3    0    0  0.69884080699E+01  0.36507422296E+02 -0.21859442387E+02  0.43121513790E+02  0.00000000000E+00 0. -1.
         22    1    1    2    0    0  0.13915669305E+02 -0.31775394150E+01  0.32782946081E+02  0.35755617219E+02  0.00000000000E+00 0.  1.
<mgrwt>
<rscale>  0 0.56925810E+02</rscale>
<asrwt>0</asrwt>
<pdfrwt beam="1">  1        2 0.68485986E-02 0.90274547E+02</pdfrwt>
<pdfrwt beam="2">  1       -2 0.12556541E-01 0.90274547E+02</pdfrwt>
<totfact> 0.41203866E+04</totfact>
</mgrwt>
</event>
<event>
 6    1  0.2866116E-002  0.9486200E+02  0.7546771E-02  0.1399888E+00
         -1   -1    0    0    0  501 -0.00000000000E+00  0.00000000000E+00  0.50625092231E+02  0.50625092231E+02  0.00000000000E+00 0.  1.
          1   -1    0    0  501    0  0.00000000000E+00 -0.00000000000E+00 -0.26630954182E+03  0.26630954182E+03  0.00000000000E+00 0. -1.
         23    2    1    2    0    0 -0.11789841906E+02  0.87711297233E+01 -0.25653986789E+03  0.27351691540E+03  0.93716946719E+02 0.  0.
         13    1    3    3    0    0  0.14403610870E+02 -0.28689592544E+02 -0.35763001276E+02  0.48057767184E+02  0.00000000000E+00 0.  1.
        -13    1    3    3    0    0 -0.26193452775E+02  0.37460722267E+02 -0.22077686662E+03  0.22545914822E+03  0.00000000000E+00 0. -1.
         22    1    1    2    0    0  0.11789841906E+02 -0.87711297233E+01  0.40855418300E+02  0.43417718655E+02  0.00000000000E+00 0.  1.
<mgrwt>
<rscale>  0 0.59512625E+02</rscale>
<asrwt>0</asrwt>
<pdfrwt beam="1">  1        1 0.40970699E-01 0.94862001E+02</pdfrwt>
<pdfrwt beam="2">  1       -1 0.77884758E-02 0.94862001E+02</pdfrwt>
<totfact> 0.84274750E+03</totfact>
</mgrwt>
</event>
<event>
 6    1  0.2866116E-002  0.1028280E+03  0.7546771E-02  0.1380680E+00
          1   -1    0    0  501    0  0.00000000000E+00  0.00000000000E+00  0.76757323733E+03  0.76757323733E+03  0.00000000000E+00 0. -1.
         -1   -1    0    0    0  501 -0.00000000000E+00 -0.00000000000E+00 -0.60427034068E+01  0.60427034068E+01  0.00000000000E+00 0.  1.
         23    2    1    2    0    0 -0.55143461336E+01 -0.14707933824E+02  0.73917931102E+03  0.74629729333E+03  0.10162118316E+03 0.  0.
         13    1    3    3    0    0 -0.38270134083E+02  0.28888782296E+02  0.37660440153E+03  0.37964462351E+03  0.00000000000E+00 0. -1.
        -13    1    3    3    0    0  0.32755787949E+02 -0.43596716120E+02  0.36257490948E+03  0.36665266982E+03  0.00000000000E+00 0.  1.
         22    1    1    2    0    0  0.55143461336E+01  0.14707933824E+02  0.22351222907E+02  0.27318647406E+02  0.00000000000E+00 0.  1.
<mgrwt>
<rscale>  0 0.64285283E+02</rscale>
<asrwt>0</asrwt>
<pdfrwt beam="1">  1        1 0.11808811E+00 0.10282799E+03</pdfrwt>
<pdfrwt beam="2">  1       -1 0.92964728E-03 0.10282799E+03</pdfrwt>
<totfact> 0.46612285E+04</totfact>
</mgrwt>
</event>
<event>
 6    1  0.2866116E-002  0.1072851E+03  0.7546771E-02  0.1299928E+00
          1   -1    0    0  501    0  0.00000000000E+00  0.00000000000E+00  0.87872327777E+03  0.87872327777E+03  0.00000000000E+00 0. -1.
         -1   -1    0    0    0  501 -0.00000000000E+00 -0.00000000000E+00 -0.83207967824E+01  0.83207967824E+01  0.00000000000E+00 0.  1.
         23    2    1    2    0    0  0.47593281720E+02  0.29637316243E+02  0.68496476064E+03  0.69331581356E+03  0.91469137070E+02 0.  0.
         13    1    3    3    0    0 -0.54498323484E+01  0.30082074885E+02  0.49894572108E+03  0.49988145043E+03  0.00000000000E+00 0. -1.
        -13    1    3    3    0    0  0.53043114068E+02 -0.44475864187E+00  0.18601903956E+03  0.19343436313E+03  0.00000000000E+00 0.  1.
         22    1    1    2    0    0 -0.47593281720E+02 -0.29637316243E+02  0.18543772035E+03  0.19372826099E+03  0.00000000000E+00 0.  1.
<mgrwt>
<rscale>  0 0.91218117E+02</rscale>
<asrwt>0</asrwt>
<pdfrwt beam="1">  1        1 0.13518812E+00 0.10728511E+03</pdfrwt>
<pdfrwt beam="2">  1       -1 0.12801233E-02 0.10728511E+03</pdfrwt>
<totfact> 0.24250341E+04</totfact>
</mgrwt>
</event>
<event>
 6    1  0.2866116E-002  0.9211113E+02  0.7546771E-02  0.1394653E+00
         -2   -1    0    0    0  501 -0.00000000000E+00  0.00000000000E+00  0.14102578984E+02  0.14102578984E+02  0.00000000000E+00 0.  1.
          2   -1    0    0  501    0  0.00000000000E+00 -0.00000000000E+00 -0.22513410167E+03  0.22513410167E+03  0.00000000000E+00 0. -1.
         23    2    1    2    0    0  0.16708811091E+02 -0.50116565827E+01 -0.19447682467E+03  0.21518758304E+03  0.90444234145E+02 0.  0.
         13    1    3    3    0    0 -0.32656800475E+02  0.18270833907E+02 -0.84312205103E+02  0.92243362462E+02  0.00000000000E+00 0. -1.
        -13    1    3    3    0    0  0.49365611566E+02 -0.23282490489E+02 -0.11016461957E+03  0.12294422058E+03  0.00000000000E+00 0.  1.
         22    1    1    2    0    0 -0.16708811091E+02  0.50116565827E+01 -0.16554698021E+02  0.24049097621E+02  0.00000000000E+00 0. -1.
<mgrwt>
<rscale>  0 0.60764093E+02</rscale>
<asrwt>0</asrwt>
<pdfrwt beam="1">  1        2 0.34636015E-01 0.92111132E+02</pdfrwt>
<pdfrwt beam="2">  1       -2 0.21696275E-02 0.92111132E+02</pdfrwt>
<totfact> 0.88165740E+04</totfact>
</mgrwt>
</event>
<event>
 6    1  0.2866116E-002  0.1007866E+03  0.7546771E-02  0.1349417E+00
         -1   -1    0    0    0  501 -0.00000000000E+00  0.00000000000E+00  0.17135441125E+03  0.17135441125E+03  0.00000000000E+00 0.  1.
          1   -1    0    0  501    0  0.00000000000E+00 -0.00000000000E+00 -0.36610068495E+02  0.36610068495E+02  0.00000000000E+00 0. -1.
         23    2    1    2    0    0 -0.29564201337E+01  0.27945638710E+02  0.38812918172E+02  0.10800179988E+03  0.96789705124E+02 0.  0.
         11    1    3    3    0    0  0.44311491176E+02  0.19503238308E+02  0.35185570362E+02  0.59849051090E+02  0.00000000000E+00 0.  1.
        -11    1    3    3    0    0 -0.47267911310E+02  0.84424004020E+01  0.36273478105E+01  0.48152748792E+02  0.00000000000E+00 0. -1.
         22    1    1    2    0    0  0.29564201337E+01 -0.27945638710E+02  0.95931424583E+02  0.99962679864E+02  0.00000000000E+00 0.  1.
<mgrwt>
<rscale>  0 0.73237738E+02</rscale>
<asrwt>0</asrwt>
<pdfrwt beam="1">  1        1 0.56323183E-02 0.10078664E+03</pdfrwt>
<pdfrwt beam="2">  1       -1 0.26362217E-01 0.10078664E+03</pdfrwt>
<totfact> 0.16193597E+04</totfact>
</mgrwt>
</event>
<event>
 6    1  0.2866116E-002  0.1010728E+03  0.7546771E-02  0.1326294E+00
         -3   -1    0    0    0  501 -0.00000000000E+00  0.00000000000E+00  0.33968629008E+03  0.33968629008E+03  0.00000000000E+00 0.  1.
          3   -1    0    0  501    0  0.00000000000E+00 -0.00000000000E+00 -0.21216317752E+02  0.21216317752E+02  0.00000000000E+00 0. -1.
         23    2    1    2    0    0  0.87907507618E+01 -0.40710129874E+02  0.11451918368E+03  0.15274277462E+03  0.92092995359E+02 0.  0.
         11    1    3    3    0    0  0.15621986147E+00 -0.11005573029E+02 -0.15546905118E+02  0.19048708646E+02  0.00000000000E+00 0. -1.
        -11    1    3    3    0    0  0.86345309003E+01 -0.29704556845E+02  0.13006608880E+03  0.13369406597E+03  0.00000000000E+00 0.  1.
         22    1    1    2    0    0 -0.87907507618E+01  0.40710129874E+02  0.20395078865E+03  0.20815983321E+03  0.00000000000E+00 0.  1.
<mgrwt>
<rscale>  0 0.80979558E+02</rscale>
<asrwt>0</asrwt>
<pdfrwt beam="1">  1        3 0.32640491E-02 0.10107280E+03</pdfrwt>
<pdfrwt beam="2">  1       -3 0.52259425E-01 0.10107280E+03</pdfrwt>
<totfact> 0.35161719E+03</totfact>
</mgrwt>
</event>
<event>
 6    1  0.2866116E-002  0.9300089E+02  0.7546771E-02  0.1370277E+00
          4   -1    0    0  501    0  0.00000000000E+00  0.00000000000E+00  0.18068988057E+02  0.18068988057E+02  0.00000000000E+00 0. -1.
         -4   -1    0    0    0  501 -0.00000000000E+00 -0.00000000000E+00 -0.19718062828E+03  0.19718062828E+03  0.00000000000E+00 0.  1.
         23    2    1    2    0    0  0.15129906721E+01  0.25141580619E+02 -0.15240282363E+03  0.17853791384E+03  0.89525291449E+02 0.  0.
         13    1    3    3    0    0  0.16421747980E+02  0.23208615392E+02 -0.32348512523E+01  0.28614295340E+02  0.00000000000E+00 0. -1.
        -13    1    3    3    0    0 -0.14908757308E+02  0.19329652262E+01 -0.14916797238E+03  0.14992361850E+03  0.00000000000E+00 0.  1.
         22    1    1    2    0    0 -0.15129906721E+01 -0.25141580619E+02 -0.26708816588E+02  0.36711702498E+02  0.00000000000E+00 0.  1.
<mgrwt>
<rscale>  0 0.67090299E+02</rscale>
<asrwt>0</asrwt>
<pdfrwt beam="1">  1        4 0.27798444E-02 0.93000893E+02</pdfrwt>
<pdfrwt beam="2">  1       -4 0.30335480E-01 0.93000893E+02</pdfrwt>
<totfact> 0.92834837E+03</totfact>
</mgrwt>
</event>
<event>
 6    1  0.2866116E-002  0.9026797E+02  0.7546771E-02  0.1428530E+00
         -1   -1    0    0    0  501 -0.00000000000E+00  0.00000000000E+00  0.20025950109E+03  0.20025950109E+03  0.00000000000E+00 0.  1.
          1   -1    0    0  501    0  0.00000000000E+00 -0.00000000000E+00 -0.13699494324E+02  0.13699494324E+02  0.00000000000E+00 0. -1.
         23    2    1    2    0    0 -0.37209574672E+01  0.10284038925E+02  0.14348819372E+03  0.16952040790E+03  0.89603013213E+02 0.  0.
         13    1    3    3    0    0 -0.33209941114E+02  0.45420705408E+01  0.13382930480E+03  0.13796308716E+03  0.00000000000E+00 0.  1.
        -13    1    3    3    0    0  0.29488983647E+02  0.57419683839E+01  0.96588889160E+01  0.31557320744E+02  0.00000000000E+00 0. -1.
         22    1    1    2    0    0  0.37209574672E+01 -0.10284038925E+02  0.43071813041E+02  0.44438587508E+02  0.00000000000E+00 0.  1.
<mgrwt>
<rscale>  0 0.53256158E+02</rscale>
<asrwt>0</asrwt>
<pdfrwt beam="1">  1        1 0.21076147E-02 0.90267973E+02</pdfrwt>
<pdfrwt beam="2">  1       -1 0.30809152E-01 0.90267973E+02</pdfrwt>
<totfact> 0.47243336E+04</totfact>
</mgrwt>
</event>
<event>
 6    1  0.2866116E-002  0.1560057E+03  0.7546771E-02  0.1203386E+00
         -2   -1    0    0    0  501 -0.00000000000E+00  0.00000000000E+00  0.16453132009E+02  0.16453132009E+02  0.00000000000E+00 0.  1.
          2   -1    0    0  501    0  0.00000000000E+00 -0.00000000000E+00 -0.21293629465E+04  0.21293629465E+04  0.00000000000E+00 0. -1.
         23    2    1    2    0    0  0.49302798458E+02  0.11506947833E+03 -0.18276453603E+04  0.18342915055E+04  0.93091424054E+02 0.  0.
         13    1    3    3    0    0  0.11126247714E+02  0.11357601548E+03 -0.15210156640E+04  0.15252907771E+04  0.00000000000E+00 0. -1.
        -13    1    3    3    0    0  0.38176550744E+02  0.14934628438E+01 -0.30662969636E+03  0.30900072839E+03  0.00000000000E+00 0.  1.
         22    1    1    2    0    0 -0.49302798458E+02 -0.11506947833E+03 -0.28526445410E+03  0.31152457295E+03  0.00000000000E+00 0.  1.
<mgrwt>
<rscale>  0 0.14765391E+03</rscale>
<asrwt>0</asrwt>
<pdfrwt beam="1">  1        2 0.32759436E+00 0.15600565E+03</pdfrwt>
<pdfrwt beam="2">  1       -2 0.25312506E-02 0.15600565E+03</pdfrwt>
<totfact> 0.34682283E+03</totfact>
</mgrwt>
</event>
<event>
 6    1  0.2866116E-002  0.9213736E+02  0.7546771E-02  0.1396436E+00
          4   -1    0    0  501    0  0.00000000000E+00  0.00000000000E+00  0.30126773268E+03  0.30126773268E+03  0.00000000000E+00 0. -1.
         -4   -1    0    0    0  501 -0.00000000000E+00 -0.00000000000E+00 -0.10128291036E+02  0.10128291036E+02  0.00000000000E+00 0.  1.
         23    2    1    2    0    0  0.13512418430E+02 -0.10218140426E+02  0.26149384363E+03  0.27725137073E+03  0.90566530641E+02 0.  0.
         11    1    3    3    0    0  0.30048161113E+02 -0.19589726343E+02  0.25447410851E+03  0.25698972989E+03  0.00000000000E+00 0. -1.
        -11    1    3    3    0    0 -0.16535742683E+02  0.93715859170E+01  0.70197351155E+01  0.20261640846E+02  0.00000000000E+00 0.  1.
         22    1    1    2    0    0 -0.13512418430E+02  0.10218140426E+02  0.29645598016E+02  0.34144652983E+02  0.00000000000E+00 0.  1.
<mgrwt>
<rscale>  0 0.60333881E+02</rscale>
<asrwt>0</asrwt>
<pdfrwt beam="1">  1        4 0.46348875E-01 0.92137356E+02</pdfrwt>
<pdfrwt beam="2">  1       -4 0.15581988E-02 0.92137356E+02</pdfrwt>
<totfact> 0.98917622E+03</totfact>
</mgrwt>
</event>
<event>
 6    1  0.2866116E-002  0.9209956E+02  0.7546771E-02  0.1405750E+00
          2   -1    0    0  501    0  0.00000000000E+00  0.00000000000E+00  0.29898638996E+04  0.29898638996E+04  0.00000000000E+00 0. -1.
         -2   -1    0    0    0  501 -0.00000000000E+00 -0.00000000000E+00 -0.16738435348E+01  0.16738435348E+01  0.00000000000E+00 0.  1.
         23    2    1    2    0    0  0.13749182955E+02  0.50268756528E+01  0.29328009915E+04  0.29342467492E+04  0.90928653540E+02 0.  0.
         13    1    3    3    0    0  0.17428495458E+02  0.45898390297E+02  0.12915551336E+04  0.12924879411E+04  0.00000000000E+00 0.  1.
        -13    1    3    3    0    0 -0.36793125026E+01 -0.40871514644E+02  0.16412458578E+04  0.16417588081E+04  0.00000000000E+00 0. -1.
         22    1    1    2    0    0 -0.13749182955E+02 -0.50268756528E+01  0.55389064578E+02  0.57290993931E+02  0.00000000000E+00 0.  1.
<mgrwt>
<rscale>  0 0.58153165E+02</rscale>
<asrwt>0</asrwt>
<pdfrwt beam="1">  1        2 0.45997479E+00 0.92099563E+02</pdfrwt>
<pdfrwt beam="2">  1       -2 0.25751678E-03 0.92099563E+02</pdfrwt>
<totfact> 0.30505323E+04</totfact>
</mgrwt>
</event>
<event>
 6    1  0.2866116E-002  0.9286829E+02  0.7546771E-02  0.1423087E+00
         -2   -1    0    0    0  501 -0.00000000000E+00  0.00000000000E+00  0.14155426505E+02  0.14155426505E+02  0.00000000000E+00 0.  1.
          2   -1    0    0  501    0  0.00000000000E+00 -0.00000000000E+00 -0.28734848883E+03  0.28734848883E+03  0.00000000000E+00 0. -1.
         23    2    1    2    0    0 -0.75261021895E+01 -0.79023773990E+01 -0.27516530798E+03  0.29041430147E+03  0.92224888162E+02 0.  0.
         11    1    3    3    0    0  0.27079790578E+01 -0.46633759119E+02 -0.19839674227E+03  0.20382175542E+03  0.00000000000E+00 0. -1.
        -11    1    3    3    0    0 -0.10234081247E+02  0.38731381720E+02 -0.76768565717E+02  0.86592546048E+02  0.00000000000E+00 0.  1.
         22    1    1    2    0    0  0.75261021895E+01  0.79023773990E+01  0.19722456606E+01  0.11089613865E+02  0.00000000000E+00 0.  1.
<mgrwt>
<rscale>  0 0.54373202E+02</rscale>
<asrwt>0</asrwt>
<pdfrwt beam="1">  1        2 0.44207460E-01 0.92868293E+02</pdfrwt>
<pdfrwt beam="2">  1       -2 0.21777579E-02 0.92868293E+02</pdfrwt>
<totfact> 0.67932720E+04</totfact>
</mgrwt>
</event>
<event>
 6    1  0.2866116E-002  0.9087538E+02  0.7546771E-02  0.1372143E+00
          2   -1    0    0  501    0  0.00000000000E+00  0.00000000000E+00  0.55324687543E+03  0.55324687543E+03  0.00000000000E+00 0. -1.
         -2   -1    0    0    0  501 -0.00000000000E+00 -0.00000000000E+00 -0.17339231898E+02  0.17339231898E+02  0.00000000000E+00 0.  1.
         23    2    1    2    0    0 -0.24593392506E+02  0.89637187862E+01  0.53675785591E+03  0.54439629880E+03  0.87023853359E+02 0.  0.
         13    1    3    3    0    0  0.25169711278E+02  0.26873956659E+02  0.26433668613E+03  0.26688875500E+03  0.00000000000E+00 0. -1.
        -13    1    3    3    0    0 -0.49763103784E+02 -0.17910237873E+02  0.27242116979E+03  0.27750754380E+03  0.00000000000E+00 0.  1.
         22    1    1    2    0    0  0.24593392506E+02 -0.89637187862E+01 -0.85021238464E+00  0.26189808524E+02  0.00000000000E+00 0.  1.
<mgrwt>
<rscale>  0 0.66574898E+02</rscale>
<asrwt>0</asrwt>
<pdfrwt beam="1">  1        2 0.85114890E-01 0.90875378E+02</pdfrwt>
<pdfrwt beam="2">  1       -2 0.26675746E-02 0.90875378E+02</pdfrwt>
<totfact> 0.25237128E+04</totfact>
</mgrwt>
</event>
<event>
 6    1  0.2866116E-002  0.9679899E+02  0.7546771E-02  0.1369941E+00
          2   -1    0    0  501    0  0.00000000000E+00  0.00000000000E+00  0.44483633320E+03  0.44483633320E+03  0.00000000000E+00 0. -1.
         -2   -1    0    0    0  501 -0.00000000000E+00 -0.00000000000E+00 -0.10735659059E+02  0.10735659059E+02  0.00000000000E+00 0.  1.
         23    2    1    2    0    0  0.18845171299E+02  0.12221896634E+02  0.41483828739E+03  0.42598221730E+03  0.94156940982E+02 0.  0.
         13    1    3    3    0    0  0.33146055819E+02  0.11887761640E+02  0.40903039508E+03  0.41054335214E+03  0.00000000000E+00 0. -1.
        -13    1    3    3    0    0 -0.14300884520E+02  0.33413499445E+00  0.58078923129E+01  0.15438865158E+02  0.00000000000E+00 0.  1.
         22    1    1    2    0    0 -0.18845171299E+02 -0.12221896634E+02  0.19262386750E+02  0.29589774956E+02  0.00000000000E+00 0.  1.
<mgrwt>
<rscale>  0 0.67183467E+02</rscale>
<asrwt>0</asrwt>
<pdfrwt beam="1">  1        2 0.68436345E-01 0.96798992E+02</pdfrwt>
<pdfrwt beam="2">  1       -2 0.16516402E-02 0.96798992E+02</pdfrwt>
<totfact> 0.64183815E+04</totfact>
</mgrwt>
</event>
<event>
 6    1  0.2866116E-002  0.1021155E+03  0.7546771E-02  0.1319921E+00
         -2   -1    0    0    0  501 -0.00000000000E+00  0.00000000000E+00  0.12596028221E+02  0.12596028221E+02  0.00000000000E+00 0.  1.
          2   -1    0    0  501    0  0.00000000000E+00 -0.00000000000E+00 -0.17761370514E+04  0.17761370514E+04  0.00000000000E+00 0. -1.
         23    2    1    2    0    0 -0.45181874178E+02 -0.21237328066E+01 -0.17285060694E+04  0.17315197946E+04  0.91551380119E+02 0.  0.
         11    1    3    3    0    0 -0.53745074802E+01  0.36453913284E+02 -0.35759946877E+03  0.35949291118E+03  0.00000000000E+00 0.  1.
        -11    1    3    3    0    0 -0.39807366698E+02 -0.38577646091E+02 -0.13709066006E+04  0.13720268834E+04  0.00000000000E+00 0. -1.
         22    1    1    2    0    0  0.45181874178E+02  0.21237328066E+01 -0.35034953795E+02  0.57213285019E+02  0.00000000000E+00 0.  1.
<mgrwt>
<rscale>  0 0.83306616E+02</rscale>
<asrwt>0</asrwt>
<pdfrwt beam="1">  1        2 0.27325174E+00 0.10211546E+03</pdfrwt>
<pdfrwt beam="2">  1       -2 0.19378513E-02 0.10211546E+03</pdfrwt>
<totfact> 0.76869658E+03</totfact>
</mgrwt>
</event>
<event>
 6    1  0.2866116E-002  0.9511035E+02  0.7546771E-02  0.1352396E+00
          2   -1    0    0  501    0  0.00000000000E+00  0.00000000000E+00  0.28997972898E+02  0.28997972898E+02  0.00000000000E+00 0. -1.
         -2   -1    0    0    0  501 -0.00000000000E+00 -0.00000000000E+00 -0.13894809569E+03  0.13894809569E+03  0.00000000000E+00 0.  1.
         23    2    1    2    0    0 -0.23841318118E+02  0.21019521449E+02 -0.84579665439E+02  0.12727803645E+03  0.89642345048E+02 0.  0.
         11    1    3    3    0    0 -0.38436404738E+02  0.36506196096E+02 -0.90770147712E+02  0.10511555203E+03  0.00000000000E+00 0.  1.
        -11    1    3    3    0    0  0.14595086620E+02 -0.15486674647E+02  0.61904822732E+01  0.22162484424E+02  0.00000000000E+00 0. -1.
         22    1    1    2    0    0  0.23841318118E+02 -0.21019521449E+02 -0.25370457358E+02  0.40668032140E+02  0.00000000000E+00 0. -1.
<mgrwt>
<rscale>  0 0.72314153E+02</rscale>
<asrwt>0</asrwt>
<pdfrwt beam="1">  1        2 0.44612265E-02 0.95110350E+02</pdfrwt>
<pdfrwt beam="2">  1       -2 0.21376631E-01 0.95110350E+02</pdfrwt>
<totfact> 0.30066396E+04</totfact>
</mgrwt>
</event>
<event>
 6    1  0.2866116E-002  0.9524667E+02  0.7546771E-02  0.1407714E+00
          3   -1    0    0  501    0  0.00000000000E+00  0.00000000000E+00  0.12185240293E+02  0.12185240293E+02  0.00000000000E+00 0. -1.
         -3   -1    0    0    0  501 -0.00000000000E+00 -0.00000000000E+00 -0.24121580639E+03  0.24121580639E+03  0.00000000000E+00 0.  1.
         23    2    1    2    0    0 -0.84954035258E+01 -0.96200473214E+01 -0.19466941522E+03  0.21672127186E+03  0.94378023196E+02 0.  0.
         13    1    3    3    0    0  0.23335509230E+02 -0.19316651025E+02 -0.14645096839E+02  0.33647553541E+02  0.00000000000E+00 0.  1.
        -13    1    3    3    0    0 -0.31830912756E+02  0.96966037039E+01 -0.18002431838E+03  0.18307371832E+03  0.00000000000E+00 0. -1.
         22    1    1    2    0    0  0.84954035258E+01  0.96200473214E+01 -0.34361150877E+02  0.36679774824E+02  0.00000000000E+00 0. -1.
<mgrwt>
<rscale>  0 0.57707163E+02</rscale>
<asrwt>0</asrwt>
<pdfrwt beam="1">  1        3 0.18746524E-02 0.95246672E+02</pdfrwt>
<pdfrwt beam="2">  1       -3 0.37110123E-01 0.95246672E+02</pdfrwt>
<totfact> 0.15697722E+04</totfact>
</mgrwt>
</event>
<event>
 6    1  0.2866116E-002  0.1898673E+03  0.7546771E-02  0.1164201E+00
          1   -1    0    0  501    0  0.00000000000E+00  0.00000000000E+00  0.33212048498E+03  0.33212048498E+03  0.00000000000E+00 0. -1.
         -1   -1    0    0    0  501 -0.00000000000E+00 -0.00000000000E+00 -0.20482407044E+03  0.20482407044E+03  0.00000000000E+00 0.  1.
         23    2    1    2    0    0  0.80021403903E+02  0.14616827556E+03  0.26137790542E+03  0.32306039036E+03  0.91000090725E+02 0.  0.
         13    1    3    3    0    0  0.96516244731E+02  0.10720368192E+03  0.22495019211E+03  0.26722762552E+03  0.00000000000E+00 0. -1.
        -13    1    3    3    0    0 -0.16494840828E+02  0.38964593644E+02  0.36427713317E+02  0.55832764837E+02  0.00000000000E+00 0.  1.
         22    1    1    2    0    0 -0.80021403903E+02 -0.14616827556E+03 -0.13408149088E+03  0.21388416506E+03  0.00000000000E+00 0.  1.
<mgrwt>
<rscale>  0 0.18377309E+03</rscale>
<asrwt>0</asrwt>
<pdfrwt beam="1">  1        1 0.51095459E-01 0.18986734E+03</pdfrwt>
<pdfrwt beam="2">  1       -1 0.31511395E-01 0.18986734E+03</pdfrwt>
<totfact> 0.72458007E+02</totfact>
</mgrwt>
</event>
<event>
 6    1  0.2866116E-002  0.9289438E+02  0.7546771E-02  0.1423319E+00
         -1   -1    0    0    0  501 -0.00000000000E+00  0.00000000000E+00  0.97088363022E+01  0.97088363022E+01  0.00000000000E+00 0.  1.
          1   -1    0    0  501    0  0.00000000000E+00 -0.00000000000E+00 -0.35747898276E+03  0.35747898276E+03  0.00000000000E+00 0. -1.
         23    2    1    2    0    0  0.12944976425E+00  0.10864090402E+02 -0.34293805727E+03  0.35529688540E+03  0.92256817795E+02 0.  0.
         13    1    3    3    0    0 -0.50433592071E+01 -0.26377033711E+02 -0.28478116327E+03  0.28604456704E+03  0.00000000000E+00 0. -1.
        -13    1    3    3    0    0  0.51728089713E+01  0.37241124113E+02 -0.58156894000E+02  0.69252318355E+02  0.00000000000E+00 0.  1.
         22    1    1    2    0    0 -0.12944976425E+00 -0.10864090402E+02 -0.48320891826E+01  0.11890933662E+02  0.00000000000E+00 0. -1.
<mgrwt>
<rscale>  0 0.54324799E+02</rscale>
<asrwt>0</asrwt>
<pdfrwt beam="1">  1        1 0.54996767E-01 0.92894379E+02</pdfrwt>
<pdfrwt beam="2">  1       -1 0.14936671E-02 0.92894379E+02</pdfrwt>
<totfact> 0.64257493E+04</totfact>
</mgrwt>
</event>
<event>
 6    1  0.2866116E-002  0.9448500E+02  0.7546771E-02  0.1369243E+00
         -2   -1    0    0    0  501 -0.00000000000E+00  0.00000000000E+00  0.17026483542E+03  0.17026483542E+03  0.00000000000E+00 0.  1.
          2   -1    0    0  501    0  0.00000000000E+00 -0.00000000000E+00 -0.41129655356E+02  0.41129655356E+02  0.00000000000E+00 0. -1.
         23    2    1    2    0    0  0.23513895866E+02 -0.66402273964E+01  0.16221390194E+02  0.95867351707E+02  0.91271132922E+02 0.  0.
         13    1    3    3    0    0  0.17870769237E+02 -0.35783813076E+02  0.40941898059E+02  0.57237091890E+02  0.00000000000E+00 0. -1.
        -13    1    3    3    0    0  0.56431266286E+01  0.29143585680E+02 -0.24720507866E+02  0.38630259817E+02  0.00000000000E+00 0.  1.
         22    1    1    2    0    0 -0.23513895866E+02  0.66402273964E+01  0.11291378987E+03  0.11552713907E+03  0.00000000000E+00 0.  1.
<mgrwt>
<rscale>  0 0.67378072E+02</rscale>
<asrwt>0</asrwt>
<pdfrwt beam="1">  1        2 0.63276394E-02 0.94485002E+02</pdfrwt>
<pdfrwt beam="2">  1       -2 0.26194590E-01 0.94485002E+02</pdfrwt>
<totfact> 0.13520339E+04</totfact>
</mgrwt>
</event>
<event>
 6    1  0.2866116E-002  0.9409705E+02  0.7546771E-02  0.1371619E+00
         -2   -1    0    0    0  501 -0.00000000000E+00  0.00000000000E+00  0.25150769409E+03  0.25150769409E+03  0.00000000000E+00 0.  1.
          2   -1    0    0  501    0  0.00000000000E+00 -0.00000000000E+00 -0.14003133194E+02  0.14003133194E+02  0.00000000000E+00 0. -1.
         23    2    1    2    0    0  0.63294116186E+00  0.23775010492E+02  0.17614295237E+03  0.19970126309E+03  0.91041765537E+02 0.  0.
         11    1    3    3    0    0  0.29228117972E+02 -0.24016595580E+02  0.60638971291E+02  0.71471424938E+02  0.00000000000E+00 0.  1.
        -11    1    3    3    0    0 -0.28595176810E+02  0.47791606071E+02  0.11550398107E+03  0.12822983815E+03  0.00000000000E+00 0. -1.
         22    1    1    2    0    0 -0.63294116186E+00 -0.23775010492E+02  0.61361608531E+02  0.65809564198E+02  0.00000000000E+00 0.  1.
<mgrwt>
<rscale>  0 0.66719172E+02</rscale>
<asrwt>0</asrwt>
<pdfrwt beam="1">  1        2 0.21543284E-02 0.94097050E+02</pdfrwt>
<pdfrwt beam="2">  1       -2 0.38693488E-01 0.94097050E+02</pdfrwt>
<totfact> 0.27520008E+04</totfact>
</mgrwt>
</event>
<event>
 6    1  0.2866116E-002  0.9423821E+02  0.7546771E-02  0.1389522E+00
         -2   -1    0    0    0  501 -0.00000000000E+00  0.00000000000E+00  0.51538674467E+01  0.51538674467E+01  0.00000000000E+00 0.  1.
          2   -1    0    0  501    0  0.00000000000E+00 -0.00000000000E+00 -0.65909658184E+03  0.65909658184E+03  0.00000000000E+00 0. -1.
         23    2    1    2    0    0  0.15310403805E+02  0.88518334924E+01 -0.60313408362E+03  0.61045193275E+03  0.92563901979E+02 0.  0.
         13    1    3    3    0    0 -0.20414721129E+02 -0.60619033706E+01 -0.34786169630E+02  0.40787070362E+02  0.00000000000E+00 0. -1.
        -13    1    3    3    0    0  0.35725124933E+02  0.14913736863E+02 -0.56834791399E+03  0.56966486238E+03  0.00000000000E+00 0.  1.
         22    1    1    2    0    0 -0.15310403805E+02 -0.88518334924E+01 -0.50808630779E+02  0.53798516546E+02  0.00000000000E+00 0. -1.
<mgrwt>
<rscale>  0 0.62025782E+02</rscale>
<asrwt>0</asrwt>
<pdfrwt beam="1">  1        2 0.10139947E+00 0.94238205E+02</pdfrwt>
<pdfrwt beam="2">  1       -2 0.79290271E-03 0.94238205E+02</pdfrwt>
<totfact> 0.11770481E+05</totfact>
</mgrwt>
</event>
<event>
 6    1  0.2866116E-002  0.9247147E+02  0.7546771E-02  0.1400822E+00
          2   -1    0    0  501    0  0.00000000000E+00  0.00000000000E+00  0.22664647384E+02  0.22664647384E+02  0.00000000000E+00 0. -1.
         -2   -1    0    0    0  501 -0.00000000000E+00 -0.00000000000E+00 -0.13249755882E+03  0.13249755882E+03  0.00000000000E+00 0.  1.
         23    2    1    2    0    0  0.12006686924E+02 -0.10008893260E+02 -0.83781538652E+02  0.12478108544E+03  0.91140740554E+02 0.  0.
         13    1    3    3    0    0 -0.85670699677E+00  0.31714880982E+02 -0.16548040844E+01  0.31769576628E+02  0.00000000000E+00 0. -1.
        -13    1    3    3    0    0  0.12863393921E+02 -0.41723774242E+02 -0.82126734568E+02  0.93011508809E+02  0.00000000000E+00 0.  1.
         22    1    1    2    0    0 -0.12006686924E+02  0.10008893260E+02 -0.26051372784E+02  0.30381120768E+02  0.00000000000E+00 0.  1.
<mgrwt>
<rscale>  0 0.59293189E+02</rscale>
<asrwt>0</asrwt>
<pdfrwt beam="1">  1        2 0.34868688E-02 0.92471472E+02</pdfrwt>
<pdfrwt beam="2">  1       -2 0.20384240E-01 0.92471472E+02</pdfrwt>
<totfact> 0.44822388E+04</totfact>
</mgrwt>
</event>
<event>
 6    1  0.2866116E-002  0.9252769E+02  0.7546771E-02  0.1375667E+00
         -2   -1    0    0    0  501 -0.00000000000E+00  0.00000000000E+00  0.35721450916E+02  0.35721450916E+02  0.00000000000E+00 0.  1.
          2   -1    0    0  501    0  0.00000000000E+00 -0.00000000000E+00 -0.17088819553E+03  0.17088819553E+03  0.00000000000E+00 0. -1.
         23    2    1    2    0    0  0.23341821467E+02 -0.16650313548E+01 -0.15188543474E+03  0.17784982103E+03  0.89519610120E+02 0.  0.
         13    1    3    3    0    0  0.11477805429E+02 -0.48754957952E+01  0.96993013559E+01  0.15798320275E+02  0.00000000000E+00 0.  1.
        -13    1    3    3    0    0  0.11864016038E+02  0.32104644404E+01 -0.16158473609E+03  0.16205150075E+03  0.00000000000E+00 0. -1.
         22    1    1    2    0    0 -0.23341821467E+02  0.16650313548E+01  0.16718690121E+02  0.28759825420E+02  0.00000000000E+00 0.  1.
<mgrwt>
<rscale>  0 0.65616492E+02</rscale>
<asrwt>0</asrwt>
<pdfrwt beam="1">  1        2 0.26290492E-01 0.92527691E+02</pdfrwt>
<pdfrwt beam="2">  1       -2 0.54956078E-02 0.92527691E+02</pdfrwt>
<totfact> 0.30398596E+04</totfact>
</mgrwt>
</event>
<event>
 6    1  0.2866116E-002  0.9225457E+02  0.7546771E-02  0.1392120E+00
          1   -1    0    0  501    0  0.00000000000E+00  0.00000000000E+00  0.10859538022E+03  0.10859538022E+03  0.00000000000E+00 0. -1.
         -1   -1    0    0    0  501 -0.00000000000E+00 -0.00000000000E+00 -0.74674899738E+02  0.74674899738E+02  0.00000000000E+00 0.  1.
         23    2    1    2    0    0 -0.92621914458E+01  0.15528235929E+02  0.87238283199E+02  0.12697016993E+03  0.90465417126E+02 0.  0.
         11    1    3    3    0    0  0.28307653585E+02  0.10771415431E+02  0.83610181758E+02  0.88926987666E+02  0.00000000000E+00 0. -1.
        -11    1    3    3    0    0 -0.37569845031E+02  0.47568204982E+01  0.36281014416E+01  0.38043182266E+02  0.00000000000E+00 0.  1.
         22    1    1    2    0    0  0.92621914458E+01 -0.15528235929E+02 -0.53317802721E+02  0.56300110022E+02  0.00000000000E+00 0.  1.
<mgrwt>
<rscale>  0 0.61382583E+02</rscale>
<asrwt>0</asrwt>
<pdfrwt beam="1">  1        1 0.16706982E-01 0.92254572E+02</pdfrwt>
<pdfrwt beam="2">  1       -1 0.11488446E-01 0.92254572E+02</pdfrwt>
<totfact> 0.14236791E+04</totfact>
</mgrwt>
</event>
<event>
 6    1  0.2866116E-002  0.1219463E+03  0.7546771E-02  0.1261391E+00
          2   -1    0    0  501    0  0.00000000000E+00  0.00000000000E+00  0.48311681566E+03  0.48311681566E+03  0.00000000000E+00 0. -1.
         -2   -1    0    0    0  501 -0.00000000000E+00 -0.00000000000E+00 -0.31961981548E+02  0.31961981548E+02  0.00000000000E+00 0.  1.
         23    2    1    2    0    0 -0.21760233814E+02  0.76407159860E+02  0.40552145898E+03  0.42346020314E+03  0.92516636851E+02 0.  0.
         13    1    3    3    0    0 -0.30488681703E+02  0.43194117968E+02  0.37106662338E+03  0.37481426137E+03  0.00000000000E+00 0. -1.
        -13    1    3    3    0    0  0.87284478887E+01  0.33213041892E+02  0.34454835601E+02  0.48645941769E+02  0.00000000000E+00 0.  1.
         22    1    1    2    0    0  0.21760233814E+02 -0.76407159860E+02  0.45633375129E+02  0.91618594069E+02  0.00000000000E+00 0.  1.
<mgrwt>
<rscale>  0 0.10955784E+03</rscale>
<asrwt>0</asrwt>
<pdfrwt beam="1">  1        2 0.74325659E-01 0.12194626E+03</pdfrwt>
<pdfrwt beam="2">  1       -2 0.49172283E-02 0.12194626E+03</pdfrwt>
<totfact> 0.12225532E+04</totfact>
</mgrwt>
</event>
<event>
 6    1  0.2866116E-002  0.1076935E+03  0.7546771E-02  0.1295415E+00
         -2   -1    0    0    0  501 -0.00000000000E+00  0.00000000000E+00  0.18701691260E+02  0.18701691260E+02  0.00000000000E+00 0. -1.
          2   -1    0    0  501    0  0.00000000000E+00 -0.00000000000E+00 -0.68172409973E+03  0.68172409973E+03  0.00000000000E+00 0.  1.
         23    2    1    2    0    0  0.48181843438E+02 -0.36190100156E+02 -0.61218795434E+03  0.62158826748E+03  0.89256201150E+02 0.  0.
         11    1    3    3    0    0  0.62608051949E+02 -0.55238995581E+02 -0.49448168615E+03  0.50148105920E+03  0.00000000000E+00 0.  1.
        -11    1    3    3    0    0 -0.14426208511E+02  0.19048895426E+02 -0.11770626819E+03  0.12010720828E+03  0.00000000000E+00 0. -1.
         22    1    1    2    0    0 -0.48181843438E+02  0.36190100156E+02 -0.50834454130E+02  0.78837523509E+02  0.00000000000E+00 0. -1.
<mgrwt>
<rscale>  0 0.93142629E+02</rscale>
<asrwt>0</asrwt>
<pdfrwt beam="1">  1        2 0.10488062E+00 0.10769347E+03</pdfrwt>
<pdfrwt beam="2">  1       -2 0.28771837E-02 0.10769347E+03</pdfrwt>
<totfact> 0.18145027E+04</totfact>
</mgrwt>
</event>
<event>
 6    1  0.2866116E-002  0.9252229E+02  0.7546771E-02  0.1376165E+00
          2   -1    0    0  501    0  0.00000000000E+00  0.00000000000E+00  0.57878243486E+02  0.57878243486E+02  0.00000000000E+00 0. -1.
         -2   -1    0    0    0  501 -0.00000000000E+00 -0.00000000000E+00 -0.59323647860E+02  0.59323647860E+02  0.00000000000E+00 0.  1.
         23    2    1    2    0    0  0.22395554388E+02 -0.61125860710E+01  0.62807411297E+01  0.92735222404E+02  0.89562543512E+02 0.  0.
         11    1    3    3    0    0  0.21055232895E+02  0.25425346930E+02  0.36375509674E+02  0.49121775241E+02  0.00000000000E+00 0. -1.
        -11    1    3    3    0    0  0.13403214930E+01 -0.31537933001E+02 -0.30094768544E+02  0.43613447163E+02  0.00000000000E+00 0.  1.
         22    1    1    2    0    0 -0.22395554388E+02  0.61125860710E+01 -0.77261455028E+01  0.24466668942E+02  0.00000000000E+00 0. -1.
<mgrwt>
<rscale>  0 0.65482578E+02</rscale>
<asrwt>0</asrwt>
<pdfrwt beam="1">  1        2 0.89043451E-02 0.92522288E+02</pdfrwt>
<pdfrwt beam="2">  1       -2 0.91267151E-02 0.92522288E+02</pdfrwt>
<totfact> 0.49152347E+04</totfact>
</mgrwt>
</event>
<event>
 6    1  0.2866116E-002  0.9150269E+02  0.7546771E-02  0.1422057E+00
         -2   -1    0    0    0  501 -0.00000000000E+00  0.00000000000E+00  0.91549636091E+01  0.91549636091E+01  0.00000000000E+00 0. -1.
          2   -1    0    0  501    0  0.00000000000E+00 -0.00000000000E+00 -0.37647546772E+03  0.37647546772E+03  0.00000000000E+00 0.  1.
         23    2    1    2    0    0  0.64616744785E-01  0.11590004742E+02 -0.36102602117E+03  0.37244131079E+03  0.90765685325E+02 0.  0.
         11    1    3    3    0    0 -0.49865386376E+01  0.47569304842E+02 -0.27387716824E+03  0.27802231496E+03  0.00000000000E+00 0.  1.
        -11    1    3    3    0    0  0.50511553823E+01 -0.35979300099E+02 -0.87148852932E+02  0.94418995831E+02  0.00000000000E+00 0. -1.
         22    1    1    2    0    0 -0.64616744785E-01 -0.11590004742E+02 -0.62944829432E+01  0.13189120546E+02  0.00000000000E+00 0. -1.
<mgrwt>
<rscale>  0 0.54588100E+02</rscale>
<asrwt>0</asrwt>
<pdfrwt beam="1">  1        2 0.57919298E-01 0.91502689E+02</pdfrwt>
<pdfrwt beam="2">  1       -2 0.14084561E-02 0.91502689E+02</pdfrwt>
<totfact> 0.95378953E+04</totfact>
</mgrwt>
</event>
<event>
 6    1  0.2866116E-002  0.7898675E+02  0.7546771E-02  0.1447541E+00
          2   -1    0    0  501    0  0.00000000000E+00  0.00000000000E+00  0.32123944896E+02  0.32123944896E+02  0.00000000000E+00 0. -1.
         -2   -1    0    0    0  501 -0.00000000000E+00 -0.00000000000E+00 -0.69345802070E+02  0.69345802070E+02  0.00000000000E+00 0.  1.
         23    2    1    2    0    0 -0.12273442965E+02 -0.26605736560E+00 -0.22155569971E+02  0.82035210726E+02  0.78026907727E+02 0.  0.
         13    1    3    3    0    0 -0.42338640736E+02  0.61390812482E+01  0.21675480635E+01  0.42836282315E+02  0.00000000000E+00 0.  1.
        -13    1    3    3    0    0  0.30065197771E+02 -0.64051386138E+01 -0.24323118034E+02  0.39198928411E+02  0.00000000000E+00 0. -1.
         22    1    1    2    0    0  0.12273442965E+02  0.26605736560E+00 -0.15066287204E+02  0.19434536240E+02  0.00000000000E+00 0.  1.
<mgrwt>
<rscale>  0 0.49594417E+02</rscale>
<asrwt>0</asrwt>
<pdfrwt beam="1">  1        2 0.49421454E-02 0.78986749E+02</pdfrwt>
<pdfrwt beam="2">  1       -2 0.10668585E-01 0.78986749E+02</pdfrwt>
<totfact> 0.79002962E+04</totfact>
</mgrwt>
</event>
<event>
 6    1  0.2866116E-002  0.9434343E+02  0.7546771E-02  0.1397554E+00
         -4   -1    0    0    0  501 -0.00000000000E+00  0.00000000000E+00  0.42621415643E+01  0.42621415643E+01  0.00000000000E+00 0.  1.
          4   -1    0    0  501    0  0.00000000000E+00 -0.00000000000E+00 -0.71532374517E+03  0.71532374517E+03  0.00000000000E+00 0. -1.
         23    2    1    2    0    0  0.14526362345E+02 -0.54128325855E+01 -0.63394066431E+03  0.64092234221E+03  0.93061103131E+02 0.  0.
         11    1    3    3    0    0 -0.12800435743E+02 -0.31367964607E+02 -0.51589490609E+03  0.51700614550E+03  0.00000000000E+00 0. -1.
        -11    1    3    3    0    0  0.27326798088E+02  0.25955132021E+02 -0.11804575822E+03  0.12391619671E+03  0.00000000000E+00 0.  1.
         22    1    1    2    0    0 -0.14526362345E+02  0.54128325855E+01 -0.77120939294E+02  0.78663544525E+02  0.00000000000E+00 0.  1.
<mgrwt>
<rscale>  0 0.60066333E+02</rscale>
<asrwt>0</asrwt>
<pdfrwt beam="1">  1        4 0.11004986E+00 0.94343430E+02</pdfrwt>
<pdfrwt beam="2">  1       -4 0.65571375E-03 0.94343430E+02</pdfrwt>
<totfact> 0.56445319E+03</totfact>
</mgrwt>
</event>
<event>
 6    1  0.2866116E-002  0.9252278E+02  0.7546771E-02  0.1409710E+00
         -4   -1    0    0    0  501 -0.00000000000E+00  0.00000000000E+00  0.37254829409E+02  0.37254829409E+02  0.00000000000E+00 0.  1.
          4   -1    0    0  501    0  0.00000000000E+00 -0.00000000000E+00 -0.32460247575E+03  0.32460247575E+03  0.00000000000E+00 0. -1.
         23    2    1    2    0    0 -0.13566397936E+02  0.35743726561E+00 -0.31647559702E+03  0.32972301777E+03  0.91522073966E+02 0.  0.
         13    1    3    3    0    0  0.24598865050E+01 -0.30142122670E+02 -0.27093563556E+03  0.27261826281E+03  0.00000000000E+00 0. -1.
        -13    1    3    3    0    0 -0.16026284441E+02  0.30499559936E+02 -0.45539961463E+02  0.57104754962E+02  0.00000000000E+00 0.  1.
         22    1    1    2    0    0  0.13566397936E+02 -0.35743726561E+00  0.29127950687E+02  0.32134287383E+02  0.00000000000E+00 0.  1.
<mgrwt>
<rscale>  0 0.57258546E+02</rscale>
<asrwt>0</asrwt>
<pdfrwt beam="1">  1        4 0.49938844E-01 0.92522781E+02</pdfrwt>
<pdfrwt beam="2">  1       -4 0.57315121E-02 0.92522781E+02</pdfrwt>
<totfact> 0.11240626E+03</totfact>
</mgrwt>
</event>
<event>
 6    1  0.2866116E-002  0.7663664E+02  0.7546771E-02  0.1386369E+00
         -2   -1    0    0    0  501 -0.00000000000E+00  0.00000000000E+00  0.22149702898E+02  0.22149702898E+02  0.00000000000E+00 0.  1.
          2   -1    0    0  501    0  0.00000000000E+00 -0.00000000000E+00 -0.14034011573E+03  0.14034011573E+03  0.00000000000E+00 0. -1.
         23    2    1    2    0    0  0.34591813610E+02  0.65823892481E+00 -0.86581920923E+02  0.11562700173E+03  0.68382363590E+02 0.  0.
         11    1    3    3    0    0  0.10892666749E+02 -0.57199088602E+01  0.10075588053E+02  0.15902358972E+02  0.00000000000E+00 0.  1.
        -11    1    3    3    0    0  0.23699146861E+02  0.63781477850E+01 -0.96657508976E+02  0.99724642755E+02  0.00000000000E+00 0. -1.
         22    1    1    2    0    0 -0.34591813610E+02 -0.65823892481E+00 -0.31608491912E+02  0.46862816905E+02  0.00000000000E+00 0.  1.
<mgrwt>
<rscale>  0 0.62818900E+02</rscale>
<asrwt>0</asrwt>
<pdfrwt beam="1">  1        2 0.21590787E-01 0.76636639E+02</pdfrwt>
<pdfrwt beam="2">  1       -2 0.34076465E-02 0.76636639E+02</pdfrwt>
<totfact> 0.74257793E+04</totfact>
</mgrwt>
</event>
<event>
 6    1  0.2866116E-002  0.1003029E+03  0.7546771E-02  0.1329405E+00
          2   -1    0    0  501    0  0.00000000000E+00  0.00000000000E+00  0.48809037946E+03  0.48809037946E+03  0.00000000000E+00 0.  1.
         -2   -1    0    0    0  501 -0.00000000000E+00 -0.00000000000E+00 -0.16722425304E+02  0.16722425304E+02  0.00000000000E+00 0. -1.
         23    2    1    2    0    0  0.22088520492E+02 -0.33752638697E+02  0.44604850357E+03  0.45718699312E+03  0.91834284390E+02 0.  0.
         11    1    3    3    0    0  0.10915836073E+02 -0.28410312251E+02  0.36816866871E+02  0.47768012368E+02  0.00000000000E+00 0. -1.
        -11    1    3    3    0    0  0.11172684418E+02 -0.53423264456E+01  0.40923163669E+03  0.40941898075E+03  0.00000000000E+00 0.  1.
         22    1    1    2    0    0 -0.22088520492E+02  0.33752638697E+02  0.25319450593E+02  0.47625811645E+02  0.00000000000E+00 0. -1.
<mgrwt>
<rscale>  0 0.79875477E+02</rscale>
<asrwt>0</asrwt>
<pdfrwt beam="1">  1        2 0.75090817E-01 0.10030294E+03</pdfrwt>
<pdfrwt beam="2">  1       -2 0.25726812E-02 0.10030294E+03</pdfrwt>
<totfact> 0.30808486E+04</totfact>
</mgrwt>
</event>
<event>
 6    1  0.2866116E-002  0.9407926E+02  0.7546771E-02  0.1375403E+00
         -3   -1    0    0    0  501 -0.00000000000E+00  0.00000000000E+00  0.12420740810E+03  0.12420740810E+03  0.00000000000E+00 0.  1.
          3   -1    0    0  501    0  0.00000000000E+00 -0.00000000000E+00 -0.27374852564E+02  0.27374852564E+02  0.00000000000E+00 0. -1.
         23    2    1    2    0    0  0.14164789338E+02 -0.17300099448E+02  0.81493967453E+02  0.12446756018E+03  0.91383653394E+02 0.  0.
         11    1    3    3    0    0  0.45590962777E+01 -0.45056067698E+02  0.83540181950E+02  0.95025241886E+02  0.00000000000E+00 0.  1.
        -11    1    3    3    0    0  0.96056930602E+01  0.27755968250E+02 -0.20462144976E+01  0.29442318292E+02  0.00000000000E+00 0. -1.
         22    1    1    2    0    0 -0.14164789338E+02  0.17300099448E+02  0.15338588079E+02  0.27114700481E+02  0.00000000000E+00 0.  1.
<mgrwt>
<rscale>  0 0.65687778E+02</rscale>
<asrwt>0</asrwt>
<pdfrwt beam="1">  1        3 0.42115158E-02 0.94079258E+02</pdfrwt>
<pdfrwt beam="2">  1       -3 0.19108832E-01 0.94079258E+02</pdfrwt>
<totfact> 0.15066101E+04</totfact>
</mgrwt>
</event>
<event>
 6    1  0.2866116E-002  0.9309992E+02  0.7546771E-02  0.1377543E+00
         -2   -1    0    0    0  501 -0.00000000000E+00  0.00000000000E+00  0.99448181171E+02  0.99448181171E+02  0.00000000000E+00 0.  1.
          2   -1    0    0  501    0  0.00000000000E+00 -0.00000000000E+00 -0.36778607570E+02  0.36778607570E+02  0.00000000000E+00 0. -1.
         23    2    1    2    0    0  0.12838191071E+02 -0.18205219901E+02  0.32259931845E+02  0.98530694867E+02  0.90395494615E+02 0.  0.
         13    1    3    3    0    0  0.30612321876E+02  0.10982926486E+02 -0.18441395322E+02  0.37387484353E+02  0.00000000000E+00 0.  1.
        -13    1    3    3    0    0 -0.17774130805E+02 -0.29188146387E+02  0.50701327167E+02  0.61143210513E+02  0.00000000000E+00 0. -1.
         22    1    1    2    0    0 -0.12838191071E+02  0.18205219901E+02  0.30409641756E+02  0.37696093874E+02  0.00000000000E+00 0.  1.
<mgrwt>
<rscale>  0 0.65114011E+02</rscale>
<asrwt>0</asrwt>
<pdfrwt beam="1">  1        2 0.56582474E-02 0.93099917E+02</pdfrwt>
<pdfrwt beam="2">  1       -2 0.15299720E-01 0.93099917E+02</pdfrwt>
<totfact> 0.38391107E+04</totfact>
</mgrwt>
</event>
<event>
 6    1  0.2866116E-002  0.9045128E+02  0.7546771E-02  0.1396769E+00
          2   -1    0    0  501    0  0.00000000000E+00  0.00000000000E+00  0.27476205298E+03  0.27476205298E+03  0.00000000000E+00 0. -1.
         -2   -1    0    0    0  501 -0.00000000000E+00 -0.00000000000E+00 -0.11742544829E+02  0.11742544829E+02  0.00000000000E+00 0.  1.
         23    2    1    2    0    0 -0.12518391383E+02 -0.12670218278E+02  0.24501895411E+03  0.26118139699E+03  0.88680266722E+02 0.  0.
         11    1    3    3    0    0  0.25050388375E+01 -0.23238554623E+02  0.24131388356E+03  0.24244318105E+03  0.00000000000E+00 0. -1.
        -11    1    3    3    0    0 -0.15023430220E+02  0.10568336345E+02  0.37050705509E+01  0.18738215936E+02  0.00000000000E+00 0.  1.
         22    1    1    2    0    0  0.12518391383E+02  0.12670218278E+02  0.18000554045E+02  0.25323200823E+02  0.00000000000E+00 0.  1.
<mgrwt>
<rscale>  0 0.60253921E+02</rscale>
<asrwt>0</asrwt>
<pdfrwt beam="1">  1        2 0.42271080E-01 0.90451281E+02</pdfrwt>
<pdfrwt beam="2">  1       -2 0.18065456E-02 0.90451281E+02</pdfrwt>
<totfact> 0.92760822E+04</totfact>
</mgrwt>
</event>
<event>
 6    1  0.2866116E-002  0.8727897E+02  0.7546771E-02  0.1417339E+00
         -2   -1    0    0    0  501 -0.00000000000E+00  0.00000000000E+00  0.11733321777E+02  0.11733321777E+02  0.00000000000E+00 0. -1.
          2   -1    0    0  501    0  0.00000000000E+00 -0.00000000000E+00 -0.22203296100E+03  0.22203296100E+03  0.00000000000E+00 0.  1.
         23    2    1    2    0    0  0.10190172332E+02  0.10119535980E+02 -0.18753602058E+03  0.20685110204E+03  0.86089341839E+02 0.  0.
         11    1    3    3    0    0 -0.58233758175E+01  0.16277593994E+02 -0.18885412844E+03  0.18964375444E+03  0.00000000000E+00 0.  1.
        -11    1    3    3    0    0  0.16013548150E+02 -0.61580580145E+01  0.13181078569E+01  0.17207347593E+02  0.00000000000E+00 0. -1.
         22    1    1    2    0    0 -0.10190172332E+02 -0.10119535980E+02 -0.22763618649E+02  0.26915180746E+02  0.00000000000E+00 0.  1.
<mgrwt>
<rscale>  0 0.55587873E+02</rscale>
<asrwt>0</asrwt>
<pdfrwt beam="1">  1        2 0.34158915E-01 0.87278975E+02</pdfrwt>
<pdfrwt beam="2">  1       -2 0.18051265E-02 0.87278975E+02</pdfrwt>
<totfact> 0.11553785E+05</totfact>
</mgrwt>
</event>
<event>
 6    1  0.2866116E-002  0.9101243E+02  0.7546771E-02  0.1410317E+00
         -2   -1    0    0    0  501 -0.00000000000E+00  0.00000000000E+00  0.10270389292E+02  0.10270389292E+02  0.00000000000E+00 0.  1.
          2   -1    0    0  501    0  0.00000000000E+00 -0.00000000000E+00 -0.34793914666E+03  0.34793914666E+03  0.00000000000E+00 0. -1.
         23    2    1    2    0    0  0.66804538485E+01  0.12443874389E+02 -0.32961857123E+03  0.34195272291E+03  0.89909864481E+02 0.  0.
         13    1    3    3    0    0 -0.18736458890E+02 -0.64500809203E+01 -0.29245332152E+03  0.29312387092E+03  0.00000000000E+00 0. -1.
        -13    1    3    3    0    0  0.25416912738E+02  0.18893955310E+02 -0.37165249712E+02  0.48828851989E+02  0.00000000000E+00 0.  1.
         22    1    1    2    0    0 -0.66804538485E+01 -0.12443874389E+02 -0.80501861331E+01  0.16256813040E+02  0.00000000000E+00 0.  1.
<mgrwt>
<rscale>  0 0.57123201E+02</rscale>
<asrwt>0</asrwt>
<pdfrwt beam="1">  1        2 0.53529102E-01 0.91012429E+02</pdfrwt>
<pdfrwt beam="2">  1       -2 0.15800598E-02 0.91012429E+02</pdfrwt>
<totfact> 0.87858813E+04</totfact>
</mgrwt>
</event>
<event>
 6    1  0.2866116E-002  0.9275153E+02  0.7546771E-02  0.1382967E+00
          2   -1    0    0  501    0  0.00000000000E+00  0.00000000000E+00  0.37051259070E+03  0.37051259070E+03  0.00000000000E+00 0.  1.
         -2   -1    0    0    0  501 -0.00000000000E+00 -0.00000000000E+00 -0.95349998748E+01  0.95349998748E+01  0.00000000000E+00 0. -1.
         23    2    1    2    0    0  0.10704253711E+02  0.17626087472E+02  0.33035549828E+03  0.34312913233E+03  0.90430007210E+02 0.  0.
         11    1    3    3    0    0 -0.22065477804E+02 -0.28494213014E+02  0.13770488286E+03  0.14234268597E+03  0.00000000000E+00 0. -1.
        -11    1    3    3    0    0  0.32769731515E+02  0.46120300487E+02  0.19265061542E+03  0.20078644636E+03  0.00000000000E+00 0.  1.
         22    1    1    2    0    0 -0.10704253711E+02 -0.17626087472E+02  0.30622092538E+02  0.36918458236E+02  0.00000000000E+00 0. -1.
<mgrwt>
<rscale>  0 0.63690202E+02</rscale>
<asrwt>0</asrwt>
<pdfrwt beam="1">  1        2 0.57001926E-01 0.92751529E+02</pdfrwt>
<pdfrwt beam="2">  1       -2 0.14669233E-02 0.92751529E+02</pdfrwt>
<totfact> 0.91704051E+04</totfact>
</mgrwt>
</event>
<event>
 6    1  0.2866116E-002  0.1063246E+03  0.7546771E-02  0.1303221E+00
         -1   -1    0    0    0  501 -0.00000000000E+00  0.00000000000E+00  0.82169186532E+01  0.82169186532E+01  0.00000000000E+00 0.  1.
          1   -1    0    0  501    0  0.00000000000E+00 -0.00000000000E+00 -0.11189869864E+04  0.11189869864E+04  0.00000000000E+00 0. -1.
         23    2    1    2    0    0 -0.24612670064E+02 -0.48306856755E+02 -0.97841550352E+03  0.98417570290E+03  0.91463548613E+02 0.  0.
         13    1    3    3    0    0 -0.76940149133E+01 -0.74286843195E+02 -0.73802414460E+03  0.74179334788E+03  0.00000000000E+00 0. -1.
        -13    1    3    3    0    0 -0.16918655151E+02  0.25979986439E+02 -0.24039135891E+03  0.24238235502E+03  0.00000000000E+00 0.  1.
         22    1    1    2    0    0  0.24612670064E+02  0.48306856755E+02 -0.13235456420E+03  0.14302820212E+03  0.00000000000E+00 0. -1.
<mgrwt>
<rscale>  0 0.89847586E+02</rscale>
<asrwt>0</asrwt>
<pdfrwt beam="1">  1        1 0.17215170E+00 0.10632458E+03</pdfrwt>
<pdfrwt beam="2">  1       -1 0.12641424E-02 0.10632458E+03</pdfrwt>
<totfact> 0.16495753E+04</totfact>
</mgrwt>
</event>
<event>
 6    1  0.2866116E-002  0.9238485E+02  0.7546771E-02  0.1383611E+00
         -1   -1    0    0    0  501 -0.00000000000E+00  0.00000000000E+00  0.47990068575E+01  0.47990068575E+01  0.00000000000E+00 0.  1.
          1   -1    0    0  501    0  0.00000000000E+00 -0.00000000000E+00 -0.89094543402E+03  0.89094543402E+03  0.00000000000E+00 0. -1.
         23    2    1    2    0    0 -0.92507306147E+01  0.18463470602E+02 -0.84146643036E+03  0.84652271927E+03  0.90047126867E+02 0.  0.
         11    1    3    3    0    0 -0.10117175129E+01  0.54424355238E+02 -0.43697778299E+03  0.44035510312E+03  0.00000000000E+00 0.  1.
        -11    1    3    3    0    0 -0.82390131018E+01 -0.35960884636E+02 -0.40448864737E+03  0.40616761616E+03  0.00000000000E+00 0. -1.
         22    1    1    2    0    0  0.92507306147E+01 -0.18463470602E+02 -0.44679996805E+02  0.49221721608E+02  0.00000000000E+00 0.  1.
<mgrwt>
<rscale>  0 0.63523932E+02</rscale>
<asrwt>0</asrwt>
<pdfrwt beam="1">  1        1 0.13706862E+00 0.92384852E+02</pdfrwt>
<pdfrwt beam="2">  1       -1 0.73830825E-03 0.92384852E+02</pdfrwt>
<totfact> 0.50878169E+04</totfact>
</mgrwt>
</event>
<event>
 6    1  0.2866116E-002  0.9764330E+02  0.7546771E-02  0.1344135E+00
         -2   -1    0    0    0  501 -0.00000000000E+00  0.00000000000E+00  0.75030419117E+02  0.75030419117E+02  0.00000000000E+00 0.  1.
          2   -1    0    0  501    0  0.00000000000E+00 -0.00000000000E+00 -0.61197761420E+02  0.61197761420E+02  0.00000000000E+00 0. -1.
         23    2    1    2    0    0  0.31873183342E+02 -0.11349152053E+02 -0.45004158751E+01  0.97746955825E+02  0.91594271444E+02 0.  0.
         11    1    3    3    0    0  0.40027491296E+02 -0.18267865205E+02 -0.40739150128E+02  0.59963266353E+02  0.00000000000E+00 0. -1.
        -11    1    3    3    0    0 -0.81543079547E+01  0.69187131520E+01  0.36238734253E+02  0.37783689472E+02  0.00000000000E+00 0.  1.
         22    1    1    2    0    0 -0.31873183342E+02  0.11349152053E+02  0.18333073573E+02  0.38481224711E+02  0.00000000000E+00 0.  1.
<mgrwt>
<rscale>  0 0.74914940E+02</rscale>
<asrwt>0</asrwt>
<pdfrwt beam="1">  1        2 0.94150403E-02 0.97643298E+02</pdfrwt>
<pdfrwt beam="2">  1       -2 0.11543141E-01 0.97643298E+02</pdfrwt>
<totfact> 0.32042719E+04</totfact>
</mgrwt>
</event>
<event>
 6    1  0.2866116E-002  0.9860668E+02  0.7546771E-02  0.1395726E+00
         -2   -1    0    0    0  501 -0.00000000000E+00  0.00000000000E+00  0.33859070100E+02  0.33859070100E+02  0.00000000000E+00 0.  1.
          2   -1    0    0  501    0  0.00000000000E+00 -0.00000000000E+00 -0.95603676261E+02  0.95603676261E+02  0.00000000000E+00 0. -1.
         23    2    1    2    0    0  0.13926651956E+02  0.11951400144E+01 -0.59872037832E+02  0.11536003363E+03  0.97610944312E+02 0.  0.
         13    1    3    3    0    0 -0.20183366637E+02 -0.11073579008E+02 -0.73202569031E+02  0.76737269652E+02  0.00000000000E+00 0. -1.
        -13    1    3    3    0    0  0.34110018594E+02  0.12268719023E+02  0.13330531199E+02  0.38622763974E+02  0.00000000000E+00 0.  1.
         22    1    1    2    0    0 -0.13926651956E+02 -0.11951400144E+01 -0.18725683281E+01  0.14102712736E+02  0.00000000000E+00 0. -1.
<mgrwt>
<rscale>  0 0.60504789E+02</rscale>
<asrwt>0</asrwt>
<pdfrwt beam="1">  1        2 0.14708258E-01 0.98606675E+02</pdfrwt>
<pdfrwt beam="2">  1       -2 0.52090878E-02 0.98606675E+02</pdfrwt>
<totfact> 0.63689699E+04</totfact>
</mgrwt>
</event>
<event>
 6    1  0.2866116E-002  0.9376097E+02  0.7546771E-02  0.1407444E+00
         -2   -1    0    0    0  501 -0.00000000000E+00  0.00000000000E+00  0.33334730894E+01  0.33334730894E+01  0.00000000000E+00 0.  1.
          2   -1    0    0  501    0  0.00000000000E+00 -0.00000000000E+00 -0.92307598624E+03  0.92307598624E+03  0.00000000000E+00 0. -1.
         23    2    1    2    0    0  0.84200179923E+01 -0.10566344757E+02 -0.86310201921E+03  0.86817982857E+03  0.92782405807E+02 0.  0.
         11    1    3    3    0    0  0.23609243270E+02 -0.45118048923E+02 -0.34915039265E+03  0.35284420272E+03  0.00000000000E+00 0.  1.
        -11    1    3    3    0    0 -0.15189225277E+02  0.34551704166E+02 -0.51395162657E+03  0.51533562586E+03  0.00000000000E+00 0. -1.
         22    1    1    2    0    0 -0.84200179923E+01  0.10566344757E+02 -0.56640493939E+02  0.58229630757E+02  0.00000000000E+00 0.  1.
<mgrwt>
<rscale>  0 0.57768037E+02</rscale>
<asrwt>0</asrwt>
<pdfrwt beam="1">  1        2 0.14201189E+00 0.93760968E+02</pdfrwt>
<pdfrwt beam="2">  1       -2 0.51284130E-03 0.93760968E+02</pdfrwt>
<totfact> 0.14417513E+05</totfact>
</mgrwt>
</event>
<event>
 6    1  0.2866116E-002  0.9674556E+02  0.7546771E-02  0.1339993E+00
         -2   -1    0    0    0  501 -0.00000000000E+00  0.00000000000E+00  0.95809820424E+02  0.95809820424E+02  0.00000000000E+00 0.  1.
          2   -1    0    0  501    0  0.00000000000E+00 -0.00000000000E+00 -0.12352961608E+03  0.12352961608E+03  0.00000000000E+00 0. -1.
         23    2    1    2    0    0 -0.15025080228E+02 -0.34208861954E+02 -0.99273614032E+02  0.13861801310E+03  0.89239586741E+02 0.  0.
         11    1    3    3    0    0 -0.14868967049E+02 -0.64559492379E+02 -0.64506447498E+02  0.92466729185E+02  0.00000000000E+00 0. -1.
        -11    1    3    3    0    0 -0.15611317898E+00  0.30350630425E+02 -0.34767166534E+02  0.46151283918E+02  0.00000000000E+00 0.  1.
         22    1    1    2    0    0  0.15025080228E+02  0.34208861954E+02  0.71553818374E+02  0.80721423402E+02  0.00000000000E+00 0.  1.
<mgrwt>
<rscale>  0 0.76266519E+02</rscale>
<asrwt>0</asrwt>
<pdfrwt beam="1">  1        2 0.19004556E-01 0.96745559E+02</pdfrwt>
<pdfrwt beam="2">  1       -2 0.14739972E-01 0.96745559E+02</pdfrwt>
<totfact> 0.94935530E+03</totfact>
</mgrwt>
</event>
<event>
 6    1  0.2866116E-002  0.9052192E+02  0.7546771E-02  0.1432851E+00
          2   -1    0    0  501    0  0.00000000000E+00  0.00000000000E+00  0.47593664028E+02  0.47593664028E+02  0.00000000000E+00 0. -1.
         -2   -1    0    0    0  501 -0.00000000000E+00 -0.00000000000E+00 -0.55193242353E+02  0.55193242353E+02  0.00000000000E+00 0.  1.
         23    2    1    2    0    0  0.63753770491E+01 -0.79079288533E+01 -0.73104073274E+00  0.90524868218E+02  0.89950189405E+02 0.  0.
         11    1    3    3    0    0 -0.25221335908E+02 -0.25848506840E+01 -0.35253806441E+02  0.43423819577E+02  0.00000000000E+00 0.  1.
        -11    1    3    3    0    0  0.31596712958E+02 -0.53230781693E+01  0.34522765708E+02  0.47101048641E+02  0.00000000000E+00 0. -1.
         22    1    1    2    0    0 -0.63753770491E+01  0.79079288533E+01 -0.68685375918E+01  0.12262038163E+02  0.00000000000E+00 0.  1.
<mgrwt>
<rscale>  0 0.52392021E+02</rscale>
<asrwt>0</asrwt>
<pdfrwt beam="1">  1        2 0.73221021E-02 0.90521916E+02</pdfrwt>
<pdfrwt beam="2">  1       -2 0.84912681E-02 0.90521916E+02</pdfrwt>
<totfact> 0.69776384E+04</totfact>
</mgrwt>
</event>
<event>
 6    1  0.2866116E-002  0.9111820E+02  0.7546771E-02  0.1407484E+00
         -2   -1    0    0    0  501 -0.00000000000E+00  0.00000000000E+00  0.31614610364E+03  0.31614610364E+03  0.00000000000E+00 0. -1.
          2   -1    0    0  501    0  0.00000000000E+00 -0.00000000000E+00 -0.94824963737E+01  0.94824963737E+01  0.00000000000E+00 0.  1.
         23    2    1    2    0    0  0.14067946427E+02  0.43048667302E+01  0.22676397779E+03  0.24438581705E+03  0.89922672085E+02 0.  0.
         13    1    3    3    0    0 -0.42062498133E+01  0.92692466068E+01  0.22515074028E+03  0.22538071639E+03  0.00000000000E+00 0. -1.
        -13    1    3    3    0    0  0.18274196241E+02 -0.49643798766E+01  0.16132375117E+01  0.19005100659E+02  0.00000000000E+00 0.  1.
         22    1    1    2    0    0 -0.14067946427E+02 -0.43048667302E+01  0.79899629474E+02  0.81242782967E+02  0.00000000000E+00 0.  1.
<mgrwt>
<rscale>  0 0.57759148E+02</rscale>
<asrwt>0</asrwt>
<pdfrwt beam="1">  1        2 0.14588458E-02 0.91118198E+02</pdfrwt>
<pdfrwt beam="2">  1       -2 0.48637854E-01 0.91118198E+02</pdfrwt>
<totfact> 0.30018846E+04</totfact>
</mgrwt>
</event>
<event>
 6    1  0.2866116E-002  0.9912149E+02  0.7546771E-02  0.1400265E+00
         -2   -1    0    0    0  501 -0.00000000000E+00  0.00000000000E+00  0.61157480803E+02  0.61157480803E+02  0.00000000000E+00 0.  1.
          2   -1    0    0  501    0  0.00000000000E+00 -0.00000000000E+00 -0.81483317421E+02  0.81483317421E+02  0.00000000000E+00 0. -1.
         23    2    1    2    0    0  0.11851793745E+02  0.48453606501E+01 -0.49490110556E+02  0.11078962228E+03  0.98291031263E+02 0.  0.
         13    1    3    3    0    0  0.68340321455E+01 -0.39522101743E+02 -0.52465420039E+02  0.66040296951E+02  0.00000000000E+00 0. -1.
        -13    1    3    3    0    0  0.50177615990E+01  0.44367462393E+02  0.29753094822E+01  0.44749325327E+02  0.00000000000E+00 0.  1.
         22    1    1    2    0    0 -0.11851793745E+02 -0.48453606501E+01  0.29164273939E+02  0.31851175946E+02  0.00000000000E+00 0.  1.
<mgrwt>
<rscale>  0 0.59424059E+02</rscale>
<asrwt>0</asrwt>
<pdfrwt beam="1">  1        2 0.12535895E-01 0.99121488E+02</pdfrwt>
<pdfrwt beam="2">  1       -2 0.94088433E-02 0.99121488E+02</pdfrwt>
<totfact> 0.31313163E+04</totfact>
</mgrwt>
</event>
<event>
 6    1  0.2866116E-002  0.1042026E+03  0.7546771E-02  0.1373406E+00
         -2   -1    0    0    0  501 -0.00000000000E+00  0.00000000000E+00  0.61465693947E+01  0.61465693947E+01  0.00000000000E+00 0.  1.
          2   -1    0    0  501    0  0.00000000000E+00 -0.00000000000E+00 -0.62726707739E+03  0.62726707739E+03  0.00000000000E+00 0. -1.
         23    2    1    2    0    0  0.13039092298E+02  0.10914857987E+02 -0.57248708016E+03  0.58189314256E+03  0.10280574085E+03 0.  0.
         11    1    3    3    0    0  0.11497347709E+02  0.43143409187E+02 -0.50625308526E+03  0.50821819044E+03  0.00000000000E+00 0. -1.
        -11    1    3    3    0    0  0.15417445893E+01 -0.32228551200E+02 -0.66233994896E+02  0.73674952112E+02  0.00000000000E+00 0.  1.
         22    1    1    2    0    0 -0.13039092298E+02 -0.10914857987E+02 -0.48633427839E+02  0.51520504230E+02  0.00000000000E+00 0.  1.
<mgrwt>
<rscale>  0 0.66229208E+02</rscale>
<asrwt>0</asrwt>
<pdfrwt beam="1">  1        2 0.96502601E-01 0.10420255E+03</pdfrwt>
<pdfrwt beam="2">  1       -2 0.94562632E-03 0.10420255E+03</pdfrwt>
<totfact> 0.98426101E+04</totfact>
</mgrwt>
</event>
<event>
 6    1  0.2866116E-002  0.9231627E+02  0.7546771E-02  0.1419442E+00
         -2   -1    0    0    0  501 -0.00000000000E+00  0.00000000000E+00  0.35073787218E+01  0.35073787218E+01  0.00000000000E+00 0.  1.
          2   -1    0    0  501    0  0.00000000000E+00 -0.00000000000E+00 -0.83789387142E+03  0.83789387142E+03  0.00000000000E+00 0. -1.
         23    2    1    2    0    0 -0.55921457897E+01 -0.10333011335E+02 -0.79374968164E+03  0.79910002521E+03  0.91565550119E+02 0.  0.
         11    1    3    3    0    0 -0.49857056845E+01  0.33361933012E+02 -0.14465427940E+03  0.14853530349E+03  0.00000000000E+00 0.  1.
        -11    1    3    3    0    0 -0.60644010516E+00 -0.43694944347E+02 -0.64909540224E+03  0.65056472172E+03  0.00000000000E+00 0. -1.
         22    1    1    2    0    0  0.55921457897E+01  0.10333011335E+02 -0.40636811054E+02  0.42301224928E+02  0.00000000000E+00 0. -1.
<mgrwt>
<rscale>  0 0.55139213E+02</rscale>
<asrwt>0</asrwt>
<pdfrwt beam="1">  1        2 0.12890677E+00 0.92316267E+02</pdfrwt>
<pdfrwt beam="2">  1       -2 0.53959664E-03 0.92316267E+02</pdfrwt>
<totfact> 0.15149925E+05</totfact>
</mgrwt>
</event>
<event>
 6    1  0.2866116E-002  0.8754354E+02  0.7546771E-02  0.1413242E+00
         -2   -1    0    0    0  501 -0.00000000000E+00  0.00000000000E+00  0.63307952786E+01  0.63307952786E+01  0.00000000000E+00 0.  1.
          2   -1    0    0  501    0  0.00000000000E+00 -0.00000000000E+00 -0.59922458139E+03  0.59922458139E+03  0.00000000000E+00 0. -1.
         23    2    1    2    0    0 -0.11064410047E+02 -0.10369089815E+02 -0.57694317777E+03  0.58354717139E+03  0.86220250885E+02 0.  0.
         11    1    3    3    0    0  0.25775837469E+02  0.36065303108E+01 -0.63956626121E+02  0.69049626232E+02  0.00000000000E+00 0.  1.
        -11    1    3    3    0    0 -0.36840247515E+02 -0.13975620126E+02 -0.51298655165E+03  0.51449754516E+03  0.00000000000E+00 0. -1.
         22    1    1    2    0    0  0.11064410047E+02  0.10369089815E+02 -0.15950608336E+02  0.22008205278E+02  0.00000000000E+00 0.  1.
<mgrwt>
<rscale>  0 0.56476749E+02</rscale>
<asrwt>0</asrwt>
<pdfrwt beam="1">  1        2 0.92188419E-01 0.87543537E+02</pdfrwt>
<pdfrwt beam="2">  1       -2 0.97396827E-03 0.87543537E+02</pdfrwt>
<totfact> 0.97027331E+04</totfact>
</mgrwt>
</event>
<event>
 6    1  0.2866116E-002  0.9147773E+02  0.7546771E-02  0.1427184E+00
         -1   -1    0    0    0  501 -0.00000000000E+00  0.00000000000E+00  0.20301136039E+02  0.20301136039E+02  0.00000000000E+00 0.  1.
          1   -1    0    0  501    0  0.00000000000E+00 -0.00000000000E+00 -0.15195410332E+03  0.15195410332E+03  0.00000000000E+00 0. -1.
         23    2    1    2    0    0  0.72454451253E+01  0.79085680653E+01 -0.13302408837E+03  0.16144219645E+03  0.90846754398E+02 0.  0.
         13    1    3    3    0    0 -0.26454845046E+02 -0.16781641961E+02 -0.10864602026E+03  0.11307272020E+03  0.00000000000E+00 0. -1.
        -13    1    3    3    0    0  0.33700290171E+02  0.24690210026E+02 -0.24378068107E+02  0.48369476257E+02  0.00000000000E+00 0.  1.
         22    1    1    2    0    0 -0.72454451253E+01 -0.79085680653E+01  0.13711210885E+01  0.10813042909E+02  0.00000000000E+00 0.  1.
<mgrwt>
<rscale>  0 0.53529544E+02</rscale>
<asrwt>0</asrwt>
<pdfrwt beam="1">  1        1 0.23377554E-01 0.91477728E+02</pdfrwt>
<pdfrwt beam="2">  1       -1 0.31232518E-02 0.91477728E+02</pdfrwt>
<totfact> 0.63803469E+04</totfact>
</mgrwt>
</event>
<event>
 6    1  0.2866116E-002  0.9828992E+02  0.7546771E-02  0.1366663E+00
         -2   -1    0    0    0  501 -0.00000000000E+00  0.00000000000E+00  0.15325601855E+02  0.15325601855E+02  0.00000000000E+00 0.  1.
          2   -1    0    0  501    0  0.00000000000E+00 -0.00000000000E+00 -0.94909719989E+03  0.94909719989E+03  0.00000000000E+00 0. -1.
         23    2    1    2    0    0 -0.19631998995E+02 -0.11305639930E+02 -0.93646460496E+03  0.94160865777E+03  0.95643479559E+02 0.  0.
         11    1    3    3    0    0 -0.55930806663E+02 -0.42663627586E+01 -0.70298780159E+03  0.70522216795E+03  0.00000000000E+00 0. -1.
        -11    1    3    3    0    0  0.36298807668E+02 -0.70392771713E+01 -0.23347680337E+03  0.23638648983E+03  0.00000000000E+00 0.  1.
         22    1    1    2    0    0  0.19631998995E+02  0.11305639930E+02  0.26930069224E+01  0.22814143970E+02  0.00000000000E+00 0.  1.
<mgrwt>
<rscale>  0 0.68103752E+02</rscale>
<asrwt>0</asrwt>
<pdfrwt beam="1">  1        2 0.14601500E+00 0.98289918E+02</pdfrwt>
<pdfrwt beam="2">  1       -2 0.23577842E-02 0.98289918E+02</pdfrwt>
<totfact> 0.15979809E+04</totfact>
</mgrwt>
</event>
<event>
 6    1  0.2866116E-002  0.9428672E+02  0.7546771E-02  0.1364564E+00
         -2   -1    0    0    0  501 -0.00000000000E+00  0.00000000000E+00  0.52101634559E+01  0.52101634559E+01  0.00000000000E+00 0.  1.
          2   -1    0    0  501    0  0.00000000000E+00 -0.00000000000E+00 -0.85243368544E+03  0.85243368544E+03  0.00000000000E+00 0. -1.
         23    2    1    2    0    0 -0.57143427481E+01  0.25956328685E+02 -0.77445839605E+03  0.78017677031E+03  0.90463257809E+02 0.  0.
         11    1    3    3    0    0 -0.16250044139E+02 -0.17152257039E+02 -0.58934236107E+03  0.58981580380E+03  0.00000000000E+00 0. -1.
        -11    1    3    3    0    0  0.10535701391E+02  0.43108585723E+02 -0.18511603497E+03  0.19036096651E+03  0.00000000000E+00 0.  1.
         22    1    1    2    0    0  0.57143427481E+01 -0.25956328685E+02 -0.72765125938E+02  0.77467078586E+02  0.00000000000E+00 0.  1.
<mgrwt>
<rscale>  0 0.68701791E+02</rscale>
<asrwt>0</asrwt>
<pdfrwt beam="1">  1        2 0.13114362E+00 0.94286721E+02</pdfrwt>
<pdfrwt beam="2">  1       -2 0.80156376E-03 0.94286721E+02</pdfrwt>
<totfact> 0.85196818E+04</totfact>
</mgrwt>
</event>
<event>
 6    1  0.2866116E-002  0.9240228E+02  0.7546771E-02  0.1397583E+00
         -2   -1    0    0    0  501 -0.00000000000E+00  0.00000000000E+00  0.10150915869E+02  0.10150915869E+02  0.00000000000E+00 0.  1.
          2   -1    0    0  501    0  0.00000000000E+00 -0.00000000000E+00 -0.45792327617E+03  0.45792327617E+03  0.00000000000E+00 0. -1.
         23    2    1    2    0    0 -0.10327908028E+02 -0.12857776473E+02 -0.44043508489E+03  0.45002360450E+03  0.90918603716E+02 0.  0.
         11    1    3    3    0    0 -0.25404981183E+02 -0.35288780898E+02 -0.39324654490E+03  0.39564321832E+03  0.00000000000E+00 0. -1.
        -11    1    3    3    0    0  0.15077073155E+02  0.22431004425E+02 -0.47188539994E+02  0.54380386181E+02  0.00000000000E+00 0.  1.
         22    1    1    2    0    0  0.10327908028E+02  0.12857776473E+02 -0.73372754052E+01  0.18050587537E+02  0.00000000000E+00 0.  1.
<mgrwt>
<rscale>  0 0.60059365E+02</rscale>
<asrwt>0</asrwt>
<pdfrwt beam="1">  1        2 0.70449737E-01 0.92402276E+02</pdfrwt>
<pdfrwt beam="2">  1       -2 0.15616793E-02 0.92402276E+02</pdfrwt>
<totfact> 0.67008208E+04</totfact>
</mgrwt>
</event>
<event>
 6    1  0.2866116E-002  0.1066094E+03  0.7546771E-02  0.1356911E+00
          2   -1    0    0  501    0  0.00000000000E+00  0.00000000000E+00  0.33962461269E+02  0.33962461269E+02  0.00000000000E+00 0. -1.
         -2   -1    0    0    0  501 -0.00000000000E+00 -0.00000000000E+00 -0.13223136435E+03  0.13223136435E+03  0.00000000000E+00 0.  1.
         23    2    1    2    0    0  0.61692969861E+01 -0.19975524500E+02 -0.59353251700E+02  0.12201793031E+03  0.10453939460E+03 0.  0.
         11    1    3    3    0    0  0.35149338663E+02  0.11271548593E+02  0.12079180518E+02  0.38838517197E+02  0.00000000000E+00 0. -1.
        -11    1    3    3    0    0 -0.28980041676E+02 -0.31247073092E+02 -0.71432432218E+02  0.83179413108E+02  0.00000000000E+00 0.  1.
         22    1    1    2    0    0 -0.61692969861E+01  0.19975524500E+02 -0.38915651376E+02  0.44175895309E+02  0.00000000000E+00 0.  1.
<mgrwt>
<rscale>  0 0.70944218E+02</rscale>
<asrwt>0</asrwt>
<pdfrwt beam="1">  1        2 0.52249941E-02 0.10660941E+03</pdfrwt>
<pdfrwt beam="2">  1       -2 0.20343287E-01 0.10660941E+03</pdfrwt>
<totfact> 0.27021625E+04</totfact>
</mgrwt>
</event>
<event>
 6    1  0.2866116E-002  0.9138594E+02  0.7546771E-02  0.1418689E+00
         -3   -1    0    0    0  501 -0.00000000000E+00  0.00000000000E+00  0.10653153986E+02  0.10653153986E+02  0.00000000000E+00 0.  1.
          3   -1    0    0  501    0  0.00000000000E+00 -0.00000000000E+00 -0.25437372290E+03  0.25437372290E+03  0.00000000000E+00 0. -1.
         23    2    1    2    0    0  0.12252752713E+02  0.56829125104E-01 -0.22227037977E+03  0.24032376386E+03  0.90560789399E+02 0.  0.
         13    1    3    3    0    0 -0.21755471594E+02 -0.30368165922E+02 -0.15210623237E+03  0.15662640892E+03  0.00000000000E+00 0. -1.
        -13    1    3    3    0    0  0.34008224307E+02  0.30424995047E+02 -0.70164147396E+02  0.83697354940E+02  0.00000000000E+00 0.  1.
         22    1    1    2    0    0 -0.12252752713E+02 -0.56829125104E-01 -0.21450189144E+02  0.24703113020E+02  0.00000000000E+00 0. -1.
<mgrwt>
<rscale>  0 0.55299234E+02</rscale>
<asrwt>0</asrwt>
<pdfrwt beam="1">  1        3 0.39134422E-01 0.91385938E+02</pdfrwt>
<pdfrwt beam="2">  1       -3 0.16389466E-02 0.91385938E+02</pdfrwt>
<totfact> 0.17199772E+04</totfact>
</mgrwt>
</event>
<event>
 6    1  0.2866116E-002  0.1011454E+03  0.7546771E-02  0.1363620E+00
          2   -1    0    0  501    0  0.00000000000E+00  0.00000000000E+00  0.27086694839E+02  0.27086694839E+02  0.00000000000E+00 0. -1.
         -2   -1    0    0    0  501 -0.00000000000E+00 -0.00000000000E+00 -0.13968368359E+03  0.13968368359E+03  0.00000000000E+00 0.  1.
         23    2    1    2    0    0  0.96306833610E+01 -0.19637264680E+02 -0.93109286823E+02  0.13747630475E+03  0.98752330856E+02 0.  0.
         11    1    3    3    0    0 -0.15907409415E+02  0.16160315174E+01  0.16479599558E+02  0.22961586046E+02  0.00000000000E+00 0. -1.
        -11    1    3    3    0    0  0.25538092776E+02 -0.21253296198E+02 -0.10958888638E+03  0.11451471871E+03  0.00000000000E+00 0.  1.
         22    1    1    2    0    0 -0.96306833610E+01  0.19637264680E+02 -0.19487701924E+02  0.29294073674E+02  0.00000000000E+00 0. -1.
<mgrwt>
<rscale>  0 0.68973203E+02</rscale>
<asrwt>0</asrwt>
<pdfrwt beam="1">  1        2 0.41671838E-02 0.10114542E+03</pdfrwt>
<pdfrwt beam="2">  1       -2 0.21489797E-01 0.10114542E+03</pdfrwt>
<totfact> 0.32834415E+04</totfact>
</mgrwt>
</event>
<event>
 6    1  0.2866116E-002  0.1088203E+03  0.7546771E-02  0.1295241E+00
         -1   -1    0    0    0  501 -0.00000000000E+00  0.00000000000E+00  0.14615459917E+02  0.14615459917E+02  0.00000000000E+00 0.  1.
          1   -1    0    0  501    0  0.00000000000E+00 -0.00000000000E+00 -0.50119790722E+03  0.50119790722E+03  0.00000000000E+00 0. -1.
         23    2    1    2    0    0  0.58194010545E+02 -0.68499750168E+01 -0.36449505154E+03  0.38039255180E+03  0.91697251049E+02 0.  0.
         11    1    3    3    0    0  0.35915802689E+02  0.99509984905E+01 -0.39892264681E+02  0.54592673823E+02  0.00000000000E+00 0.  1.
        -11    1    3    3    0    0  0.22278207856E+02 -0.16800973507E+02 -0.32460278686E+03  0.32579987798E+03  0.00000000000E+00 0. -1.
         22    1    1    2    0    0 -0.58194010545E+02  0.68499750168E+01 -0.12208739576E+03  0.13542081533E+03  0.00000000000E+00 0. -1.
<mgrwt>
<rscale>  0 0.93217816E+02</rscale>
<asrwt>0</asrwt>
<pdfrwt beam="1">  1        1 0.77107385E-01 0.10882027E+03</pdfrwt>
<pdfrwt beam="2">  1       -1 0.22485319E-02 0.10882027E+03</pdfrwt>
<totfact> 0.23858717E+04</totfact>
</mgrwt>
</event>
<event>
 6    1  0.2866116E-002  0.9285351E+02  0.7546771E-02  0.1413237E+00
         -1   -1    0    0    0  501 -0.00000000000E+00  0.00000000000E+00  0.13785999599E+03  0.13785999599E+03  0.00000000000E+00 0.  1.
          1   -1    0    0  501    0  0.00000000000E+00 -0.00000000000E+00 -0.21155861688E+02  0.21155861688E+02  0.00000000000E+00 0. -1.
         23    2    1    2    0    0  0.11286011462E+02 -0.58434579618E+01  0.89385950561E+02  0.12888608472E+03  0.91979642427E+02 0.  0.
         13    1    3    3    0    0  0.39596825728E+02  0.17954480996E+02  0.79485960396E+02  0.90599613110E+02  0.00000000000E+00 0.  1.
        -13    1    3    3    0    0 -0.28310814266E+02 -0.23797938958E+02  0.98999901652E+01  0.38286471610E+02  0.00000000000E+00 0. -1.
         22    1    1    2    0    0 -0.11286011462E+02  0.58434579618E+01  0.27318183742E+02  0.30129772960E+02  0.00000000000E+00 0.  1.
<mgrwt>
<rscale>  0 0.56477707E+02</rscale>
<asrwt>0</asrwt>
<pdfrwt beam="1">  1        1 0.32547480E-02 0.92853512E+02</pdfrwt>
<pdfrwt beam="2">  1       -1 0.21209230E-01 0.92853512E+02</pdfrwt>
<totfact> 0.48028171E+04</totfact>
</mgrwt>
</event>
<event>
 6    1  0.2866116E-002  0.9142661E+02  0.7546771E-02  0.1424284E+00
          1   -1    0    0  501    0  0.00000000000E+00  0.00000000000E+00  0.85320344096E+03  0.85320344096E+03  0.00000000000E+00 0. -1.
         -1   -1    0    0    0  501 -0.00000000000E+00 -0.00000000000E+00 -0.35069202040E+01  0.35069202040E+01  0.00000000000E+00 0.  1.
         23    2    1    2    0    0  0.52803793286E+01 -0.99107522229E+01  0.81780187837E+03  0.82289655291E+03  0.90734332618E+02 0.  0.
         13    1    3    3    0    0  0.46098364919E+01 -0.33253200052E+01  0.81602221480E+03  0.81604201080E+03  0.00000000000E+00 0. -1.
        -13    1    3    3    0    0  0.67054283676E+00 -0.65854322177E+01  0.17796635747E+01  0.68545421167E+01  0.00000000000E+00 0.  1.
         22    1    1    2    0    0 -0.52803793286E+01  0.99107522229E+01  0.31894642384E+02  0.33813808248E+02  0.00000000000E+00 0.  1.
<mgrwt>
<rscale>  0 0.54124783E+02</rscale>
<asrwt>0</asrwt>
<pdfrwt beam="1">  1        1 0.13126190E+00 0.91426607E+02</pdfrwt>
<pdfrwt beam="2">  1       -1 0.53952687E-03 0.91426607E+02</pdfrwt>
<totfact> 0.84350348E+04</totfact>
</mgrwt>
</event>
<event>
 6    1  0.2866116E-002  0.1075802E+03  0.7546771E-02  0.1299617E+00
         -2   -1    0    0    0  501 -0.00000000000E+00  0.00000000000E+00  0.28509030037E+02  0.28509030037E+02  0.00000000000E+00 0.  1.
          2   -1    0    0  501    0  0.00000000000E+00 -0.00000000000E+00 -0.35285596809E+03  0.35285596809E+03  0.00000000000E+00 0. -1.
         23    2    1    2    0    0 -0.47425335056E+02 -0.29641537983E+02 -0.30295112462E+03  0.32148541887E+03  0.91900530253E+02 0.  0.
         11    1    3    3    0    0 -0.31677418201E+02  0.27321858565E+02 -0.73756729510E+02  0.84793855481E+02  0.00000000000E+00 0. -1.
        -11    1    3    3    0    0 -0.15747916855E+02 -0.56963396548E+02 -0.22919439511E+03  0.23669156339E+03  0.00000000000E+00 0.  1.
         22    1    1    2    0    0  0.47425335056E+02  0.29641537983E+02 -0.21395813433E+02  0.59879579254E+02  0.00000000000E+00 0.  1.
<mgrwt>
<rscale>  0 0.91348983E+02</rscale>
<asrwt>0</asrwt>
<pdfrwt beam="1">  1        2 0.54285537E-01 0.10758016E+03</pdfrwt>
<pdfrwt beam="2">  1       -2 0.43860043E-02 0.10758016E+03</pdfrwt>
<totfact> 0.20048467E+04</totfact>
</mgrwt>
</event>
<event>
 6    1  0.2866116E-002  0.9059333E+02  0.7546771E-02  0.1423332E+00
         -2   -1    0    0    0  501 -0.00000000000E+00  0.00000000000E+00  0.15851320635E+02  0.15851320635E+02  0.00000000000E+00 0.  1.
          2   -1    0    0  501    0  0.00000000000E+00 -0.00000000000E+00 -0.40510193088E+03  0.40510193088E+03  0.00000000000E+00 0. -1.
         23    2    1    2    0    0 -0.11710769134E+02 -0.14800726236E+00 -0.39680587347E+03  0.40701603436E+03  0.89833106282E+02 0.  0.
         13    1    3    3    0    0 -0.65316171338E+01 -0.67484690693E+01  0.70362090045E+00  0.94180114426E+01  0.00000000000E+00 0.  1.
        -13    1    3    3    0    0 -0.51791520000E+01  0.66004618070E+01 -0.39750949437E+03  0.39759802291E+03  0.00000000000E+00 0. -1.
         22    1    1    2    0    0  0.11710769134E+02  0.14800726236E+00  0.75552632214E+01  0.13937217161E+02  0.00000000000E+00 0.  1.
<mgrwt>
<rscale>  0 0.54322179E+02</rscale>
<asrwt>0</asrwt>
<pdfrwt beam="1">  1        2 0.62323376E-01 0.90593328E+02</pdfrwt>
<pdfrwt beam="2">  1       -2 0.24386646E-02 0.90593328E+02</pdfrwt>
<totfact> 0.40138004E+04</totfact>
</mgrwt>
</event>
<event>
 6    1  0.2866116E-002  0.1055882E+03  0.7546771E-02  0.1304139E+00
         -1   -1    0    0    0  501 -0.00000000000E+00  0.00000000000E+00  0.27708431010E+02  0.27708431010E+02  0.00000000000E+00 0.  1.
          1   -1    0    0  501    0  0.00000000000E+00 -0.00000000000E+00 -0.11408203780E+04  0.11408203780E+04  0.00000000000E+00 0. -1.
         23    2    1    2    0    0 -0.54433892442E+02  0.10693410168E+00 -0.11089179123E+04  0.11139334795E+04  0.90475413789E+02 0.  0.
         13    1    3    3    0    0 -0.49549154229E+02  0.30671783828E+02 -0.38803271602E+03  0.39238407933E+03  0.00000000000E+00 0.  1.
        -13    1    3    3    0    0 -0.48847382133E+01 -0.30564849726E+02 -0.72088519624E+03  0.72154940016E+03  0.00000000000E+00 0. -1.
         22    1    1    2    0    0  0.54433892442E+02 -0.10693410168E+00 -0.41940347530E+01  0.54595329551E+02  0.00000000000E+00 0.  1.
<mgrwt>
<rscale>  0 0.89470320E+02</rscale>
<asrwt>0</asrwt>
<pdfrwt beam="1">  1        1 0.17551086E+00 0.10558816E+03</pdfrwt>
<pdfrwt beam="2">  1       -1 0.42628347E-02 0.10558816E+03</pdfrwt>
<totfact> 0.27705761E+03</totfact>
</mgrwt>
</event>
<event>
 6    1  0.2866116E-002  0.9434729E+02  0.7546771E-02  0.1379525E+00
          1   -1    0    0  501    0  0.00000000000E+00  0.00000000000E+00  0.28535973467E+03  0.28535973467E+03  0.00000000000E+00 0. -1.
         -1   -1    0    0    0  501 -0.00000000000E+00 -0.00000000000E+00 -0.12562719646E+02  0.12562719646E+02  0.00000000000E+00 0.  1.
         23    2    1    2    0    0 -0.83566215020E+01  0.18962810548E+02  0.24950049046E+03  0.26674314445E+03  0.92043408590E+02 0.  0.
         13    1    3    3    0    0  0.92965285460E+01 -0.29245509184E+02  0.16531009103E+03  0.16813432560E+03  0.00000000000E+00 0. -1.
        -13    1    3    3    0    0 -0.17653150048E+02  0.48208319732E+02  0.84190399435E+02  0.98608818850E+02  0.00000000000E+00 0.  1.
         22    1    1    2    0    0  0.83566215020E+01 -0.18962810548E+02  0.23296524558E+02  0.31179309859E+02  0.00000000000E+00 0.  1.
<mgrwt>
<rscale>  0 0.64588843E+02</rscale>
<asrwt>0</asrwt>
<pdfrwt beam="1">  1        1 0.43901493E-01 0.94347286E+02</pdfrwt>
<pdfrwt beam="2">  1       -1 0.19327263E-02 0.94347286E+02</pdfrwt>
<totfact> 0.58813090E+04</totfact>
</mgrwt>
</event>
<event>
 6    1  0.2866116E-002  0.9289117E+02  0.7546771E-02  0.1426263E+00
          2   -1    0    0  501    0  0.00000000000E+00  0.00000000000E+00  0.14098984671E+04  0.14098984671E+04  0.00000000000E+00 0. -1.
         -2   -1    0    0    0  501 -0.00000000000E+00 -0.00000000000E+00 -0.30208651171E+01  0.30208651171E+01  0.00000000000E+00 0.  1.
         23    2    1    2    0    0 -0.58373852424E+01  0.85930494805E+01  0.13900035220E+04  0.13931039306E+04  0.92308475992E+02 0.  0.
         13    1    3    3    0    0  0.41863406788E+02 -0.84470545073E+00  0.80246979260E+03  0.80356146398E+03  0.00000000000E+00 0. -1.
        -13    1    3    3    0    0 -0.47700792031E+02  0.94377549312E+01  0.58753372938E+03  0.58954246661E+03  0.00000000000E+00 0.  1.
         22    1    1    2    0    0  0.58373852424E+01 -0.85930494805E+01  0.16874080021E+02  0.19815401646E+02  0.00000000000E+00 0.  1.
<mgrwt>
<rscale>  0 0.53717569E+02</rscale>
<asrwt>0</asrwt>
<pdfrwt beam="1">  1        2 0.21690693E+00 0.92891175E+02</pdfrwt>
<pdfrwt beam="2">  1       -2 0.46474961E-03 0.92891175E+02</pdfrwt>
<totfact> 0.88800040E+04</totfact>
</mgrwt>
</event>
<event>
 6    1  0.2866116E-002  0.9398194E+02  0.7546771E-02  0.1356585E+00
         -2   -1    0    0    0  501 -0.00000000000E+00  0.00000000000E+00  0.39019854539E+02  0.39019854539E+02  0.00000000000E+00 0.  1.
          2   -1    0    0  501    0  0.00000000000E+00 -0.00000000000E+00 -0.15818894069E+03  0.15818894069E+03  0.00000000000E+00 0. -1.
         23    2    1    2    0    0 -0.26779766971E+02 -0.14980842680E+02 -0.13356354306E+03  0.16331510915E+03  0.88831431803E+02 0.  0.
         11    1    3    3    0    0 -0.52292689608E+02 -0.87839038995E+01 -0.12486406891E+03  0.13565661819E+03  0.00000000000E+00 0. -1.
        -11    1    3    3    0    0  0.25512922637E+02 -0.61969387803E+01 -0.86994741489E+01  0.27658490961E+02  0.00000000000E+00 0.  1.
         22    1    1    2    0    0  0.26779766971E+02  0.14980842680E+02  0.14394456907E+02  0.33893686079E+02  0.00000000000E+00 0.  1.
<mgrwt>
<rscale>  0 0.71042060E+02</rscale>
<asrwt>0</asrwt>
<pdfrwt beam="1">  1        2 0.24336760E-01 0.93981939E+02</pdfrwt>
<pdfrwt beam="2">  1       -2 0.60030546E-02 0.93981939E+02</pdfrwt>
<totfact> 0.29022052E+04</totfact>
</mgrwt>
</event>
<event>
 6    1  0.2866116E-002  0.9498784E+02  0.7546771E-02  0.1355985E+00
         -2   -1    0    0    0  501 -0.00000000000E+00  0.00000000000E+00  0.35806252804E+01  0.35806252804E+01  0.00000000000E+00 0.  1.
          2   -1    0    0  501    0  0.00000000000E+00 -0.00000000000E+00 -0.17260439303E+04  0.17260439303E+04  0.00000000000E+00 0. -1.
         23    2    1    2    0    0 -0.22905409685E+02  0.19410456106E+02 -0.16217975463E+04  0.16245768589E+04  0.90118065340E+02 0.  0.
         11    1    3    3    0    0 -0.41185168995E+02 -0.44927421416E+01 -0.14145022989E+04  0.14151088850E+04  0.00000000000E+00 0. -1.
        -11    1    3    3    0    0  0.18279759310E+02  0.23903198247E+02 -0.20729524737E+03  0.20946797385E+03  0.00000000000E+00 0.  1.
         22    1    1    2    0    0  0.22905409685E+02 -0.19410456106E+02 -0.10066575878E+03  0.10504769674E+03  0.00000000000E+00 0. -1.
<mgrwt>
<rscale>  0 0.71222484E+02</rscale>
<asrwt>0</asrwt>
<pdfrwt beam="1">  1        2 0.26554493E+00 0.94987838E+02</pdfrwt>
<pdfrwt beam="2">  1       -2 0.55086603E-03 0.94987838E+02</pdfrwt>
<totfact> 0.48408681E+04</totfact>
</mgrwt>
</event>
<event>
 6    1  0.2866116E-002  0.9356299E+02  0.7546771E-02  0.1396349E+00
          2   -1    0    0  501    0  0.00000000000E+00  0.00000000000E+00  0.12968875045E+03  0.12968875045E+03  0.00000000000E+00 0. -1.
         -2   -1    0    0    0  501 -0.00000000000E+00 -0.00000000000E+00 -0.58461905381E+02  0.58461905381E+02  0.00000000000E+00 0.  1.
         23    2    1    2    0    0 -0.14925093716E+02  0.63010232926E+01  0.11101902015E+03  0.14518696750E+03  0.92149722626E+02 0.  0.
         13    1    3    3    0    0 -0.46816249047E+02  0.17229136549E+02  0.96193293223E+02  0.10835937422E+03  0.00000000000E+00 0. -1.
        -13    1    3    3    0    0  0.31891155330E+02 -0.10928113257E+02  0.14825726925E+02  0.36827593276E+02  0.00000000000E+00 0.  1.
         22    1    1    2    0    0  0.14925093716E+02 -0.63010232926E+01 -0.39792175082E+02  0.42963688328E+02  0.00000000000E+00 0.  1.
<mgrwt>
<rscale>  0 0.60354718E+02</rscale>
<asrwt>0</asrwt>
<pdfrwt beam="1">  1        2 0.19952115E-01 0.93562988E+02</pdfrwt>
<pdfrwt beam="2">  1       -2 0.89941394E-02 0.93562988E+02</pdfrwt>
<totfact> 0.19533596E+04</totfact>
</mgrwt>
</event>
<event>
 6    1  0.2866116E-002  0.9646153E+02  0.7546771E-02  0.1357940E+00
          2   -1    0    0  501    0  0.00000000000E+00  0.00000000000E+00  0.65199673703E+03  0.65199673703E+03  0.00000000000E+00 0. -1.
         -2   -1    0    0    0  501 -0.00000000000E+00 -0.00000000000E+00 -0.14868719636E+02  0.14868719636E+02  0.00000000000E+00 0.  1.
         23    2    1    2    0    0  0.13498240971E+02  0.24231409528E+02  0.63116592056E+03  0.63849451527E+03  0.92387569757E+02 0.  0.
         11    1    3    3    0    0  0.11070121126E+02  0.14464637307E+02  0.19271147825E+02  0.26516984230E+02  0.00000000000E+00 0.  1.
        -11    1    3    3    0    0  0.24281198449E+01  0.97667722202E+01  0.61189477273E+03  0.61197753104E+03  0.00000000000E+00 0. -1.
         22    1    1    2    0    0 -0.13498240971E+02 -0.24231409528E+02  0.59620968415E+01  0.28370941397E+02  0.00000000000E+00 0.  1.
<mgrwt>
<rscale>  0 0.70636972E+02</rscale>
<asrwt>0</asrwt>
<pdfrwt beam="1">  1        2 0.10030717E+00 0.96461530E+02</pdfrwt>
<pdfrwt beam="2">  1       -2 0.22874958E-02 0.96461530E+02</pdfrwt>
<totfact> 0.26376924E+04</totfact>
</mgrwt>
</event>
<event>
 6    1  0.2866116E-002  0.9235842E+02  0.7546771E-02  0.1406527E+00
          2   -1    0    0  501    0  0.00000000000E+00  0.00000000000E+00  0.24814057462E+03  0.24814057462E+03  0.00000000000E+00 0. -1.
         -2   -1    0    0    0  501 -0.00000000000E+00 -0.00000000000E+00 -0.17128398061E+02  0.17128398061E+02  0.00000000000E+00 0.  1.
         23    2    1    2    0    0 -0.12236412617E+02  0.74781199371E+01  0.23314362123E+03  0.25077086495E+03  0.91238295237E+02 0.  0.
         11    1    3    3    0    0  0.35032719385E+01 -0.25756523865E+02  0.15973659653E+02  0.30509494237E+02  0.00000000000E+00 0.  1.
        -11    1    3    3    0    0 -0.15739684555E+02  0.33234643802E+02  0.21716996157E+03  0.22026137071E+03  0.00000000000E+00 0. -1.
         22    1    1    2    0    0  0.12236412617E+02 -0.74781199371E+01 -0.21314446641E+01  0.14498107734E+02  0.00000000000E+00 0. -1.
<mgrwt>
<rscale>  0 0.57976103E+02</rscale>
<asrwt>0</asrwt>
<pdfrwt beam="1">  1        2 0.38175470E-01 0.92358425E+02</pdfrwt>
<pdfrwt beam="2">  1       -2 0.26351383E-02 0.92358425E+02</pdfrwt>
<totfact> 0.60111371E+04</totfact>
</mgrwt>
</event>
<event>
 6    1  0.2866116E-002  0.9493598E+02  0.7546771E-02  0.1389757E+00
          2   -1    0    0  501    0  0.00000000000E+00  0.00000000000E+00  0.46024556505E+03  0.46024556505E+03  0.00000000000E+00 0. -1.
         -2   -1    0    0    0  501 -0.00000000000E+00 -0.00000000000E+00 -0.16184492214E+02  0.16184492214E+02  0.00000000000E+00 0.  1.
         23    2    1    2    0    0  0.17162010242E+02  0.15585195674E+01  0.44866009623E+03  0.45859428997E+03  0.93358862802E+02 0.  0.
         11    1    3    3    0    0 -0.30884671935E+02 -0.21261473720E+02  0.12199903083E+03  0.12763101797E+03  0.00000000000E+00 0.  1.
        -11    1    3    3    0    0  0.48046682177E+02  0.22819993287E+02  0.32666106540E+03  0.33096327200E+03  0.00000000000E+00 0. -1.
         22    1    1    2    0    0 -0.17162010242E+02 -0.15585195674E+01 -0.45990233954E+01  0.17835767294E+02  0.00000000000E+00 0.  1.
<mgrwt>
<rscale>  0 0.61967081E+02</rscale>
<asrwt>0</asrwt>
<pdfrwt beam="1">  1        2 0.70807000E-01 0.94935983E+02</pdfrwt>
<pdfrwt beam="2">  1       -2 0.24899222E-02 0.94935983E+02</pdfrwt>
<totfact> 0.34201213E+04</totfact>
</mgrwt>
</event>
<event>
 6    1  0.2866116E-002  0.9829150E+02  0.7546771E-02  0.1332516E+00
         -2   -1    0    0    0  501 -0.00000000000E+00  0.00000000000E+00  0.12762145417E+02  0.12762145417E+02  0.00000000000E+00 0.  1.
          2   -1    0    0  501    0  0.00000000000E+00 -0.00000000000E+00 -0.41377290634E+03  0.41377290634E+03  0.00000000000E+00 0. -1.
         23    2    1    2    0    0  0.37020508574E+02  0.16633871591E+02 -0.33428033217E+03  0.34843157001E+03  0.89521029737E+02 0.  0.
         11    1    3    3    0    0  0.14429549545E+02 -0.94958238769E+01 -0.29740162147E+03  0.29790284830E+03  0.00000000000E+00 0. -1.
        -11    1    3    3    0    0  0.22590959029E+02  0.26129695468E+02 -0.36878710705E+02  0.50528721717E+02  0.00000000000E+00 0.  1.
         22    1    1    2    0    0 -0.37020508574E+02 -0.16633871591E+02 -0.66730428751E+02  0.78103481744E+02  0.00000000000E+00 0.  1.
<mgrwt>
<rscale>  0 0.78791683E+02</rscale>
<asrwt>0</asrwt>
<pdfrwt beam="1">  1        2 0.63657366E-01 0.98291498E+02</pdfrwt>
<pdfrwt beam="2">  1       -2 0.19634071E-02 0.98291498E+02</pdfrwt>
<totfact> 0.54187029E+04</totfact>
</mgrwt>
</event>
<event>
 6    1  0.2866116E-002  0.9745547E+02  0.7546771E-02  0.1418014E+00
         -2   -1    0    0    0  501 -0.00000000000E+00  0.00000000000E+00  0.50634412318E+01  0.50634412318E+01  0.00000000000E+00 0. -1.
          2   -1    0    0  501    0  0.00000000000E+00 -0.00000000000E+00 -0.97666632427E+03  0.97666632427E+03  0.00000000000E+00 0.  1.
         23    2    1    2    0    0  0.15573727955E+01  0.10089353704E+02 -0.96421650446E+03  0.96912900931E+03  0.96919289830E+02 0.  0.
         13    1    3    3    0    0  0.88492434066E+01  0.50724919023E+02 -0.38263582477E+03  0.38608483642E+03  0.00000000000E+00 0. -1.
        -13    1    3    3    0    0 -0.72918706111E+01 -0.40635565319E+02 -0.58158067969E+03  0.58304417288E+03  0.00000000000E+00 0.  1.
         22    1    1    2    0    0 -0.15573727955E+01 -0.10089353704E+02 -0.73863785816E+01  0.12600756197E+02  0.00000000000E+00 0. -1.
<mgrwt>
<rscale>  0 0.55443266E+02</rscale>
<asrwt>0</asrwt>
<pdfrwt beam="1">  1        2 0.15025632E+00 0.97455473E+02</pdfrwt>
<pdfrwt beam="2">  1       -2 0.77899116E-03 0.97455473E+02</pdfrwt>
<totfact> 0.74679146E+04</totfact>
</mgrwt>
</event>
<event>
 6    1  0.2866116E-002  0.9713971E+02  0.7546771E-02  0.1338215E+00
         -3   -1    0    0    0  501 -0.00000000000E+00  0.00000000000E+00  0.38248437371E+03  0.38248437371E+03  0.00000000000E+00 0.  1.
          3   -1    0    0  501    0  0.00000000000E+00 -0.00000000000E+00 -0.13357111294E+02  0.13357111294E+02  0.00000000000E+00 0. -1.
         23    2    1    2    0    0 -0.19812406555E+02  0.32504415332E+02  0.19817388315E+03  0.22070118024E+03  0.89370322411E+02 0.  0.
         13    1    3    3    0    0 -0.34916324858E+02  0.42082440993E+02  0.59233558739E+02  0.80614490400E+02  0.00000000000E+00 0. -1.
        -13    1    3    3    0    0  0.15103918303E+02 -0.95780256607E+01  0.13894032441E+03  0.14008668984E+03  0.00000000000E+00 0.  1.
         22    1    1    2    0    0  0.19812406555E+02 -0.32504415332E+02  0.17095337927E+03  0.17514030476E+03  0.00000000000E+00 0.  1.
<mgrwt>
<rscale>  0 0.76857050E+02</rscale>
<asrwt>0</asrwt>
<pdfrwt beam="1">  1        3 0.20549405E-02 0.97139709E+02</pdfrwt>
<pdfrwt beam="2">  1       -3 0.58843742E-01 0.97139709E+02</pdfrwt>
<totfact> 0.55612453E+03</totfact>
</mgrwt>
</event>
<event>
 6    1  0.2866116E-002  0.9528215E+02  0.7546771E-02  0.1381411E+00
         -2   -1    0    0    0  501 -0.00000000000E+00  0.00000000000E+00  0.13211724975E+02  0.13211724975E+02  0.00000000000E+00 0. -1.
          2   -1    0    0  501    0  0.00000000000E+00 -0.00000000000E+00 -0.36512719841E+03  0.36512719841E+03  0.00000000000E+00 0.  1.
         23    2    1    2    0    0 -0.17060933109E+02 -0.94629125707E+01 -0.34455542878E+03  0.35748724695E+03  0.93263423035E+02 0.  0.
         13    1    3    3    0    0  0.34083479538E+02 -0.49002988396E+01 -0.68175726519E+02  0.76378178772E+02  0.00000000000E+00 0. -1.
        -13    1    3    3    0    0 -0.51144412647E+02 -0.45626137311E+01 -0.27637970226E+03  0.28110906817E+03  0.00000000000E+00 0.  1.
         22    1    1    2    0    0  0.17060933109E+02  0.94629125707E+01 -0.73600446550E+01  0.20851676436E+02  0.00000000000E+00 0. -1.
<mgrwt>
<rscale>  0 0.64094449E+02</rscale>
<asrwt>0</asrwt>
<pdfrwt beam="1">  1        2 0.56173407E-01 0.95282151E+02</pdfrwt>
<pdfrwt beam="2">  1       -2 0.20325734E-02 0.95282151E+02</pdfrwt>
<totfact> 0.58582655E+04</totfact>
</mgrwt>
</event>
<event>
 6    1  0.2866116E-002  0.9219505E+02  0.7546771E-02  0.1410862E+00
          2   -1    0    0  501    0  0.00000000000E+00  0.00000000000E+00  0.24981864144E+03  0.24981864144E+03  0.00000000000E+00 0. -1.
         -2   -1    0    0    0  501 -0.00000000000E+00 -0.00000000000E+00 -0.11341225104E+02  0.11341225104E+02  0.00000000000E+00 0.  1.
         23    2    1    2    0    0 -0.83160648476E+01  0.10598995112E+02  0.19607452470E+03  0.21666828474E+03  0.91205431558E+02 0.  0.
         11    1    3    3    0    0  0.37322652432E+01 -0.17221609408E+02 -0.63824912261E+00  0.17632952005E+02  0.00000000000E+00 0.  1.
        -11    1    3    3    0    0 -0.12048330091E+02  0.27820604520E+02  0.19671277382E+03  0.19903533274E+03  0.00000000000E+00 0. -1.
         22    1    1    2    0    0  0.83160648476E+01 -0.10598995112E+02  0.42402891644E+02  0.44491581807E+02  0.00000000000E+00 0. -1.
<mgrwt>
<rscale>  0 0.57001851E+02</rscale>
<asrwt>0</asrwt>
<pdfrwt beam="1">  1        2 0.38433633E-01 0.92195045E+02</pdfrwt>
<pdfrwt beam="2">  1       -2 0.17448041E-02 0.92195045E+02</pdfrwt>
<totfact> 0.10803741E+05</totfact>
</mgrwt>
</event>
<event>
 6    1  0.2866116E-002  0.9056178E+02  0.7546771E-02  0.1391695E+00
         -3   -1    0    0    0  501 -0.00000000000E+00  0.00000000000E+00  0.14561772316E+03  0.14561772316E+03  0.00000000000E+00 0.  1.
          3   -1    0    0  501    0  0.00000000000E+00 -0.00000000000E+00 -0.20713274011E+02  0.20713274011E+02  0.00000000000E+00 0. -1.
         23    2    1    2    0    0 -0.82552324091E+00  0.19226376718E+02  0.10140663369E+03  0.13595860211E+03  0.88493508695E+02 0.  0.
         13    1    3    3    0    0  0.18916509091E+02  0.20205916874E+02 -0.46579067469E+01  0.28067944138E+02  0.00000000000E+00 0. -1.
        -13    1    3    3    0    0 -0.19742032332E+02 -0.97954015587E+00  0.10606454044E+03  0.10789065797E+03  0.00000000000E+00 0.  1.
         22    1    1    2    0    0  0.82552324091E+00 -0.19226376718E+02  0.23497815455E+02  0.30372395056E+02  0.00000000000E+00 0. -1.
<mgrwt>
<rscale>  0 0.61486967E+02</rscale>
<asrwt>0</asrwt>
<pdfrwt beam="1">  1        3 0.31866576E-02 0.90561781E+02</pdfrwt>
<pdfrwt beam="2">  1       -3 0.22402726E-01 0.90561781E+02</pdfrwt>
<totfact> 0.17377542E+04</totfact>
</mgrwt>
</event>
<event>
 6    1  0.2866116E-002  0.1049688E+03  0.7546771E-02  0.1377444E+00
         -3   -1    0    0    0  501 -0.00000000000E+00  0.00000000000E+00  0.17214337756E+02  0.17214337756E+02  0.00000000000E+00 0.  1.
          3   -1    0    0  501    0  0.00000000000E+00 -0.00000000000E+00 -0.24649952471E+03  0.24649952471E+03  0.00000000000E+00 0. -1.
         23    2    1    2    0    0 -0.15566386468E+02  0.18612828546E+00 -0.22382481711E+03  0.24721650903E+03  0.10380802740E+03 0.  0.
         13    1    3    3    0    0 -0.23729986236E+02  0.18799749435E+01 -0.57522745777E+00  0.23811288062E+02  0.00000000000E+00 0.  1.
        -13    1    3    3    0    0  0.81635997673E+01 -0.16938466580E+01 -0.22324958965E+03  0.22340522097E+03  0.00000000000E+00 0. -1.
         22    1    1    2    0    0  0.15566386468E+02 -0.18612828546E+00 -0.54603698437E+01  0.16497353432E+02  0.00000000000E+00 0. -1.
<mgrwt>
<rscale>  0 0.65140330E+02</rscale>
<asrwt>0</asrwt>
<pdfrwt beam="1">  1        3 0.37923004E-01 0.10496882E+03</pdfrwt>
<pdfrwt beam="2">  1       -3 0.26483596E-02 0.10496882E+03</pdfrwt>
<totfact> 0.91256397E+03</totfact>
</mgrwt>
</event>
<event>
 6    1  0.2866116E-002  0.9041156E+02  0.7546771E-02  0.1367660E+00
         -2   -1    0    0    0  501 -0.00000000000E+00  0.00000000000E+00  0.26141046760E+01  0.26141046760E+01  0.00000000000E+00 0.  1.
          2   -1    0    0  501    0  0.00000000000E+00 -0.00000000000E+00 -0.16457620479E+04  0.16457620479E+04  0.00000000000E+00 0. -1.
         23    2    1    2    0    0 -0.21814553762E+02  0.18540593345E+02 -0.14781833006E+04  0.14809456844E+04  0.85759090558E+02 0.  0.
         11    1    3    3    0    0 -0.33801386425E+02  0.11366069212E+02 -0.14372842844E+04  0.14377266206E+04  0.00000000000E+00 0. -1.
        -11    1    3    3    0    0  0.11986832663E+02  0.71745241333E+01 -0.40899016164E+02  0.43219063814E+02  0.00000000000E+00 0.  1.
         22    1    1    2    0    0  0.21814553762E+02 -0.18540593345E+02 -0.16496464261E+03  0.16743046816E+03  0.00000000000E+00 0.  1.
<mgrwt>
<rscale>  0 0.67821922E+02</rscale>
<asrwt>0</asrwt>
<pdfrwt beam="1">  1        2 0.25319401E+00 0.90411559E+02</pdfrwt>
<pdfrwt beam="2">  1       -2 0.40217019E-03 0.90411559E+02</pdfrwt>
<totfact> 0.82160526E+04</totfact>
</mgrwt>
</event>
<event>
 6    1  0.2866116E-002  0.9258126E+02  0.7546771E-02  0.1408296E+00
          2   -1    0    0  501    0  0.00000000000E+00  0.00000000000E+00  0.68313291662E+03  0.68313291662E+03  0.00000000000E+00 0. -1.
         -2   -1    0    0    0  501 -0.00000000000E+00 -0.00000000000E+00 -0.62758111788E+01  0.62758111788E+01  0.00000000000E+00 0.  1.
         23    2    1    2    0    0  0.54926188273E+00 -0.13837211509E+02  0.66428359461E+03  0.67070409507E+03  0.91539712485E+02 0.  0.
         11    1    3    3    0    0  0.31401357648E+02  0.20517839143E+02  0.44685113503E+03  0.44842275128E+03  0.00000000000E+00 0. -1.
        -11    1    3    3    0    0 -0.30852095765E+02 -0.34355050652E+02  0.21743245958E+03  0.22228134379E+03  0.00000000000E+00 0.  1.
         22    1    1    2    0    0 -0.54926188273E+00  0.13837211509E+02  0.12573510831E+02  0.18704632731E+02  0.00000000000E+00 0. -1.
<mgrwt>
<rscale>  0 0.57575792E+02</rscale>
<asrwt>0</asrwt>
<pdfrwt beam="1">  1        2 0.10509731E+00 0.92581257E+02</pdfrwt>
<pdfrwt beam="2">  1       -2 0.96550995E-03 0.92581257E+02</pdfrwt>
<totfact> 0.85289219E+04</totfact>
</mgrwt>
</event>
<event>
 6    1  0.2866116E-002  0.8884766E+02  0.7546771E-02  0.1391377E+00
          2   -1    0    0  501    0  0.00000000000E+00  0.00000000000E+00  0.13198217629E+03  0.13198217629E+03  0.00000000000E+00 0. -1.
         -2   -1    0    0    0  501 -0.00000000000E+00 -0.00000000000E+00 -0.33790848191E+02  0.33790848191E+02  0.00000000000E+00 0.  1.
         23    2    1    2    0    0  0.10246551514E+02 -0.17736973479E+02  0.11056660890E+03  0.14184104544E+03  0.86454121486E+02 0.  0.
         11    1    3    3    0    0 -0.15063867845E+02  0.86548982389E+01 -0.69913743916E+01  0.18727164597E+02  0.00000000000E+00 0.  1.
        -11    1    3    3    0    0  0.25310419359E+02 -0.26391871718E+02  0.11755798329E+03  0.12311388084E+03  0.00000000000E+00 0. -1.
         22    1    1    2    0    0 -0.10246551514E+02  0.17736973479E+02 -0.12375280797E+02  0.23931979043E+02  0.00000000000E+00 0.  1.
<mgrwt>
<rscale>  0 0.61565571E+02</rscale>
<asrwt>0</asrwt>
<pdfrwt beam="1">  1        2 0.20304950E-01 0.88847663E+02</pdfrwt>
<pdfrwt beam="2">  1       -2 0.51985921E-02 0.88847663E+02</pdfrwt>
<totfact> 0.43636841E+04</totfact>
</mgrwt>
</event>
<event>
 6    1  0.2866116E-002  0.9256643E+02  0.7546771E-02  0.1394925E+00
          4   -1    0    0  501    0  0.00000000000E+00  0.00000000000E+00  0.30125393123E+02  0.30125393123E+02  0.00000000000E+00 0. -1.
         -4   -1    0    0    0  501 -0.00000000000E+00 -0.00000000000E+00 -0.10926192671E+03  0.10926192671E+03  0.00000000000E+00 0.  1.
         23    2    1    2    0    0 -0.16996795751E+02  0.19963395755E+01 -0.49012374531E+02  0.10474137640E+03  0.90970691081E+02 0.  0.
         13    1    3    3    0    0 -0.25036208236E+02 -0.40242400037E+02 -0.36915478910E+02  0.60075078583E+02  0.00000000000E+00 0.  1.
        -13    1    3    3    0    0  0.80394124852E+01  0.42238739612E+02 -0.12096895621E+02  0.44666297818E+02  0.00000000000E+00 0. -1.
         22    1    1    2    0    0  0.16996795751E+02 -0.19963395755E+01 -0.30124159059E+02  0.34645943435E+02  0.00000000000E+00 0.  1.
<mgrwt>
<rscale>  0 0.60698181E+02</rscale>
<asrwt>0</asrwt>
<pdfrwt beam="1">  1        4 0.46346759E-02 0.92566425E+02</pdfrwt>
<pdfrwt beam="2">  1       -4 0.16809527E-01 0.92566425E+02</pdfrwt>
<totfact> 0.12117481E+04</totfact>
</mgrwt>
</event>
<event>
 6    1  0.2866116E-002  0.1009470E+03  0.7546771E-02  0.1407454E+00
         -2   -1    0    0    0  501 -0.00000000000E+00  0.00000000000E+00  0.27158912527E+01  0.27158912527E+01  0.00000000000E+00 0.  1.
          2   -1    0    0  501    0  0.00000000000E+00 -0.00000000000E+00 -0.14488292504E+04  0.14488292504E+04  0.00000000000E+00 0. -1.
         23    2    1    2    0    0 -0.86660749003E+01 -0.64857886296E+01 -0.14151206177E+04  0.14187165515E+04  0.10036495689E+03 0.  0.
         11    1    3    3    0    0  0.38918393077E+02  0.16192575787E+02 -0.87917653156E+03  0.88018646575E+03  0.00000000000E+00 0.  1.
        -11    1    3    3    0    0 -0.47584467977E+02 -0.22678364417E+02 -0.53594408616E+03  0.53853008578E+03  0.00000000000E+00 0. -1.
         22    1    1    2    0    0  0.86660749003E+01  0.64857886296E+01 -0.30992741392E+02  0.32828590091E+02  0.00000000000E+00 0.  1.
<mgrwt>
<rscale>  0 0.57765736E+02</rscale>
<asrwt>0</asrwt>
<pdfrwt beam="1">  1        2 0.22289737E+00 0.10094697E+03</pdfrwt>
<pdfrwt beam="2">  1       -2 0.41782838E-03 0.10094697E+03</pdfrwt>
<totfact> 0.99342625E+04</totfact>
</mgrwt>
</event>
<event>
 6    1  0.2866116E-002  0.1068451E+03  0.7546771E-02  0.1314200E+00
         -2   -1    0    0    0  501 -0.00000000000E+00  0.00000000000E+00  0.71927583719E+01  0.71927583719E+01  0.00000000000E+00 0.  1.
          2   -1    0    0  501    0  0.00000000000E+00 -0.00000000000E+00 -0.83016179438E+03  0.83016179438E+03  0.00000000000E+00 0. -1.
         23    2    1    2    0    0 -0.42921068268E+02  0.85136016142E+01 -0.66096695779E+03  0.66954700566E+03  0.97473965680E+02 0.  0.
         13    1    3    3    0    0 -0.16061801400E+02  0.52289506051E+02 -0.30024966323E+03  0.30519179900E+03  0.00000000000E+00 0.  1.
        -13    1    3    3    0    0 -0.26859266869E+02 -0.43775904436E+02 -0.36071729456E+03  0.36435520666E+03  0.00000000000E+00 0. -1.
         22    1    1    2    0    0  0.42921068268E+02 -0.85136016142E+01 -0.16200207822E+03  0.16780754709E+03  0.00000000000E+00 0. -1.
<mgrwt>
<rscale>  0 0.85472914E+02</rscale>
<asrwt>0</asrwt>
<pdfrwt beam="1">  1        2 0.12771715E+00 0.10684509E+03</pdfrwt>
<pdfrwt beam="2">  1       -2 0.11065786E-02 0.10684509E+03</pdfrwt>
<totfact> 0.56593478E+04</totfact>
</mgrwt>
</event>
<event>
 6    1  0.2866116E-002  0.9744679E+02  0.7546771E-02  0.1404657E+00
         -3   -1    0    0    0  501 -0.00000000000E+00  0.00000000000E+00  0.15811763955E+02  0.15811763955E+02  0.00000000000E+00 0.  1.
          3   -1    0    0  501    0  0.00000000000E+00 -0.00000000000E+00 -0.19518629546E+03  0.19518629546E+03  0.00000000000E+00 0. -1.
         23    2    1    2    0    0  0.49537400652E+01 -0.11556237152E+02 -0.16703118924E+03  0.19337863105E+03  0.96632244149E+02 0.  0.
         13    1    3    3    0    0  0.26552222287E+02  0.31048206483E+02 -0.11823753623E+03  0.12509646921E+03  0.00000000000E+00 0. -1.
        -13    1    3    3    0    0 -0.21598482222E+02 -0.42604443635E+02 -0.48793653011E+02  0.68282161842E+02  0.00000000000E+00 0.  1.
         22    1    1    2    0    0 -0.49537400652E+01  0.11556237152E+02 -0.12343342268E+02  0.17619428370E+02  0.00000000000E+00 0.  1.
<mgrwt>
<rscale>  0 0.58403299E+02</rscale>
<asrwt>0</asrwt>
<pdfrwt beam="1">  1        3 0.30028661E-01 0.97446789E+02</pdfrwt>
<pdfrwt beam="2">  1       -3 0.24325790E-02 0.97446789E+02</pdfrwt>
<totfact> 0.15780536E+04</totfact>
</mgrwt>
</event>
<event>
 6    1  0.2866116E-002  0.9209979E+02  0.7546771E-02  0.1427583E+00
          2   -1    0    0  501    0  0.00000000000E+00  0.00000000000E+00  0.14689275724E+03  0.14689275724E+03  0.00000000000E+00 0.  1.
         -2   -1    0    0    0  501 -0.00000000000E+00 -0.00000000000E+00 -0.22566725956E+02  0.22566725956E+02  0.00000000000E+00 0. -1.
         23    2    1    2    0    0  0.81695645706E+00 -0.10414182460E+02  0.12859549216E+03  0.15817449714E+03  0.91505455189E+02 0.  0.
         13    1    3    3    0    0 -0.30768252809E+02 -0.14429910964E+02  0.12066910099E+03  0.12536323083E+03  0.00000000000E+00 0.  1.
        -13    1    3    3    0    0  0.31585209266E+02  0.40157285039E+01  0.79263911637E+01  0.32811266307E+02  0.00000000000E+00 0. -1.
         22    1    1    2    0    0 -0.81695645706E+00  0.10414182460E+02 -0.42694608700E+01  0.11284986056E+02  0.00000000000E+00 0.  1.
<mgrwt>
<rscale>  0 0.53448229E+02</rscale>
<asrwt>0</asrwt>
<pdfrwt beam="1">  1        2 0.22598885E-01 0.92099788E+02</pdfrwt>
<pdfrwt beam="2">  1       -2 0.34718041E-02 0.92099788E+02</pdfrwt>
<totfact> 0.70636694E+04</totfact>
</mgrwt>
</event>
<event>
 6    1  0.2866116E-002  0.9460194E+02  0.7546771E-02  0.1374478E+00
          1   -1    0    0  501    0  0.00000000000E+00  0.00000000000E+00  0.19309742822E+03  0.19309742822E+03  0.00000000000E+00 0.  1.
         -1   -1    0    0    0  501 -0.00000000000E+00 -0.00000000000E+00 -0.27663600592E+02  0.27663600592E+02  0.00000000000E+00 0. -1.
         23    2    1    2    0    0 -0.10924679799E+02 -0.19472189566E+02  0.17300837874E+03  0.19718373847E+03  0.91929390326E+02 0.  0.
         11    1    3    3    0    0 -0.29043624704E+02 -0.38639436751E+02  0.16118905905E+03  0.16828086929E+03  0.00000000000E+00 0.  1.
        -11    1    3    3    0    0  0.18118944905E+02  0.19167247185E+02  0.11819319688E+02  0.28902869183E+02  0.00000000000E+00 0. -1.
         22    1    1    2    0    0  0.10924679799E+02  0.19472189566E+02 -0.75745511172E+01  0.23577290341E+02  0.00000000000E+00 0.  1.
<mgrwt>
<rscale>  0 0.65937852E+02</rscale>
<asrwt>0</asrwt>
<pdfrwt beam="1">  1        1 0.29707296E-01 0.94601943E+02</pdfrwt>
<pdfrwt beam="2">  1       -1 0.42559387E-02 0.94601943E+02</pdfrwt>
<totfact> 0.30426682E+04</totfact>
</mgrwt>
</event>
<event>
 6    1  0.2866116E-002  0.8740250E+02  0.7546771E-02  0.1438845E+00
         -2   -1    0    0    0  501 -0.00000000000E+00  0.00000000000E+00  0.52118978574E+02  0.52118978574E+02  0.00000000000E+00 0.  1.
          2   -1    0    0  501    0  0.00000000000E+00 -0.00000000000E+00 -0.48250017092E+02  0.48250017092E+02  0.00000000000E+00 0. -1.
         23    2    1    2    0    0  0.98446287723E+01  0.30699629807E+01 -0.38509350132E+01  0.87487295846E+02  0.86792026394E+02 0.  0.
         11    1    3    3    0    0 -0.19708907132E+02 -0.72958752034E+01  0.33001129243E+02  0.39124740851E+02  0.00000000000E+00 0.  1.
        -11    1    3    3    0    0  0.29553535905E+02  0.10365838184E+02 -0.36852064256E+02  0.48362554995E+02  0.00000000000E+00 0. -1.
         22    1    1    2    0    0 -0.98446287723E+01 -0.30699629807E+01  0.77198964955E+01  0.12881699821E+02  0.00000000000E+00 0.  1.
<mgrwt>
<rscale>  0 0.51224849E+02</rscale>
<asrwt>0</asrwt>
<pdfrwt beam="1">  1        2 0.74230795E-02 0.87402501E+02</pdfrwt>
<pdfrwt beam="2">  1       -2 0.80183044E-02 0.87402501E+02</pdfrwt>
<totfact> 0.74477855E+04</totfact>
</mgrwt>
</event>
<event>
 6    1  0.2866116E-002  0.1061663E+03  0.7546771E-02  0.1320501E+00
         -2   -1    0    0    0  501 -0.00000000000E+00  0.00000000000E+00  0.53414518142E+01  0.53414518142E+01  0.00000000000E+00 0. -1.
          2   -1    0    0  501    0  0.00000000000E+00 -0.00000000000E+00 -0.16003232604E+04  0.16003232604E+04  0.00000000000E+00 0.  1.
         23    2    1    2    0    0 -0.32325738025E+02 -0.23277514295E+02 -0.14832440105E+04  0.14870386968E+04  0.98409832344E+02 0.  0.
         13    1    3    3    0    0 -0.29589372142E+02  0.16805653291E+02 -0.12424547446E+04  0.12429206544E+04  0.00000000000E+00 0.  1.
        -13    1    3    3    0    0 -0.27363658826E+01 -0.40083167586E+02 -0.24078926596E+03  0.24411804240E+03  0.00000000000E+00 0. -1.
         22    1    1    2    0    0  0.32325738025E+02  0.23277514295E+02 -0.11173779808E+03  0.11862601540E+03  0.00000000000E+00 0. -1.
<mgrwt>
<rscale>  0 0.83091244E+02</rscale>
<asrwt>0</asrwt>
<pdfrwt beam="1">  1        2 0.24620352E+00 0.10616634E+03</pdfrwt>
<pdfrwt beam="2">  1       -2 0.82176202E-03 0.10616634E+03</pdfrwt>
<totfact> 0.32176542E+04</totfact>
</mgrwt>
</event>
<event>
 6    1  0.2866116E-002  0.1771811E+03  0.7546771E-02  0.1177098E+00
          2   -1    0    0  501    0  0.00000000000E+00  0.00000000000E+00  0.10167151383E+04  0.10167151383E+04  0.00000000000E+00 0. -1.
         -2   -1    0    0    0  501 -0.00000000000E+00 -0.00000000000E+00 -0.27060500487E+02  0.27060500487E+02  0.00000000000E+00 0.  1.
         23    2    1    2    0    0  0.14828508549E+03 -0.36541173685E+02  0.58581586540E+03  0.61202399946E+03  0.89829971663E+02 0.  0.
         11    1    3    3    0    0  0.36488399456E+02 -0.21615568903E+02  0.32648011311E+03  0.32922317715E+03  0.00000000000E+00 0. -1.
        -11    1    3    3    0    0  0.11179668603E+03 -0.14925604782E+02  0.25933575229E+03  0.28280082232E+03  0.00000000000E+00 0.  1.
         22    1    1    2    0    0 -0.14828508549E+03  0.36541173685E+02  0.40383877237E+03  0.43175163928E+03  0.00000000000E+00 0.  1.
<mgrwt>
<rscale>  0 0.17072134E+03</rscale>
<asrwt>0</asrwt>
<pdfrwt beam="1">  1        2 0.15641768E+00 0.17718112E+03</pdfrwt>
<pdfrwt beam="2">  1       -2 0.41631547E-02 0.17718112E+03</pdfrwt>
<totfact> 0.65201530E+03</totfact>
</mgrwt>
</event>
<event>
 6    1  0.2866116E-002  0.9718470E+02  0.7546771E-02  0.1363191E+00
         -4   -1    0    0    0  501 -0.00000000000E+00  0.00000000000E+00  0.96897873581E+02  0.96897873581E+02  0.00000000000E+00 0. -1.
          4   -1    0    0  501    0  0.00000000000E+00 -0.00000000000E+00 -0.43146738352E+02  0.43146738352E+02  0.00000000000E+00 0.  1.
         23    2    1    2    0    0 -0.22744296889E+02 -0.99710541828E+01  0.21839255145E+02  0.99608328066E+02  0.93958187468E+02 0.  0.
         13    1    3    3    0    0  0.23157440023E+02  0.13933286406E+02  0.36872156268E+02  0.45716073829E+02  0.00000000000E+00 0. -1.
        -13    1    3    3    0    0 -0.45901736912E+02 -0.23904340588E+02 -0.15032901123E+02  0.53892254237E+02  0.00000000000E+00 0.  1.
         22    1    1    2    0    0  0.22744296889E+02  0.99710541828E+01  0.31911880084E+02  0.40436283867E+02  0.00000000000E+00 0. -1.
<mgrwt>
<rscale>  0 0.69097107E+02</rscale>
<asrwt>0</asrwt>
<pdfrwt beam="1">  1        4 0.66379598E-02 0.97184700E+02</pdfrwt>
<pdfrwt beam="2">  1       -4 0.14907365E-01 0.97184700E+02</pdfrwt>
<totfact> 0.85112997E+03</totfact>
</mgrwt>
</event>
<event>
 6    1  0.2866116E-002  0.9150307E+02  0.7546771E-02  0.1419757E+00
          4   -1    0    0  501    0  0.00000000000E+00  0.00000000000E+00  0.15395932081E+03  0.15395932081E+03  0.00000000000E+00 0. -1.
         -4   -1    0    0    0  501 -0.00000000000E+00 -0.00000000000E+00 -0.18636182452E+02  0.18636182452E+02  0.00000000000E+00 0.  1.
         23    2    1    2    0    0 -0.53043722694E+01 -0.10771519455E+02  0.13108499477E+03  0.15986271654E+03  0.90711908209E+02 0.  0.
         11    1    3    3    0    0 -0.20193337934E+02  0.28499272924E+02  0.18131478516E+02  0.39353906633E+02  0.00000000000E+00 0.  1.
        -11    1    3    3    0    0  0.14888965664E+02 -0.39270792379E+02  0.11295351625E+03  0.12050880991E+03  0.00000000000E+00 0. -1.
         22    1    1    2    0    0  0.53043722694E+01  0.10771519455E+02  0.42381435920E+01  0.12732786720E+02  0.00000000000E+00 0. -1.
<mgrwt>
<rscale>  0 0.55072286E+02</rscale>
<asrwt>0</asrwt>
<pdfrwt beam="1">  1        4 0.23686049E-01 0.91503073E+02</pdfrwt>
<pdfrwt beam="2">  1       -4 0.28671051E-02 0.91503073E+02</pdfrwt>
<totfact> 0.13909238E+04</totfact>
</mgrwt>
</event>
<event>
 6    1  0.2866116E-002  0.9019758E+02  0.7546771E-02  0.1404208E+00
         -2   -1    0    0    0  501 -0.00000000000E+00  0.00000000000E+00  0.11189509410E+02  0.11189509410E+02  0.00000000000E+00 0. -1.
          2   -1    0    0  501    0  0.00000000000E+00 -0.00000000000E+00 -0.28559506091E+03  0.28559506091E+03  0.00000000000E+00 0.  1.
         23    2    1    2    0    0  0.14448621993E+02  0.67966665389E+01 -0.26028092542E+03  0.27546644621E+03  0.88772999827E+02 0.  0.
         11    1    3    3    0    0  0.17074250787E+02  0.25059360836E+02 -0.25425503799E+03  0.25605688030E+03  0.00000000000E+00 0.  1.
        -11    1    3    3    0    0 -0.26256287942E+01 -0.18262694298E+02 -0.60258874278E+01  0.19409565911E+02  0.00000000000E+00 0. -1.
         22    1    1    2    0    0 -0.14448621993E+02 -0.67966665389E+01 -0.14124626080E+02  0.21318124107E+02  0.00000000000E+00 0. -1.
<mgrwt>
<rscale>  0 0.58506564E+02</rscale>
<asrwt>0</asrwt>
<pdfrwt beam="1">  1        2 0.43937703E-01 0.90197577E+02</pdfrwt>
<pdfrwt beam="2">  1       -2 0.17214630E-02 0.90197577E+02</pdfrwt>
<totfact> 0.95415026E+04</totfact>
</mgrwt>
</event>
<event>
 6    1  0.2866116E-002  0.9054353E+02  0.7546771E-02  0.1426913E+00
          2   -1    0    0  501    0  0.00000000000E+00  0.00000000000E+00  0.11860603158E+03  0.11860603158E+03  0.00000000000E+00 0. -1.
         -2   -1    0    0    0  501 -0.00000000000E+00 -0.00000000000E+00 -0.51716621084E+02  0.51716621084E+02  0.00000000000E+00 0.  1.
         23    2    1    2    0    0 -0.11106850393E+02  0.13757198055E-01  0.10029484940E+03  0.13511916331E+03  0.89859719351E+02 0.  0.
         11    1    3    3    0    0 -0.49414313422E+02  0.10257002784E+02  0.62581994545E+02  0.80395811572E+02  0.00000000000E+00 0. -1.
        -11    1    3    3    0    0  0.38307463029E+02 -0.10243245586E+02  0.37712854854E+02  0.54723351735E+02  0.00000000000E+00 0.  1.
         22    1    1    2    0    0  0.11106850393E+02 -0.13757198055E-01 -0.33405438901E+02  0.35203489360E+02  0.00000000000E+00 0.  1.
<mgrwt>
<rscale>  0 0.53584711E+02</rscale>
<asrwt>0</asrwt>
<pdfrwt beam="1">  1        2 0.18247082E-01 0.90543534E+02</pdfrwt>
<pdfrwt beam="2">  1       -2 0.79564033E-02 0.90543534E+02</pdfrwt>
<totfact> 0.25971515E+04</totfact>
</mgrwt>
</event>
<event>
 6    1  0.2866116E-002  0.9729040E+02  0.7546771E-02  0.1345644E+00
         -2   -1    0    0    0  501 -0.00000000000E+00  0.00000000000E+00  0.39029987409E+02  0.39029987409E+02  0.00000000000E+00 0. -1.
          2   -1    0    0  501    0  0.00000000000E+00 -0.00000000000E+00 -0.16354804829E+03  0.16354804829E+03  0.00000000000E+00 0.  1.
         23    2    1    2    0    0 -0.22107783592E+02 -0.24937853986E+02 -0.13609859373E+03  0.16729688779E+03  0.91404435301E+02 0.  0.
         13    1    3    3    0    0  0.11108093058E+02  0.74870480854E+01 -0.11590449812E+03  0.11667603997E+03  0.00000000000E+00 0.  1.
        -13    1    3    3    0    0 -0.33215876650E+02 -0.32424902072E+02 -0.20194095610E+02  0.50620847815E+02  0.00000000000E+00 0. -1.
         22    1    1    2    0    0  0.22107783592E+02  0.24937853986E+02  0.11580532846E+02  0.35281147909E+02  0.00000000000E+00 0.  1.
<mgrwt>
<rscale>  0 0.74430283E+02</rscale>
<asrwt>0</asrwt>
<pdfrwt beam="1">  1        2 0.25161238E-01 0.97290398E+02</pdfrwt>
<pdfrwt beam="2">  1       -2 0.60046136E-02 0.97290398E+02</pdfrwt>
<totfact> 0.28086640E+04</totfact>
</mgrwt>
</event>
<event>
 6    1  0.2866116E-002  0.8331282E+02  0.7546771E-02  0.1430068E+00
          2   -1    0    0  501    0  0.00000000000E+00  0.00000000000E+00  0.26819777557E+03  0.26819777557E+03  0.00000000000E+00 0. -1.
         -2   -1    0    0    0  501 -0.00000000000E+00 -0.00000000000E+00 -0.10549303410E+02  0.10549303410E+02  0.00000000000E+00 0.  1.
         23    2    1    2    0    0 -0.10305749930E+02  0.88583536583E+01  0.24917030080E+03  0.26272964158E+03  0.82197000284E+02 0.  0.
         13    1    3    3    0    0  0.28453421657E+02 -0.19135232266E+02  0.82626355262E+02  0.89458755311E+02  0.00000000000E+00 0. -1.
        -13    1    3    3    0    0 -0.38759171587E+02  0.27993585925E+02  0.16654394554E+03  0.17327088627E+03  0.00000000000E+00 0.  1.
         22    1    1    2    0    0  0.10305749930E+02 -0.88583536583E+01  0.84781713660E+01  0.16017437400E+02  0.00000000000E+00 0. -1.
<mgrwt>
<rscale>  0 0.52946351E+02</rscale>
<asrwt>0</asrwt>
<pdfrwt beam="1">  1        2 0.41261191E-01 0.83312819E+02</pdfrwt>
<pdfrwt beam="2">  1       -2 0.16229700E-02 0.83312819E+02</pdfrwt>
<totfact> 0.10947869E+05</totfact>
</mgrwt>
</event>
<event>
 6    1  0.2866116E-002  0.9066692E+02  0.7546771E-02  0.1413189E+00
          2   -1    0    0  501    0  0.00000000000E+00  0.00000000000E+00  0.24050779079E+03  0.24050779079E+03  0.00000000000E+00 0. -1.
         -2   -1    0    0    0  501 -0.00000000000E+00 -0.00000000000E+00 -0.15494526834E+02  0.15494526834E+02  0.00000000000E+00 0.  1.
         23    2    1    2    0    0  0.40178648208E+00 -0.13655225740E+02  0.22473855869E+03  0.24233842047E+03  0.89631822778E+02 0.  0.
         11    1    3    3    0    0 -0.53588734306E+01  0.27724970797E+02  0.17552704223E+03  0.17778395339E+03  0.00000000000E+00 0. -1.
        -11    1    3    3    0    0  0.57606599127E+01 -0.41380196537E+02  0.49211516459E+02  0.64554467082E+02  0.00000000000E+00 0.  1.
         22    1    1    2    0    0 -0.40178648208E+00  0.13655225740E+02  0.27470526894E+00  0.13663897151E+02  0.00000000000E+00 0.  1.
<mgrwt>
<rscale>  0 0.56488279E+02</rscale>
<asrwt>0</asrwt>
<pdfrwt beam="1">  1        2 0.37001196E-01 0.90666919E+02</pdfrwt>
<pdfrwt beam="2">  1       -2 0.23837735E-02 0.90666919E+02</pdfrwt>
<totfact> 0.71628022E+04</totfact>
</mgrwt>
</event>
<event>
 6    1  0.2866116E-002  0.9232564E+02  0.7546771E-02  0.1427865E+00
          2   -1    0    0  501    0  0.00000000000E+00  0.00000000000E+00  0.97797239532E+02  0.97797239532E+02  0.00000000000E+00 0. -1.
         -2   -1    0    0    0  501 -0.00000000000E+00 -0.00000000000E+00 -0.27239153108E+02  0.27239153108E+02  0.00000000000E+00 0.  1.
         23    2    1    2    0    0  0.93052085749E+01 -0.44750726986E+01  0.67151121587E+02  0.11416346333E+03  0.91746444334E+02 0.  0.
         11    1    3    3    0    0 -0.20234261544E+02 -0.19325256254E+02 -0.10406523761E+02  0.29852748722E+02  0.00000000000E+00 0.  1.
        -11    1    3    3    0    0  0.29539470119E+02  0.14850183555E+02  0.77557645348E+02  0.84310714612E+02  0.00000000000E+00 0. -1.
         22    1    1    2    0    0 -0.93052085749E+01  0.44750726986E+01  0.34069648364E+01  0.10872929305E+02  0.00000000000E+00 0.  1.
<mgrwt>
<rscale>  0 0.53391005E+02</rscale>
<asrwt>0</asrwt>
<pdfrwt beam="1">  1        2 0.15045729E-01 0.92325637E+02</pdfrwt>
<pdfrwt beam="2">  1       -2 0.41906390E-02 0.92325637E+02</pdfrwt>
<totfact> 0.84842092E+04</totfact>
</mgrwt>
</event>
<event>
 6    1  0.2866116E-002  0.9993531E+02  0.7546771E-02  0.1398852E+00
          2   -1    0    0  501    0  0.00000000000E+00  0.00000000000E+00  0.11271813321E+04  0.11271813321E+04  0.00000000000E+00 0. -1.
         -2   -1    0    0    0  501 -0.00000000000E+00 -0.00000000000E+00 -0.41159368644E+01  0.41159368644E+01  0.00000000000E+00 0.  1.
         23    2    1    2    0    0  0.11837579615E+02 -0.48075218913E+01  0.11029438941E+04  0.11074620982E+04  0.99115209805E+02 0.  0.
         11    1    3    3    0    0 -0.30427729392E+02 -0.35757113474E+02  0.58209294244E+03  0.58398340004E+03  0.00000000000E+00 0. -1.
        -11    1    3    3    0    0  0.42265309007E+02  0.30949591583E+02  0.52085095171E+03  0.52347869819E+03  0.00000000000E+00 0.  1.
         22    1    1    2    0    0 -0.11837579615E+02  0.48075218913E+01  0.20121501066E+02  0.23835170715E+02  0.00000000000E+00 0. -1.
<mgrwt>
<rscale>  0 0.59757541E+02</rscale>
<asrwt>0</asrwt>
<pdfrwt beam="1">  1        2 0.17341227E+00 0.99935306E+02</pdfrwt>
<pdfrwt beam="2">  1       -2 0.63322195E-03 0.99935306E+02</pdfrwt>
<totfact> 0.82187547E+04</totfact>
</mgrwt>
</event>
<event>
 6    1  0.2866116E-002  0.9238951E+02  0.7546771E-02  0.1426664E+00
         -2   -1    0    0    0  501 -0.00000000000E+00  0.00000000000E+00  0.97410010748E+01  0.97410010748E+01  0.00000000000E+00 0.  1.
          2   -1    0    0  501    0  0.00000000000E+00 -0.00000000000E+00 -0.65722457439E+03  0.65722457439E+03  0.00000000000E+00 0. -1.
         23    2    1    2    0    0 -0.74555282757E+01  0.73850752079E+01 -0.64970324570E+03  0.65623938400E+03  0.91791597729E+02 0.  0.
         13    1    3    3    0    0 -0.25264081410E+02 -0.69101596383E+00 -0.62096684882E+03  0.62148095598E+03  0.00000000000E+00 0. -1.
        -13    1    3    3    0    0  0.17808553135E+02  0.80760911717E+01 -0.28736396878E+02  0.34758428027E+02  0.00000000000E+00 0.  1.
         22    1    1    2    0    0  0.74555282757E+01 -0.73850752079E+01  0.22196723831E+01  0.10726191458E+02  0.00000000000E+00 0.  1.
<mgrwt>
<rscale>  0 0.53635504E+02</rscale>
<asrwt>0</asrwt>
<pdfrwt beam="1">  1        2 0.10111149E+00 0.92389511E+02</pdfrwt>
<pdfrwt beam="2">  1       -2 0.14986153E-02 0.92389511E+02</pdfrwt>
<totfact> 0.47733319E+04</totfact>
</mgrwt>
</event>
<event>
 6    1  0.2866116E-002  0.9146785E+02  0.7546771E-02  0.1424704E+00
          2   -1    0    0  501    0  0.00000000000E+00  0.00000000000E+00  0.48191578844E+03  0.48191578844E+03  0.00000000000E+00 0. -1.
         -2   -1    0    0    0  501 -0.00000000000E+00 -0.00000000000E+00 -0.65396403479E+01  0.65396403479E+01  0.00000000000E+00 0.  1.
         23    2    1    2    0    0 -0.96659011509E+01  0.55436242369E+01  0.46236260506E+03  0.47132318676E+03  0.90786598148E+02 0.  0.
         13    1    3    3    0    0 -0.50463069359E+01  0.33942517725E+02  0.70522966784E+02  0.78428620842E+02  0.00000000000E+00 0.  1.
        -13    1    3    3    0    0 -0.46195942150E+01 -0.28398893488E+02  0.39183963827E+03  0.39289456591E+03  0.00000000000E+00 0. -1.
         22    1    1    2    0    0  0.96659011509E+01 -0.55436242369E+01  0.13013543034E+02  0.17132242032E+02  0.00000000000E+00 0.  1.
<mgrwt>
<rscale>  0 0.54038053E+02</rscale>
<asrwt>0</asrwt>
<pdfrwt beam="1">  1        2 0.74140862E-01 0.91467851E+02</pdfrwt>
<pdfrwt beam="2">  1       -2 0.10060989E-02 0.91467851E+02</pdfrwt>
<totfact> 0.11837321E+05</totfact>
</mgrwt>
</event>
<event>
 6    1  0.2866116E-002  0.9096971E+02  0.7546771E-02  0.1416929E+00
         -1   -1    0    0    0  501 -0.00000000000E+00  0.00000000000E+00  0.29936825229E+01  0.29936825229E+01  0.00000000000E+00 0.  1.
          1   -1    0    0  501    0  0.00000000000E+00 -0.00000000000E+00 -0.10583194316E+04  0.10583194316E+04  0.00000000000E+00 0. -1.
         23    2    1    2    0    0 -0.11845838175E+02 -0.47530564285E+01 -0.10137194305E+04  0.10177929903E+04  0.90069817422E+02 0.  0.
         11    1    3    3    0    0 -0.13413229939E+01 -0.44469334849E+02 -0.69729305222E+03  0.69871089985E+03  0.00000000000E+00 0. -1.
        -11    1    3    3    0    0 -0.10504515181E+02  0.39716278420E+02 -0.31642637827E+03  0.31908209050E+03  0.00000000000E+00 0.  1.
         22    1    1    2    0    0  0.11845838175E+02  0.47530564285E+01 -0.41606318590E+02  0.43520123783E+02  0.00000000000E+00 0.  1.
<mgrwt>
<rscale>  0 0.55675980E+02</rscale>
<asrwt>0</asrwt>
<pdfrwt beam="1">  1        1 0.16281856E+00 0.90969706E+02</pdfrwt>
<pdfrwt beam="2">  1       -1 0.46056603E-03 0.90969706E+02</pdfrwt>
<totfact> 0.74279338E+04</totfact>
</mgrwt>
</event>
<event>
 6    1  0.2866116E-002  0.9500924E+02  0.7546771E-02  0.1356043E+00
         -2   -1    0    0    0  501 -0.00000000000E+00  0.00000000000E+00  0.24751943094E+03  0.24751943094E+03  0.00000000000E+00 0.  1.
          2   -1    0    0  501    0  0.00000000000E+00 -0.00000000000E+00 -0.22216367099E+02  0.22216367099E+02  0.00000000000E+00 0. -1.
         23    2    1    2    0    0  0.29965195630E+02 -0.71439517755E+00  0.89025885289E+02  0.13020124066E+03  0.90157259871E+02 0.  0.
         13    1    3    3    0    0 -0.10573270374E+02  0.37406660582E+02  0.30194626317E+02  0.49221618835E+02  0.00000000000E+00 0. -1.
        -13    1    3    3    0    0  0.40538466004E+02 -0.38121055760E+02  0.58831258972E+02  0.80979621822E+02  0.00000000000E+00 0.  1.
         22    1    1    2    0    0 -0.29965195630E+02  0.71439517755E+00  0.13627717856E+03  0.13953455739E+03  0.00000000000E+00 0. -1.
<mgrwt>
<rscale>  0 0.71204837E+02</rscale>
<asrwt>0</asrwt>
<pdfrwt beam="1">  1        2 0.34179028E-02 0.95009235E+02</pdfrwt>
<pdfrwt beam="2">  1       -2 0.38079911E-01 0.95009235E+02</pdfrwt>
<totfact> 0.15329710E+04</totfact>
</mgrwt>
</event>
<event>
 6    1  0.2866116E-002  0.9004462E+02  0.7546771E-02  0.1415899E+00
          1   -1    0    0  501    0  0.00000000000E+00  0.00000000000E+00  0.14964585166E+03  0.14964585166E+03  0.00000000000E+00 0. -1.
         -1   -1    0    0    0  501 -0.00000000000E+00 -0.00000000000E+00 -0.81032448419E+02  0.81032448419E+02  0.00000000000E+00 0.  1.
         23    2    1    2    0    0  0.21304325757E+01 -0.13201755980E+02  0.13537716644E+03  0.16258846838E+03  0.89046099029E+02 0.  0.
         13    1    3    3    0    0  0.16940299477E+02 -0.22158278287E+02  0.14150533546E+03  0.14422802435E+03  0.00000000000E+00 0. -1.
        -13    1    3    3    0    0 -0.14809866902E+02  0.89565223075E+01 -0.61281690207E+01  0.18360444032E+02  0.00000000000E+00 0.  1.
         22    1    1    2    0    0 -0.21304325757E+01  0.13201755980E+02 -0.66763763202E+02  0.68089831699E+02  0.00000000000E+00 0.  1.
<mgrwt>
<rscale>  0 0.55898078E+02</rscale>
<asrwt>0</asrwt>
<pdfrwt beam="1">  1        1 0.23022439E-01 0.90044616E+02</pdfrwt>
<pdfrwt beam="2">  1       -1 0.12466530E-01 0.90044616E+02</pdfrwt>
<totfact> 0.83785339E+03</totfact>
</mgrwt>
</event>
<event>
 6    1  0.2866116E-002  0.9321758E+02  0.7546771E-02  0.1394652E+00
          2   -1    0    0  501    0  0.00000000000E+00  0.00000000000E+00  0.18505956473E+03  0.18505956473E+03  0.00000000000E+00 0. -1.
         -2   -1    0    0    0  501 -0.00000000000E+00 -0.00000000000E+00 -0.16488580114E+02  0.16488580114E+02  0.00000000000E+00 0.  1.
         23    2    1    2    0    0  0.15438308939E+02  0.67032125244E+01  0.13591747012E+03  0.16481224347E+03  0.91685563050E+02 0.  0.
         11    1    3    3    0    0  0.22168126050E+02 -0.40157950155E+02  0.67765862218E+02  0.81830916256E+02  0.00000000000E+00 0. -1.
        -11    1    3    3    0    0 -0.67298171109E+01  0.46861162679E+02  0.68151607905E+02  0.82981327213E+02  0.00000000000E+00 0.  1.
         22    1    1    2    0    0 -0.15438308939E+02 -0.67032125244E+01  0.32653514493E+02  0.36735901374E+02  0.00000000000E+00 0. -1.
<mgrwt>
<rscale>  0 0.60764410E+02</rscale>
<asrwt>0</asrwt>
<pdfrwt beam="1">  1        2 0.28470701E-01 0.93217578E+02</pdfrwt>
<pdfrwt beam="2">  1       -2 0.25367048E-02 0.93217578E+02</pdfrwt>
<totfact> 0.86861774E+04</totfact>
</mgrwt>
</event>
<event>
 6    1  0.2866116E-002  0.1067379E+03  0.7546771E-02  0.1303895E+00
         -2   -1    0    0    0  501 -0.00000000000E+00  0.00000000000E+00  0.33046901158E+03  0.33046901158E+03  0.00000000000E+00 0.  1.
          2   -1    0    0  501    0  0.00000000000E+00 -0.00000000000E+00 -0.19474715519E+02  0.19474715519E+02  0.00000000000E+00 0. -1.
         23    2    1    2    0    0 -0.16518269573E+02 -0.50286425325E+02  0.22361479900E+03  0.24778329294E+03  0.92689827515E+02 0.  0.
         13    1    3    3    0    0 -0.30445498674E+02 -0.16136935590E+02  0.20224438788E+03  0.20515877146E+03  0.00000000000E+00 0.  1.
        -13    1    3    3    0    0  0.13927229100E+02 -0.34149489734E+02  0.21370411127E+02  0.42624521478E+02  0.00000000000E+00 0. -1.
         22    1    1    2    0    0  0.16518269573E+02  0.50286425325E+02  0.87379497054E+02  0.10216043416E+03  0.00000000000E+00 0.  1.
<mgrwt>
<rscale>  0 0.89570369E+02</rscale>
<asrwt>0</asrwt>
<pdfrwt beam="1">  1        2 0.29961103E-02 0.10673791E+03</pdfrwt>
<pdfrwt beam="2">  1       -2 0.50841382E-01 0.10673791E+03</pdfrwt>
<totfact> 0.10632935E+04</totfact>
</mgrwt>
</event>
<event>
 6    1  0.2866116E-002  0.9734313E+02  0.7546771E-02  0.1363783E+00
         -2   -1    0    0    0  501 -0.00000000000E+00  0.00000000000E+00  0.15641125182E+02  0.15641125182E+02  0.00000000000E+00 0. -1.
          2   -1    0    0  501    0  0.00000000000E+00 -0.00000000000E+00 -0.37134688895E+03  0.37134688895E+03  0.00000000000E+00 0.  1.
         23    2    1    2    0    0 -0.22529765312E+02  0.95471481891E+01 -0.34796390949E+03  0.36132335612E+03  0.94217551467E+02 0.  0.
         13    1    3    3    0    0  0.34790280295E+02  0.96724643705E+01 -0.18708660116E+03  0.19053954052E+03  0.00000000000E+00 0. -1.
        -13    1    3    3    0    0 -0.57320045607E+02 -0.12531618140E+00 -0.16087730833E+03  0.17078381560E+03  0.00000000000E+00 0.  1.
         22    1    1    2    0    0  0.22529765312E+02 -0.95471481891E+01 -0.77418542831E+01  0.25664658020E+02  0.00000000000E+00 0. -1.
<mgrwt>
<rscale>  0 0.68926087E+02</rscale>
<asrwt>0</asrwt>
<pdfrwt beam="1">  1        2 0.57130289E-01 0.97343132E+02</pdfrwt>
<pdfrwt beam="2">  1       -2 0.24063270E-02 0.97343132E+02</pdfrwt>
<totfact> 0.45234421E+04</totfact>
</mgrwt>
</event>
<event>
 6    1  0.2866116E-002  0.9280974E+02  0.7546771E-02  0.1371252E+00
         -2   -1    0    0    0  501 -0.00000000000E+00  0.00000000000E+00  0.42112177307E+01  0.42112177307E+01  0.00000000000E+00 0.  1.
          2   -1    0    0  501    0  0.00000000000E+00 -0.00000000000E+00 -0.90827560072E+03  0.90827560072E+03  0.00000000000E+00 0. -1.
         23    2    1    2    0    0  0.22970853507E+02  0.97072526474E+01 -0.80497436737E+03  0.81030696691E+03  0.89396631036E+02 0.  0.
         11    1    3    3    0    0  0.32706667347E+02 -0.32020589965E+02 -0.53488656020E+03  0.53684138864E+03  0.00000000000E+00 0. -1.
        -11    1    3    3    0    0 -0.97358138405E+01  0.41727842613E+02 -0.27008780717E+03  0.27346557828E+03  0.00000000000E+00 0.  1.
         22    1    1    2    0    0 -0.22970853507E+02 -0.97072526474E+01 -0.99090015617E+02  0.10217985154E+03  0.00000000000E+00 0. -1.
<mgrwt>
<rscale>  0 0.66820459E+02</rscale>
<asrwt>0</asrwt>
<pdfrwt beam="1">  1        2 0.13973468E+00 0.92809744E+02</pdfrwt>
<pdfrwt beam="2">  1       -2 0.64787979E-03 0.92809744E+02</pdfrwt>
<totfact> 0.10586877E+05</totfact>
</mgrwt>
</event>
<event>
 6    1  0.2866116E-002  0.8824970E+02  0.7546771E-02  0.1411863E+00
          1   -1    0    0  501    0  0.00000000000E+00  0.00000000000E+00  0.82717138579E+03  0.82717138579E+03  0.00000000000E+00 0. -1.
         -1   -1    0    0    0  501 -0.00000000000E+00 -0.00000000000E+00 -0.39848596969E+01  0.39848596969E+01  0.00000000000E+00 0.  1.
         23    2    1    2    0    0 -0.14661654709E+02 -0.37085514760E+01  0.78705796309E+03  0.79199005423E+03  0.86944184766E+02 0.  0.
         11    1    3    3    0    0 -0.41139133800E+02 -0.29286687833E+02  0.39706558230E+03  0.40026393175E+03  0.00000000000E+00 0.  1.
        -11    1    3    3    0    0  0.26477479091E+02  0.25578136357E+02  0.38999238079E+03  0.39172612248E+03  0.00000000000E+00 0. -1.
         22    1    1    2    0    0  0.14661654709E+02  0.37085514760E+01  0.36128563008E+02  0.39166191261E+02  0.00000000000E+00 0.  1.
<mgrwt>
<rscale>  0 0.56780254E+02</rscale>
<asrwt>0</asrwt>
<pdfrwt beam="1">  1        1 0.12725700E+00 0.88249695E+02</pdfrwt>
<pdfrwt beam="2">  1       -1 0.61305600E-03 0.88249695E+02</pdfrwt>
<totfact> 0.73576881E+04</totfact>
</mgrwt>
</event>
<event>
 6    1  0.2866116E-002  0.9238971E+02  0.7546771E-02  0.1379993E+00
          2   -1    0    0  501    0  0.00000000000E+00  0.00000000000E+00  0.69554472999E+03  0.69554472999E+03  0.00000000000E+00 0. -1.
         -2   -1    0    0    0  501 -0.00000000000E+00 -0.00000000000E+00 -0.96705818525E+01  0.96705818525E+01  0.00000000000E+00 0.  1.
         23    2    1    2    0    0  0.11262621535E+02  0.18781818651E+02  0.67400140525E+03  0.68030416214E+03  0.89756645397E+02 0.  0.
         11    1    3    3    0    0  0.42180949072E+02  0.37313431411E+02  0.41889757848E+03  0.42266618729E+03  0.00000000000E+00 0. -1.
        -11    1    3    3    0    0 -0.30918327537E+02 -0.18531612760E+02  0.25510382677E+03  0.25763797485E+03  0.00000000000E+00 0.  1.
         22    1    1    2    0    0 -0.11262621535E+02 -0.18781818651E+02  0.11872742884E+02  0.24911149698E+02  0.00000000000E+00 0.  1.
<mgrwt>
<rscale>  0 0.64465593E+02</rscale>
<asrwt>0</asrwt>
<pdfrwt beam="1">  1        2 0.10700684E+00 0.92389711E+02</pdfrwt>
<pdfrwt beam="2">  1       -2 0.14877824E-02 0.92389711E+02</pdfrwt>
<totfact> 0.45172936E+04</totfact>
</mgrwt>
</event>
<event>
 6    1  0.2866116E-002  0.9885493E+02  0.7546771E-02  0.1344231E+00
          2   -1    0    0  501    0  0.00000000000E+00  0.00000000000E+00  0.29128104909E+02  0.29128104909E+02  0.00000000000E+00 0. -1.
         -2   -1    0    0    0  501 -0.00000000000E+00 -0.00000000000E+00 -0.23835727276E+03  0.23835727276E+03  0.00000000000E+00 0.  1.
         23    2    1    2    0    0  0.12527228141E+02 -0.30043578032E+02 -0.61973144079E+02  0.11667462022E+03  0.93342104058E+02 0.  0.
         13    1    3    3    0    0  0.43279892929E+02 -0.53388805092E+01 -0.47260353827E+00  0.43610504825E+02  0.00000000000E+00 0. -1.
        -13    1    3    3    0    0 -0.30752664788E+02 -0.24704697523E+02 -0.61500540541E+02  0.73064115393E+02  0.00000000000E+00 0.  1.
         22    1    1    2    0    0 -0.12527228141E+02  0.30043578032E+02 -0.14725602377E+03  0.15081075745E+03  0.00000000000E+00 0.  1.
<mgrwt>
<rscale>  0 0.74883963E+02</rscale>
<asrwt>0</asrwt>
<pdfrwt beam="1">  1        2 0.44812470E-02 0.98854926E+02</pdfrwt>
<pdfrwt beam="2">  1       -2 0.36670349E-01 0.98854926E+02</pdfrwt>
<totfact> 0.11573550E+04</totfact>
</mgrwt>
</event>
<event>
 6    1  0.2866116E-002  0.8648895E+02  0.7546771E-02  0.1398864E+00
          2   -1    0    0  501    0  0.00000000000E+00  0.00000000000E+00  0.32439012855E+02  0.32439012855E+02  0.00000000000E+00 0. -1.
         -2   -1    0    0    0  501 -0.00000000000E+00 -0.00000000000E+00 -0.97341672231E+02  0.97341672231E+02  0.00000000000E+00 0.  1.
         23    2    1    2    0    0 -0.10375256410E+02  0.16753848376E+02 -0.33589115987E+02  0.92782369171E+02  0.84214024576E+02 0.  0.
         13    1    3    3    0    0 -0.45233250070E+02  0.13223458037E+02 -0.46786662812E+01  0.47358174295E+02  0.00000000000E+00 0. -1.
        -13    1    3    3    0    0  0.34857993660E+02  0.35303903385E+01 -0.28910449706E+02  0.45424194876E+02  0.00000000000E+00 0.  1.
         22    1    1    2    0    0  0.10375256410E+02 -0.16753848376E+02 -0.31313543389E+02  0.36998315915E+02  0.00000000000E+00 0.  1.
<mgrwt>
<rscale>  0 0.59754640E+02</rscale>
<asrwt>0</asrwt>
<pdfrwt beam="1">  1        2 0.49906174E-02 0.86488955E+02</pdfrwt>
<pdfrwt beam="2">  1       -2 0.14975642E-01 0.86488955E+02</pdfrwt>
<totfact> 0.46212343E+04</totfact>
</mgrwt>
</event>
<event>
 6    1  0.2866116E-002  0.9208324E+02  0.7546771E-02  0.1429441E+00
         -2   -1    0    0    0  501 -0.00000000000E+00  0.00000000000E+00  0.21363959888E+02  0.21363959888E+02  0.00000000000E+00 0.  1.
          2   -1    0    0  501    0  0.00000000000E+00 -0.00000000000E+00 -0.11256792614E+04  0.11256792614E+04  0.00000000000E+00 0. -1.
         23    2    1    2    0    0  0.59102493376E+01 -0.82652176414E+01 -0.11224687776E+04  0.11262395302E+04  0.91520914280E+02 0.  0.
         13    1    3    3    0    0 -0.27157344337E+02  0.30310287781E+02 -0.56258040184E+03  0.56405047950E+03  0.00000000000E+00 0.  1.
        -13    1    3    3    0    0  0.33067593674E+02 -0.38575505422E+02 -0.55988837578E+03  0.56218905068E+03  0.00000000000E+00 0. -1.
         22    1    1    2    0    0 -0.59102493376E+01  0.82652176414E+01  0.18153476093E+02  0.20803691118E+02  0.00000000000E+00 0.  1.
<mgrwt>
<rscale>  0 0.53072433E+02</rscale>
<asrwt>0</asrwt>
<pdfrwt beam="1">  1        2 0.17318143E+00 0.92083237E+02</pdfrwt>
<pdfrwt beam="2">  1       -2 0.32867630E-02 0.92083237E+02</pdfrwt>
<totfact> 0.77632038E+03</totfact>
</mgrwt>
</event>
<event>
 6    1  0.2866116E-002  0.9625463E+02  0.7546771E-02  0.1351541E+00
         -2   -1    0    0    0  501 -0.00000000000E+00  0.00000000000E+00  0.12920185102E+02  0.12920185102E+02  0.00000000000E+00 0.  1.
          2   -1    0    0  501    0  0.00000000000E+00 -0.00000000000E+00 -0.44336532644E+03  0.44336532644E+03  0.00000000000E+00 0. -1.
         23    2    1    2    0    0  0.29226709423E+02 -0.10669672692E+02 -0.40443736396E+03  0.41573373053E+03  0.91087380432E+02 0.  0.
         13    1    3    3    0    0  0.38741467118E+02  0.13373212903E+02 -0.37200288800E+03  0.37425378124E+03  0.00000000000E+00 0. -1.
        -13    1    3    3    0    0 -0.95147576954E+01 -0.24042885595E+02 -0.32434475967E+02  0.41479949288E+02  0.00000000000E+00 0.  1.
         22    1    1    2    0    0 -0.29226709423E+02  0.10669672692E+02 -0.26007777377E+02  0.40551781010E+02  0.00000000000E+00 0.  1.
<mgrwt>
<rscale>  0 0.72577669E+02</rscale>
<asrwt>0</asrwt>
<pdfrwt beam="1">  1        2 0.68210037E-01 0.96254628E+02</pdfrwt>
<pdfrwt beam="2">  1       -2 0.19877212E-02 0.96254628E+02</pdfrwt>
<totfact> 0.49340877E+04</totfact>
</mgrwt>
</event>
<event>
 6    1  0.2866116E-002  0.8720778E+02  0.7546771E-02  0.1430959E+00
          2   -1    0    0  501    0  0.00000000000E+00  0.00000000000E+00  0.23687238702E+04  0.23687238702E+04  0.00000000000E+00 0.  1.
         -2   -1    0    0    0  501 -0.00000000000E+00 -0.00000000000E+00 -0.36279806188E+01  0.36279806188E+01  0.00000000000E+00 0. -1.
         23    2    1    2    0    0  0.54636962320E+01  0.10334726591E+02  0.23558070586E+04  0.23574206442E+04  0.86420702076E+02 0.  0.
         13    1    3    3    0    0 -0.12898163440E+02 -0.35200266941E+02  0.88305157634E+03  0.88384699349E+03  0.00000000000E+00 0. -1.
        -13    1    3    3    0    0  0.18361859672E+02  0.45534993532E+02  0.14727554823E+04  0.14735736507E+04  0.00000000000E+00 0.  1.
         22    1    1    2    0    0 -0.54636962320E+01 -0.10334726591E+02  0.92888309630E+01  0.14931206612E+02  0.00000000000E+00 0. -1.
<mgrwt>
<rscale>  0 0.52768046E+02</rscale>
<asrwt>0</asrwt>
<pdfrwt beam="1">  1        2 0.36441782E+00 0.87207777E+02</pdfrwt>
<pdfrwt beam="2">  1       -2 0.55815276E-03 0.87207777E+02</pdfrwt>
<totfact> 0.22348328E+04</totfact>
</mgrwt>
</event>
<event>
 6    1  0.2866116E-002  0.9473816E+02  0.7546771E-02  0.1362252E+00
          2   -1    0    0  501    0  0.00000000000E+00  0.00000000000E+00  0.89512124594E+01  0.89512124594E+01  0.00000000000E+00 0. -1.
         -2   -1    0    0    0  501 -0.00000000000E+00 -0.00000000000E+00 -0.66526013334E+03  0.66526013334E+03  0.00000000000E+00 0.  1.
         23    2    1    2    0    0  0.25659958071E+02 -0.91205287222E+01 -0.62733509563E+03  0.63444829710E+03  0.90739748682E+02 0.  0.
         13    1    3    3    0    0  0.46940701009E+02  0.23159483213E+02 -0.44440614032E+03  0.44747805380E+03  0.00000000000E+00 0.  1.
        -13    1    3    3    0    0 -0.21280742938E+02 -0.32280011935E+02 -0.18292895530E+03  0.18697024330E+03  0.00000000000E+00 0. -1.
         22    1    1    2    0    0 -0.25659958071E+02  0.91205287222E+01 -0.28973825255E+02  0.39763048705E+02  0.00000000000E+00 0. -1.
<mgrwt>
<rscale>  0 0.69369125E+02</rscale>
<asrwt>0</asrwt>
<pdfrwt beam="1">  1        2 0.13771089E-02 0.94738163E+02</pdfrwt>
<pdfrwt beam="2">  1       -2 0.10234776E+00 0.94738163E+02</pdfrwt>
<totfact> 0.67589586E+03</totfact>
</mgrwt>
</event>
<event>
 6    1  0.2866116E-002  0.9075681E+02  0.7546771E-02  0.1408630E+00
          2   -1    0    0  501    0  0.00000000000E+00  0.00000000000E+00  0.65243820851E+02  0.65243820851E+02  0.00000000000E+00 0. -1.
         -2   -1    0    0    0  501 -0.00000000000E+00 -0.00000000000E+00 -0.52876227609E+02  0.52876227609E+02  0.00000000000E+00 0.  1.
         23    2    1    2    0    0 -0.13392469859E+02  0.58726812664E+01  0.29653382135E+02  0.95478380416E+02  0.89570929551E+02 0.  0.
         11    1    3    3    0    0  0.30736923064E+02  0.22554011947E+02 -0.27844493754E+01  0.38225581129E+02  0.00000000000E+00 0. -1.
        -11    1    3    3    0    0 -0.44129392923E+02 -0.16681330680E+02  0.32437831511E+02  0.57252799287E+02  0.00000000000E+00 0.  1.
         22    1    1    2    0    0  0.13392469859E+02 -0.58726812664E+01 -0.17285788893E+02  0.22641668044E+02  0.00000000000E+00 0.  1.
<mgrwt>
<rscale>  0 0.57500578E+02</rscale>
<asrwt>0</asrwt>
<pdfrwt beam="1">  1        2 0.10037511E-01 0.90756807E+02</pdfrwt>
<pdfrwt beam="2">  1       -2 0.81348042E-02 0.90756807E+02</pdfrwt>
<totfact> 0.50553770E+04</totfact>
</mgrwt>
</event>
<event>
 6    1  0.2866116E-002  0.8760185E+02  0.7546771E-02  0.1423442E+00
         -1   -1    0    0    0  501 -0.00000000000E+00  0.00000000000E+00  0.40317785039E+01  0.40317785039E+01  0.00000000000E+00 0.  1.
          1   -1    0    0  501    0  0.00000000000E+00 -0.00000000000E+00 -0.75550330632E+03  0.75550330632E+03  0.00000000000E+00 0. -1.
         23    2    1    2    0    0  0.34472521453E+01  0.12463253393E+02 -0.72271536301E+03  0.72800520618E+03  0.86642184139E+02 0.  0.
         11    1    3    3    0    0 -0.21862026954E+02 -0.12477099416E+02 -0.59233592596E+03  0.59287053850E+03  0.00000000000E+00 0. -1.
        -11    1    3    3    0    0  0.25309279099E+02  0.24940352809E+02 -0.13037943705E+03  0.13513466769E+03  0.00000000000E+00 0.  1.
         22    1    1    2    0    0 -0.34472521453E+01 -0.12463253393E+02 -0.28756164808E+02  0.31529878638E+02  0.00000000000E+00 0.  1.
<mgrwt>
<rscale>  0 0.54299367E+02</rscale>
<asrwt>0</asrwt>
<pdfrwt beam="1">  1        1 0.11623127E+00 0.87601851E+02</pdfrwt>
<pdfrwt beam="2">  1       -1 0.62027364E-03 0.87601851E+02</pdfrwt>
<totfact> 0.82637393E+04</totfact>
</mgrwt>
</event>
<event>
 6    1  0.2866116E-002  0.9012040E+02  0.7546771E-02  0.1432023E+00
          2   -1    0    0  501    0  0.00000000000E+00  0.00000000000E+00  0.60701993323E+03  0.60701993323E+03  0.00000000000E+00 0. -1.
         -2   -1    0    0    0  501 -0.00000000000E+00 -0.00000000000E+00 -0.71141141866E+01  0.71141141866E+01  0.00000000000E+00 0.  1.
         23    2    1    2    0    0 -0.15523409188E+01  0.10307474038E+02  0.59634920528E+03  0.60312027037E+03  0.89515541160E+02 0.  0.
         13    1    3    3    0    0 -0.34274759198E+02  0.14023078795E+02  0.11882932783E+03  0.12446611993E+03  0.00000000000E+00 0.  1.
        -13    1    3    3    0    0  0.32722418279E+02 -0.37156047572E+01  0.47751987745E+03  0.47865415045E+03  0.00000000000E+00 0. -1.
         22    1    1    2    0    0  0.15523409188E+01 -0.10307474038E+02  0.35566137629E+01  0.11013777047E+02  0.00000000000E+00 0.  1.
<mgrwt>
<rscale>  0 0.52556075E+02</rscale>
<asrwt>0</asrwt>
<pdfrwt beam="1">  1        2 0.93387641E-01 0.90120397E+02</pdfrwt>
<pdfrwt beam="2">  1       -2 0.10944796E-02 0.90120397E+02</pdfrwt>
<totfact> 0.81407944E+04</totfact>
</mgrwt>
</event>
<event>
 6    1  0.2866116E-002  0.7561456E+02  0.7546771E-02  0.1459522E+00
         -1   -1    0    0    0  501 -0.00000000000E+00  0.00000000000E+00  0.24811483778E+02  0.24811483778E+02  0.00000000000E+00 0.  1.
          1   -1    0    0  501    0  0.00000000000E+00 -0.00000000000E+00 -0.14402464153E+03  0.14402464153E+03  0.00000000000E+00 0. -1.
         23    2    1    2    0    0  0.66407978893E+01 -0.96800304072E+01 -0.13159617250E+03  0.15177323459E+03  0.74697784020E+02 0.  0.
         11    1    3    3    0    0  0.38167642401E+02 -0.49026985111E+01 -0.43469490893E+02  0.58055163574E+02  0.00000000000E+00 0.  1.
        -11    1    3    3    0    0 -0.31526844511E+02 -0.47773318961E+01 -0.88126681602E+02  0.93718071017E+02  0.00000000000E+00 0. -1.
         22    1    1    2    0    0 -0.66407978893E+01  0.96800304072E+01  0.12383014746E+02  0.17062890713E+02  0.00000000000E+00 0.  1.
<mgrwt>
<rscale>  0 0.47463689E+02</rscale>
<asrwt>0</asrwt>
<pdfrwt beam="1">  1        1 0.22157636E-01 0.75614563E+02</pdfrwt>
<pdfrwt beam="2">  1       -1 0.38171515E-02 0.75614563E+02</pdfrwt>
<totfact> 0.49674428E+04</totfact>
</mgrwt>
</event>
<event>
 6    1  0.2866116E-002  0.9338148E+02  0.7546771E-02  0.1377544E+00
          3   -1    0    0  501    0  0.00000000000E+00  0.00000000000E+00  0.12672697558E+03  0.12672697558E+03  0.00000000000E+00 0. -1.
         -3   -1    0    0    0  501 -0.00000000000E+00 -0.00000000000E+00 -0.32843698371E+02  0.32843698371E+02  0.00000000000E+00 0.  1.
         23    2    1    2    0    0 -0.19999788129E+02 -0.93449055334E+01  0.99841314418E+02  0.13670548224E+03  0.90734679287E+02 0.  0.
         11    1    3    3    0    0 -0.32979123718E+02 -0.40475633852E+02  0.85226150761E+02  0.99946967490E+02  0.00000000000E+00 0. -1.
        -11    1    3    3    0    0  0.12979335589E+02  0.31130728318E+02  0.14615163657E+02  0.36758514751E+02  0.00000000000E+00 0.  1.
         22    1    1    2    0    0  0.19999788129E+02  0.93449055334E+01 -0.59580372074E+01  0.22865191711E+02  0.00000000000E+00 0.  1.
<mgrwt>
<rscale>  0 0.65113675E+02</rscale>
<asrwt>0</asrwt>
<pdfrwt beam="1">  1        3 0.19496458E-01 0.93381480E+02</pdfrwt>
<pdfrwt beam="2">  1       -3 0.50528767E-02 0.93381480E+02</pdfrwt>
<totfact> 0.10926373E+04</totfact>
</mgrwt>
</event>
<event>
 6    1  0.2866116E-002  0.9294776E+02  0.7546771E-02  0.1417248E+00
         -2   -1    0    0    0  501 -0.00000000000E+00  0.00000000000E+00  0.75051946120E+01  0.75051946120E+01  0.00000000000E+00 0.  1.
          2   -1    0    0  501    0  0.00000000000E+00 -0.00000000000E+00 -0.88976008635E+03  0.88976008635E+03  0.00000000000E+00 0. -1.
         23    2    1    2    0    0  0.61510292254E+01  0.10195445695E+02 -0.88030627654E+03  0.88519965314E+03  0.92181902412E+02 0.  0.
         11    1    3    3    0    0 -0.12251647132E+02  0.18916073994E+02 -0.83742787803E+03  0.83773108550E+03  0.00000000000E+00 0. -1.
        -11    1    3    3    0    0  0.18402676358E+02 -0.87206282991E+01 -0.42878398511E+02  0.47468567642E+02  0.00000000000E+00 0.  1.
         22    1    1    2    0    0 -0.61510292254E+01 -0.10195445695E+02 -0.19486151946E+01  0.12065627817E+02  0.00000000000E+00 0.  1.
<mgrwt>
<rscale>  0 0.55607315E+02</rscale>
<asrwt>0</asrwt>
<pdfrwt beam="1">  1        2 0.13688614E+00 0.92947756E+02</pdfrwt>
<pdfrwt beam="2">  1       -2 0.11546456E-02 0.92947756E+02</pdfrwt>
<totfact> 0.48050918E+04</totfact>
</mgrwt>
</event>
<event>
 6    1  0.2866116E-002  0.9538243E+02  0.7546771E-02  0.1403272E+00
         -1   -1    0    0    0  501 -0.00000000000E+00  0.00000000000E+00  0.80333660756E+02  0.80333660756E+02  0.00000000000E+00 0.  1.
          1   -1    0    0  501    0  0.00000000000E+00 -0.00000000000E+00 -0.10529328467E+03  0.10529328467E+03  0.00000000000E+00 0. -1.
         23    2    1    2    0    0 -0.10987617664E+02 -0.81881990252E+01 -0.82724935591E+02  0.12625855672E+03  0.94392975542E+02 0.  0.
         11    1    3    3    0    0 -0.26556584133E+02  0.37745395464E+02 -0.32556103074E+02  0.56478906566E+02  0.00000000000E+00 0.  1.
        -11    1    3    3    0    0  0.15568966469E+02 -0.45933594490E+02 -0.50168832517E+02  0.69779650155E+02  0.00000000000E+00 0. -1.
         22    1    1    2    0    0  0.10987617664E+02  0.81881990252E+01  0.57765311672E+02  0.59368388708E+02  0.00000000000E+00 0.  1.
<mgrwt>
<rscale>  0 0.58722674E+02</rscale>
<asrwt>0</asrwt>
<pdfrwt beam="1">  1        1 0.16198967E-01 0.95382431E+02</pdfrwt>
<pdfrwt beam="2">  1       -1 0.12359025E-01 0.95382431E+02</pdfrwt>
<totfact> 0.13288627E+04</totfact>
</mgrwt>
</event>
<event>
 6    1  0.2866116E-002  0.9639008E+02  0.7546771E-02  0.1395166E+00
          2   -1    0    0  501    0  0.00000000000E+00  0.00000000000E+00  0.30476021261E+03  0.30476021261E+03  0.00000000000E+00 0. -1.
         -2   -1    0    0    0  501 -0.00000000000E+00 -0.00000000000E+00 -0.10380328300E+02  0.10380328300E+02  0.00000000000E+00 0.  1.
         23    2    1    2    0    0  0.14627703493E+02 -0.37416369776E+01  0.23810957642E+03  0.25687977275E+03  0.95200198044E+02 0.  0.
         11    1    3    3    0    0 -0.25216316203E+02 -0.88135648088E+01  0.19911569205E+03  0.20089947822E+03  0.00000000000E+00 0. -1.
        -11    1    3    3    0    0  0.39844019695E+02  0.50719278312E+01  0.38993884366E+02  0.55980294527E+02  0.00000000000E+00 0.  1.
         22    1    1    2    0    0 -0.14627703493E+02  0.37416369776E+01  0.56270307894E+02  0.58260768166E+02  0.00000000000E+00 0. -1.
<mgrwt>
<rscale>  0 0.60639953E+02</rscale>
<asrwt>0</asrwt>
<pdfrwt beam="1">  1        2 0.46886180E-01 0.96390079E+02</pdfrwt>
<pdfrwt beam="2">  1       -2 0.15969738E-02 0.96390079E+02</pdfrwt>
<totfact> 0.10023321E+05</totfact>
</mgrwt>
</event>
<event>
 6    1  0.2866116E-002  0.9600706E+02  0.7546771E-02  0.1351670E+00
          2   -1    0    0  501    0  0.00000000000E+00  0.00000000000E+00  0.48035447046E+03  0.48035447046E+03  0.00000000000E+00 0. -1.
         -2   -1    0    0    0  501 -0.00000000000E+00 -0.00000000000E+00 -0.13171934191E+02  0.13171934191E+02  0.00000000000E+00 0.  1.
         23    2    1    2    0    0  0.27204614718E+02  0.15449932259E+02  0.44483874846E+03  0.45508116668E+03  0.90766539376E+02 0.  0.
         11    1    3    3    0    0  0.29717818924E+01 -0.25674137550E+00  0.40920165192E+03  0.40921252344E+03  0.00000000000E+00 0. -1.
        -11    1    3    3    0    0  0.24232832826E+02  0.15706673634E+02  0.35637096535E+02  0.45868643242E+02  0.00000000000E+00 0.  1.
         22    1    1    2    0    0 -0.27204614718E+02 -0.15449932259E+02  0.22343787811E+02  0.38445237969E+02  0.00000000000E+00 0.  1.
<mgrwt>
<rscale>  0 0.72537680E+02</rscale>
<asrwt>0</asrwt>
<pdfrwt beam="1">  1        2 0.73900674E-01 0.96007063E+02</pdfrwt>
<pdfrwt beam="2">  1       -2 0.20264518E-02 0.96007063E+02</pdfrwt>
<totfact> 0.44029466E+04</totfact>
</mgrwt>
</event>
<event>
 6    1  0.2866116E-002  0.9962697E+02  0.7546771E-02  0.1325845E+00
          2   -1    0    0  501    0  0.00000000000E+00  0.00000000000E+00  0.69352238216E+03  0.69352238216E+03  0.00000000000E+00 0. -1.
         -2   -1    0    0    0  501 -0.00000000000E+00 -0.00000000000E+00 -0.86005892476E+01  0.86005892476E+01  0.00000000000E+00 0.  1.
         23    2    1    2    0    0 -0.16728329625E+02  0.40518253519E+02  0.57867463539E+03  0.58718810132E+03  0.89464891488E+02 0.  0.
         11    1    3    3    0    0 -0.19319160490E+02  0.27186850529E+02  0.62562006269E+02  0.70896822440E+02  0.00000000000E+00 0.  1.
        -11    1    3    3    0    0  0.25908308645E+01  0.13331402990E+02  0.51611262912E+03  0.51629127888E+03  0.00000000000E+00 0. -1.
         22    1    1    2    0    0  0.16728329625E+02 -0.40518253519E+02  0.10624715752E+03  0.11493487009E+03  0.00000000000E+00 0.  1.
<mgrwt>
<rscale>  0 0.81140858E+02</rscale>
<asrwt>0</asrwt>
<pdfrwt beam="1">  1        2 0.10669571E+00 0.99626968E+02</pdfrwt>
<pdfrwt beam="2">  1       -2 0.13231681E-02 0.99626968E+02</pdfrwt>
<totfact> 0.54051835E+04</totfact>
</mgrwt>
</event>
<event>
 6    1  0.2866116E-002  0.1007846E+03  0.7546771E-02  0.1334403E+00
         -2   -1    0    0    0  501 -0.00000000000E+00  0.00000000000E+00  0.13563995777E+03  0.13563995777E+03  0.00000000000E+00 0.  1.
          2   -1    0    0  501    0  0.00000000000E+00 -0.00000000000E+00 -0.35945348162E+02  0.35945348162E+02  0.00000000000E+00 0. -1.
         23    2    1    2    0    0  0.14669239971E+02  0.33340470206E+02  0.86594247675E+02  0.13287622382E+03  0.93972089328E+02 0.  0.
         11    1    3    3    0    0  0.41700136068E+02 -0.14731439964E+02  0.49672019362E+02  0.66507339287E+02  0.00000000000E+00 0. -1.
        -11    1    3    3    0    0 -0.27030896097E+02  0.48071910170E+02  0.36922228313E+02  0.66368884538E+02  0.00000000000E+00 0.  1.
         22    1    1    2    0    0 -0.14669239971E+02 -0.33340470206E+02  0.13100361935E+02  0.38709082109E+02  0.00000000000E+00 0.  1.
<mgrwt>
<rscale>  0 0.78143903E+02</rscale>
<asrwt>0</asrwt>
<pdfrwt beam="1">  1        2 0.55300537E-02 0.10078456E+03</pdfrwt>
<pdfrwt beam="2">  1       -2 0.20867685E-01 0.10078456E+03</pdfrwt>
<totfact> 0.23895715E+04</totfact>
</mgrwt>
</event>
<event>
 6    1  0.2866116E-002  0.9133140E+02  0.7546771E-02  0.1399994E+00
         -4   -1    0    0    0  501 -0.00000000000E+00  0.00000000000E+00  0.18259604712E+02  0.18259604712E+02  0.00000000000E+00 0.  1.
          4   -1    0    0  501    0  0.00000000000E+00 -0.00000000000E+00 -0.27180061145E+03  0.27180061145E+03  0.00000000000E+00 0. -1.
         23    2    1    2    0    0 -0.15989833486E+02  0.38121206357E+01 -0.25744463652E+03  0.27316508775E+03  0.89839953557E+02 0.  0.
         11    1    3    3    0    0  0.36105706322E+02 -0.71941962601E+01 -0.12821931396E+03  0.13340004108E+03  0.00000000000E+00 0.  1.
        -11    1    3    3    0    0 -0.52095539808E+02  0.11006316896E+02 -0.12922532256E+03  0.13976504667E+03  0.00000000000E+00 0. -1.
         22    1    1    2    0    0  0.15989833486E+02 -0.38121206357E+01  0.39036297793E+01  0.16895128413E+02  0.00000000000E+00 0.  1.
<mgrwt>
<rscale>  0 0.59487698E+02</rscale>
<asrwt>0</asrwt>
<pdfrwt beam="1">  1        4 0.41815473E-01 0.91331398E+02</pdfrwt>
<pdfrwt beam="2">  1       -4 0.28091703E-02 0.91331398E+02</pdfrwt>
<totfact> 0.49082075E+03</totfact>
</mgrwt>
</event>
<event>
 6    1  0.2866116E-002  0.9356113E+02  0.7546771E-02  0.1375019E+00
         -2   -1    0    0    0  501 -0.00000000000E+00  0.00000000000E+00  0.85022149083E+01  0.85022149083E+01  0.00000000000E+00 0.  1.
          2   -1    0    0  501    0  0.00000000000E+00 -0.00000000000E+00 -0.60121561207E+03  0.60121561207E+03  0.00000000000E+00 0. -1.
         23    2    1    2    0    0  0.15320740761E+02 -0.16988352864E+02 -0.56947196827E+03  0.57710658279E+03  0.90721309664E+02 0.  0.
         11    1    3    3    0    0  0.46460387867E+02  0.91113026095E+01 -0.40189922731E+03  0.40467835671E+03  0.00000000000E+00 0. -1.
        -11    1    3    3    0    0 -0.31139647106E+02 -0.26099655473E+02 -0.16757274095E+03  0.17242822608E+03  0.00000000000E+00 0.  1.
         22    1    1    2    0    0 -0.15320740761E+02  0.16988352864E+02 -0.23241428898E+02  0.32611244191E+02  0.00000000000E+00 0.  1.
<mgrwt>
<rscale>  0 0.65791301E+02</rscale>
<asrwt>0</asrwt>
<pdfrwt beam="1">  1        2 0.92494678E-01 0.93561131E+02</pdfrwt>
<pdfrwt beam="2">  1       -2 0.13080335E-02 0.93561131E+02</pdfrwt>
<totfact> 0.64198245E+04</totfact>
</mgrwt>
</event>
<event>
 6    1  0.2866116E-002  0.9561440E+02  0.7546771E-02  0.1366086E+00
         -2   -1    0    0    0  501 -0.00000000000E+00  0.00000000000E+00  0.54390889599E+01  0.54390889599E+01  0.00000000000E+00 0.  1.
          2   -1    0    0  501    0  0.00000000000E+00 -0.00000000000E+00 -0.31235000393E+04  0.31235000393E+04  0.00000000000E+00 0. -1.
         23    2    1    2    0    0 -0.24240771556E+02 -0.54566606679E+01 -0.30899177980E+04  0.30913967898E+04  0.92329430227E+02 0.  0.
         11    1    3    3    0    0  0.18805387495E+02 -0.21428818631E+01 -0.24273876951E+04  0.24274614841E+04  0.00000000000E+00 0. -1.
        -11    1    3    3    0    0 -0.43046159051E+02 -0.33137788048E+01 -0.66253010287E+03  0.66393530570E+03  0.00000000000E+00 0.  1.
         22    1    1    2    0    0  0.24240771556E+02  0.54566606679E+01 -0.28143152387E+02  0.37542338467E+02  0.00000000000E+00 0.  1.
<mgrwt>
<rscale>  0 0.68267256E+02</rscale>
<asrwt>0</asrwt>
<pdfrwt beam="1">  1        2 0.48054016E+00 0.95614402E+02</pdfrwt>
<pdfrwt beam="2">  1       -2 0.83677997E-03 0.95614402E+02</pdfrwt>
<totfact> 0.49033716E+03</totfact>
</mgrwt>
</event>
<event>
 6    1  0.2866116E-002  0.8961058E+02  0.7546771E-02  0.1425338E+00
          2   -1    0    0  501    0  0.00000000000E+00  0.00000000000E+00  0.40545242068E+03  0.40545242068E+03  0.00000000000E+00 0. -1.
         -2   -1    0    0    0  501 -0.00000000000E+00 -0.00000000000E+00 -0.91375632717E+01  0.91375632717E+01  0.00000000000E+00 0.  1.
         23    2    1    2    0    0  0.97981490443E+00  0.11694913338E+02  0.39195866456E+03  0.40207169927E+03  0.88838761773E+02 0.  0.
         13    1    3    3    0    0  0.34757794668E+02 -0.32007136761E+01  0.72260590681E+02  0.80249248120E+02  0.00000000000E+00 0.  1.
        -13    1    3    3    0    0 -0.33777979764E+02  0.14895627015E+02  0.31969807388E+03  0.32182245115E+03  0.00000000000E+00 0. -1.
         22    1    1    2    0    0 -0.97981490443E+00 -0.11694913338E+02  0.43561928451E+01  0.12518284681E+02  0.00000000000E+00 0. -1.
<mgrwt>
<rscale>  0 0.53907409E+02</rscale>
<asrwt>0</asrwt>
<pdfrwt beam="1">  1        2 0.62377282E-01 0.89610583E+02</pdfrwt>
<pdfrwt beam="2">  1       -2 0.14057793E-02 0.89610583E+02</pdfrwt>
<totfact> 0.88198432E+04</totfact>
</mgrwt>
</event>
<event>
 6    1  0.2866116E-002  0.9342183E+02  0.7546771E-02  0.1420927E+00
          2   -1    0    0  501    0  0.00000000000E+00  0.00000000000E+00  0.27338651037E+03  0.27338651037E+03  0.00000000000E+00 0. -1.
         -2   -1    0    0    0  501 -0.00000000000E+00 -0.00000000000E+00 -0.33041993481E+02  0.33041993481E+02  0.00000000000E+00 0.  1.
         23    2    1    2    0    0 -0.11064758326E+02  0.60030890056E+00  0.26414282833E+03  0.28017685866E+03  0.92762325997E+02 0.  0.
         13    1    3    3    0    0  0.72488127377E+01  0.17297645799E+02  0.25178731477E+03  0.25248486235E+03  0.00000000000E+00 0. -1.
        -13    1    3    3    0    0 -0.18313571063E+02 -0.16697336899E+02  0.12355513563E+02  0.27691996317E+02  0.00000000000E+00 0.  1.
         22    1    1    2    0    0  0.11064758326E+02 -0.60030890056E+00 -0.23798311442E+02  0.26251645188E+02  0.00000000000E+00 0.  1.
<mgrwt>
<rscale>  0 0.54825338E+02</rscale>
<asrwt>0</asrwt>
<pdfrwt beam="1">  1        2 0.42059462E-01 0.93421830E+02</pdfrwt>
<pdfrwt beam="2">  1       -2 0.50833838E-02 0.93421830E+02</pdfrwt>
<totfact> 0.20744628E+04</totfact>
</mgrwt>
</event>
<event>
 6    1  0.2866116E-002  0.1050558E+03  0.7546771E-02  0.1307233E+00
         -1   -1    0    0    0  501 -0.00000000000E+00  0.00000000000E+00  0.73150489661E+02  0.73150489661E+02  0.00000000000E+00 0.  1.
          1   -1    0    0  501    0  0.00000000000E+00 -0.00000000000E+00 -0.11934720427E+03  0.11934720427E+03  0.00000000000E+00 0. -1.
         23    2    1    2    0    0 -0.33748313728E+01 -0.52119649538E+02 -0.78447969134E+02  0.13111373207E+03  0.91153055470E+02 0.  0.
         11    1    3    3    0    0  0.14866706908E+02  0.14556996842E+02  0.63082806314E+01  0.21742114337E+02  0.00000000000E+00 0.  1.
        -11    1    3    3    0    0 -0.18241538281E+02 -0.66676646380E+02 -0.84756249765E+02  0.10937161773E+03  0.00000000000E+00 0. -1.
         22    1    1    2    0    0  0.33748313728E+01  0.52119649538E+02  0.32251254528E+02  0.61383961858E+02  0.00000000000E+00 0.  1.
<mgrwt>
<rscale>  0 0.88215037E+02</rscale>
<asrwt>0</asrwt>
<pdfrwt beam="1">  1        1 0.18361108E-01 0.10505583E+03</pdfrwt>
<pdfrwt beam="2">  1       -1 0.11253922E-01 0.10505583E+03</pdfrwt>
<totfact> 0.13200687E+04</totfact>
</mgrwt>
</event>
<event>
 6    1  0.2866116E-002  0.9487135E+02  0.7546771E-02  0.1383582E+00
          2   -1    0    0  501    0  0.00000000000E+00  0.00000000000E+00  0.17485333100E+02  0.17485333100E+02  0.00000000000E+00 0.  1.
         -2   -1    0    0    0  501 -0.00000000000E+00 -0.00000000000E+00 -0.18580811472E+03  0.18580811472E+03  0.00000000000E+00 0. -1.
         23    2    1    2    0    0  0.25229920029E+01 -0.18911147289E+02 -0.14230714141E+03  0.17103185276E+03  0.92933175890E+02 0.  0.
         11    1    3    3    0    0  0.33439265924E+02 -0.29149989787E+02 -0.12798334923E+03  0.13545347574E+03  0.00000000000E+00 0. -1.
        -11    1    3    3    0    0 -0.30916273921E+02  0.10238842499E+02 -0.14323792183E+02  0.35578377020E+02  0.00000000000E+00 0.  1.
         22    1    1    2    0    0 -0.25229920029E+01  0.18911147289E+02 -0.26015640202E+02  0.32261595056E+02  0.00000000000E+00 0.  1.
<mgrwt>
<rscale>  0 0.63531413E+02</rscale>
<asrwt>0</asrwt>
<pdfrwt beam="1">  1        2 0.26900512E-02 0.94871345E+02</pdfrwt>
<pdfrwt beam="2">  1       -2 0.28585865E-01 0.94871345E+02</pdfrwt>
<totfact> 0.35446184E+04</totfact>
</mgrwt>
</event>
<event>
 6    1  0.2866116E-002  0.1031001E+03  0.7546771E-02  0.1304663E+00
         -4   -1    0    0    0  501 -0.00000000000E+00  0.00000000000E+00  0.64168257881E+03  0.64168257881E+03  0.00000000000E+00 0.  1.
          4   -1    0    0  501    0  0.00000000000E+00 -0.00000000000E+00 -0.10210390935E+02  0.10210390935E+02  0.00000000000E+00 0. -1.
         23    2    1    2    0    0 -0.57635781370E+02  0.56592512006E+01  0.43586563273E+03  0.44789337456E+03  0.85297800474E+02 0.  0.
         13    1    3    3    0    0  0.48897608403E+00 -0.31413888209E+02  0.18850219778E+03  0.19110245953E+03  0.00000000000E+00 0.  1.
        -13    1    3    3    0    0 -0.58124757454E+02  0.37073139410E+02  0.24736343495E+03  0.25679091503E+03  0.00000000000E+00 0. -1.
         22    1    1    2    0    0  0.57635781370E+02 -0.56592512006E+01  0.19560655514E+03  0.20399959518E+03  0.00000000000E+00 0.  1.
<mgrwt>
<rscale>  0 0.89256153E+02</rscale>
<asrwt>0</asrwt>
<pdfrwt beam="1">  1        4 0.15708299E-02 0.10310007E+03</pdfrwt>
<pdfrwt beam="2">  1       -4 0.98720365E-01 0.10310007E+03</pdfrwt>
<totfact> 0.20092297E+03</totfact>
</mgrwt>
</event>
<event>
 6    1  0.2866116E-002  0.9231722E+02  0.7546771E-02  0.1403492E+00
          2   -1    0    0  501    0  0.00000000000E+00  0.00000000000E+00  0.10462146816E+03  0.10462146816E+03  0.00000000000E+00 0.  1.
         -2   -1    0    0    0  501 -0.00000000000E+00 -0.00000000000E+00 -0.36947728892E+02  0.36947728892E+02  0.00000000000E+00 0. -1.
         23    2    1    2    0    0 -0.12826153309E+02 -0.78952644596E+01  0.79960633478E+02  0.12213178007E+03  0.91080312845E+02 0.  0.
         11    1    3    3    0    0 -0.32101660307E+02 -0.30877430910E+02  0.94872863638E+01  0.45540541682E+02  0.00000000000E+00 0. -1.
        -11    1    3    3    0    0  0.19275506999E+02  0.22982166451E+02  0.70473347114E+02  0.76591238391E+02  0.00000000000E+00 0.  1.
         22    1    1    2    0    0  0.12826153309E+02  0.78952644596E+01 -0.12286894208E+02  0.19437416980E+02  0.00000000000E+00 0. -1.
<mgrwt>
<rscale>  0 0.58671647E+02</rscale>
<asrwt>0</asrwt>
<pdfrwt beam="1">  1        2 0.16095610E-01 0.92317218E+02</pdfrwt>
<pdfrwt beam="2">  1       -2 0.56842660E-02 0.92317218E+02</pdfrwt>
<totfact> 0.49922552E+04</totfact>
</mgrwt>
</event>
<event>
 6    1  0.2866116E-002  0.1026858E+03  0.7546771E-02  0.1327577E+00
          2   -1    0    0  501    0  0.00000000000E+00  0.00000000000E+00  0.91448417607E+03  0.91448417607E+03  0.00000000000E+00 0. -1.
         -2   -1    0    0    0  501 -0.00000000000E+00 -0.00000000000E+00 -0.79226619012E+01  0.79226619012E+01  0.00000000000E+00 0.  1.
         23    2    1    2    0    0 -0.50822164407E+01  0.38491726169E+02  0.83227769996E+03  0.83858842138E+03  0.95062761926E+02 0.  0.
         13    1    3    3    0    0 -0.31941393901E+02  0.57555951207E+02  0.65307499236E+03  0.65638394694E+03  0.00000000000E+00 0. -1.
        -13    1    3    3    0    0  0.26859177461E+02 -0.19064225039E+02  0.17920270761E+03  0.18220447444E+03  0.00000000000E+00 0.  1.
         22    1    1    2    0    0  0.50822164407E+01 -0.38491726169E+02  0.74283814208E+02  0.83818416596E+02  0.00000000000E+00 0.  1.
<mgrwt>
<rscale>  0 0.80521679E+02</rscale>
<asrwt>0</asrwt>
<pdfrwt beam="1">  1        2 0.14068979E+00 0.10268579E+03</pdfrwt>
<pdfrwt beam="2">  1       -2 0.12188718E-02 0.10268579E+03</pdfrwt>
<totfact> 0.43409303E+04</totfact>
</mgrwt>
</event>
<event>
 6    1  0.2866116E-002  0.9323342E+02  0.7546771E-02  0.1394632E+00
         -2   -1    0    0    0  501 -0.00000000000E+00  0.00000000000E+00  0.67521372299E+01  0.67521372299E+01  0.00000000000E+00 0.  1.
          2   -1    0    0  501    0  0.00000000000E+00 -0.00000000000E+00 -0.11072564328E+04  0.11072564328E+04  0.00000000000E+00 0. -1.
         23    2    1    2    0    0  0.21323185980E+01  0.16691824136E+02 -0.10904038705E+04  0.10943825067E+04  0.91702270546E+02 0.  0.
         11    1    3    3    0    0  0.24728293920E+02 -0.18156280905E+02 -0.15226460014E+03  0.15532433007E+03  0.00000000000E+00 0.  1.
        -11    1    3    3    0    0 -0.22595975322E+02  0.34848105040E+02 -0.93813927034E+03  0.93905817662E+03  0.00000000000E+00 0. -1.
         22    1    1    2    0    0 -0.21323185980E+01 -0.16691824136E+02 -0.10100425116E+02  0.19626063362E+02  0.00000000000E+00 0.  1.
<mgrwt>
<rscale>  0 0.60769186E+02</rscale>
<asrwt>0</asrwt>
<pdfrwt beam="1">  1        2 0.17034723E+00 0.93233418E+02</pdfrwt>
<pdfrwt beam="2">  1       -2 0.10387898E-02 0.93233418E+02</pdfrwt>
<totfact> 0.41580269E+04</totfact>
</mgrwt>
</event>
<event>
 6    1  0.2866116E-002  0.9361492E+02  0.7546771E-02  0.1383435E+00
         -2   -1    0    0    0  501 -0.00000000000E+00  0.00000000000E+00  0.37567203214E+02  0.37567203214E+02  0.00000000000E+00 0.  1.
          2   -1    0    0  501    0  0.00000000000E+00 -0.00000000000E+00 -0.27082712035E+03  0.27082712035E+03  0.00000000000E+00 0. -1.
         23    2    1    2    0    0  0.14552825753E+02 -0.13579839140E+02 -0.25926348665E+03  0.27564707335E+03  0.91474350347E+02 0.  0.
         11    1    3    3    0    0  0.49827974961E+02  0.10450121349E+02 -0.14390939901E+03  0.15264975351E+03  0.00000000000E+00 0. -1.
        -11    1    3    3    0    0 -0.35275149207E+02 -0.24029960489E+02 -0.11535408764E+03  0.12299731984E+03  0.00000000000E+00 0.  1.
         22    1    1    2    0    0 -0.14552825753E+02  0.13579839140E+02  0.26003569516E+02  0.32747250206E+02  0.00000000000E+00 0.  1.
<mgrwt>
<rscale>  0 0.63569336E+02</rscale>
<asrwt>0</asrwt>
<pdfrwt beam="1">  1        2 0.41665712E-01 0.93614922E+02</pdfrwt>
<pdfrwt beam="2">  1       -2 0.57795696E-02 0.93614922E+02</pdfrwt>
<totfact> 0.17300204E+04</totfact>
</mgrwt>
</event>
<event>
 6    1  0.2866116E-002  0.9319909E+02  0.7546771E-02  0.1421220E+00
         -3   -1    0    0    0  501 -0.00000000000E+00  0.00000000000E+00  0.25770351314E+02  0.25770351314E+02  0.00000000000E+00 0.  1.
          3   -1    0    0  501    0  0.00000000000E+00 -0.00000000000E+00 -0.25864203466E+03  0.25864203466E+03  0.00000000000E+00 0. -1.
         23    2    1    2    0    0 -0.60287886863E+01  0.93325118330E+01 -0.24840576979E+03  0.26531395903E+03  0.92534470997E+02 0.  0.
         13    1    3    3    0    0 -0.24406592090E+02 -0.63082861807E+01 -0.12428520806E+02  0.28105948506E+02  0.00000000000E+00 0.  1.
        -13    1    3    3    0    0  0.18377803403E+02  0.15640798014E+02 -0.23597724898E+03  0.23720801053E+03  0.00000000000E+00 0. -1.
         22    1    1    2    0    0  0.60287886863E+01 -0.93325118330E+01  0.15534086442E+02  0.19098426944E+02  0.00000000000E+00 0.  1.
<mgrwt>
<rscale>  0 0.54763558E+02</rscale>
<asrwt>0</asrwt>
<pdfrwt beam="1">  1        3 0.39791082E-01 0.93199090E+02</pdfrwt>
<pdfrwt beam="2">  1       -3 0.39646694E-02 0.93199090E+02</pdfrwt>
<totfact> 0.43576420E+03</totfact>
</mgrwt>
</event>
<event>
 6    1  0.2866116E-002  0.8899408E+02  0.7546771E-02  0.1435958E+00
          3   -1    0    0  501    0  0.00000000000E+00  0.00000000000E+00  0.31824534083E+03  0.31824534083E+03  0.00000000000E+00 0. -1.
         -3   -1    0    0    0  501 -0.00000000000E+00 -0.00000000000E+00 -0.11636872245E+02  0.11636872245E+02  0.00000000000E+00 0.  1.
         23    2    1    2    0    0  0.10199982650E+02  0.15464621093E+00  0.30703475469E+03  0.31967215522E+03  0.88407480877E+02 0.  0.
         13    1    3    3    0    0 -0.28065699080E+02  0.87181685088E+01  0.39257964397E+02  0.49039552360E+02  0.00000000000E+00 0.  1.
        -13    1    3    3    0    0  0.38265681730E+02 -0.85635222979E+01  0.26777679029E+03  0.27063260286E+03  0.00000000000E+00 0. -1.
         22    1    1    2    0    0 -0.10199982650E+02 -0.15464621093E+00 -0.42628610548E+00  0.10210057852E+02  0.00000000000E+00 0.  1.
<mgrwt>
<rscale>  0 0.51782519E+02</rscale>
<asrwt>0</asrwt>
<pdfrwt beam="1">  1        3 0.48960815E-01 0.88994080E+02</pdfrwt>
<pdfrwt beam="2">  1       -3 0.17902883E-02 0.88994080E+02</pdfrwt>
<totfact> 0.97007504E+03</totfact>
</mgrwt>
</event>
<event>
 6    1  0.2866116E-002  0.9663998E+02  0.7546771E-02  0.1385915E+00
          2   -1    0    0  501    0  0.00000000000E+00  0.00000000000E+00  0.27755060924E+03  0.27755060924E+03  0.00000000000E+00 0.  1.
         -2   -1    0    0    0  501 -0.00000000000E+00 -0.00000000000E+00 -0.19417919504E+02  0.19417919504E+02  0.00000000000E+00 0. -1.
         23    2    1    2    0    0 -0.17380946550E+02  0.52633895127E-01  0.26191986324E+03  0.27917969077E+03  0.95064109457E+02 0.  0.
         13    1    3    3    0    0 -0.54389175866E+02 -0.15710572224E+01  0.19760453572E+03  0.20495902812E+03  0.00000000000E+00 0. -1.
        -13    1    3    3    0    0  0.37008229316E+02  0.16236911176E+01  0.64315327514E+02  0.74220662644E+02  0.00000000000E+00 0.  1.
         22    1    1    2    0    0  0.17380946550E+02 -0.52633895127E-01 -0.37871735022E+01  0.17788837973E+02  0.00000000000E+00 0. -1.
<mgrwt>
<rscale>  0 0.62934164E+02</rscale>
<asrwt>0</asrwt>
<pdfrwt beam="1">  1        2 0.42700091E-01 0.96639976E+02</pdfrwt>
<pdfrwt beam="2">  1       -2 0.29873724E-02 0.96639976E+02</pdfrwt>
<totfact> 0.44804532E+04</totfact>
</mgrwt>
</event>
<event>
 6    1  0.2866116E-002  0.9923031E+02  0.7546771E-02  0.1348914E+00
         -4   -1    0    0    0  501 -0.00000000000E+00  0.00000000000E+00  0.15341745662E+03  0.15341745662E+03  0.00000000000E+00 0.  1.
          4   -1    0    0  501    0  0.00000000000E+00 -0.00000000000E+00 -0.30387169571E+02  0.30387169571E+02  0.00000000000E+00 0. -1.
         23    2    1    2    0    0 -0.23275519118E+02 -0.18446287651E+02  0.65022789307E+02  0.11863649661E+03  0.94681782202E+02 0.  0.
         11    1    3    3    0    0 -0.12198371255E+02 -0.68961630738E+01 -0.24213858071E+02  0.27976208626E+02  0.00000000000E+00 0. -1.
        -11    1    3    3    0    0 -0.11077147864E+02 -0.11550124577E+02  0.89236647378E+02  0.90660287987E+02  0.00000000000E+00 0.  1.
         22    1    1    2    0    0  0.23275519118E+02  0.18446287651E+02  0.58007497743E+02  0.65168129579E+02  0.00000000000E+00 0.  1.
<mgrwt>
<rscale>  0 0.73395222E+02</rscale>
<asrwt>0</asrwt>
<pdfrwt beam="1">  1        4 0.46749493E-02 0.99230314E+02</pdfrwt>
<pdfrwt beam="2">  1       -4 0.23602685E-01 0.99230314E+02</pdfrwt>
<totfact> 0.66535083E+03</totfact>
</mgrwt>
</event>
<event>
 6    1  0.2866116E-002  0.9166008E+02  0.7546771E-02  0.1371637E+00
          2   -1    0    0  501    0  0.00000000000E+00  0.00000000000E+00  0.13146114353E+04  0.13146114353E+04  0.00000000000E+00 0. -1.
         -2   -1    0    0    0  501 -0.00000000000E+00 -0.00000000000E+00 -0.32253646727E+01  0.32253646727E+01  0.00000000000E+00 0.  1.
         23    2    1    2    0    0  0.20969712640E+02 -0.14898633583E+02  0.12010211353E+04  0.12045137349E+04  0.87976542105E+02 0.  0.
         13    1    3    3    0    0 -0.26000721206E+02  0.15640623232E+02  0.24836467160E+03  0.25021126413E+03  0.00000000000E+00 0.  1.
        -13    1    3    3    0    0  0.46970433845E+02 -0.30539256816E+02  0.95265646367E+03  0.95430247073E+03  0.00000000000E+00 0. -1.
         22    1    1    2    0    0 -0.20969712640E+02  0.14898633583E+02  0.11036493533E+03  0.11332306509E+03  0.00000000000E+00 0. -1.
<mgrwt>
<rscale>  0 0.66714104E+02</rscale>
<asrwt>0</asrwt>
<pdfrwt beam="1">  1        2 0.20224749E+00 0.91660079E+02</pdfrwt>
<pdfrwt beam="2">  1       -2 0.49621100E-03 0.91660079E+02</pdfrwt>
<totfact> 0.90714591E+04</totfact>
</mgrwt>
</event>
<event>
 6    1  0.2866116E-002  0.9282467E+02  0.7546771E-02  0.1376653E+00
          2   -1    0    0  501    0  0.00000000000E+00  0.00000000000E+00  0.32942497280E+03  0.32942497280E+03  0.00000000000E+00 0. -1.
         -2   -1    0    0    0  501 -0.00000000000E+00 -0.00000000000E+00 -0.10153479653E+02  0.10153479653E+02  0.00000000000E+00 0.  1.
         23    2    1    2    0    0  0.13144821986E+02 -0.18636175564E+02  0.25275428676E+03  0.26926037419E+03  0.89979587967E+02 0.  0.
         13    1    3    3    0    0 -0.80913828546E+01 -0.13369330482E+02  0.66738232852E-01  0.15627345521E+02  0.00000000000E+00 0. -1.
        -13    1    3    3    0    0  0.21236204840E+02 -0.52668450817E+01  0.25268754853E+03  0.25363302867E+03  0.00000000000E+00 0.  1.
         22    1    1    2    0    0 -0.13144821986E+02  0.18636175564E+02  0.66517206392E+02  0.70318078265E+02  0.00000000000E+00 0.  1.
<mgrwt>
<rscale>  0 0.65351827E+02</rscale>
<asrwt>0</asrwt>
<pdfrwt beam="1">  1        2 0.50680757E-01 0.92824671E+02</pdfrwt>
<pdfrwt beam="2">  1       -2 0.15620740E-02 0.92824671E+02</pdfrwt>
<totfact> 0.94836691E+04</totfact>
</mgrwt>
</event>
<event>
 6    1  0.2866116E-002  0.1013035E+03  0.7546771E-02  0.1322610E+00
         -2   -1    0    0    0  501 -0.00000000000E+00  0.00000000000E+00  0.20112399795E+02  0.20112399795E+02  0.00000000000E+00 0.  1.
          2   -1    0    0  501    0  0.00000000000E+00 -0.00000000000E+00 -0.26415159415E+03  0.26415159415E+03  0.00000000000E+00 0. -1.
         23    2    1    2    0    0  0.27910347954E+02 -0.34220825652E+02 -0.17832506109E+03  0.20509076778E+03  0.91172052641E+02 0.  0.
         13    1    3    3    0    0 -0.18496007495E+02  0.10100145612E+02 -0.71033552329E+01  0.22238994811E+02  0.00000000000E+00 0.  1.
        -13    1    3    3    0    0  0.46406355449E+02 -0.44320971264E+02 -0.17122170586E+03  0.18285177297E+03  0.00000000000E+00 0. -1.
         22    1    1    2    0    0 -0.27910347954E+02  0.34220825652E+02 -0.65714133266E+02  0.79173226169E+02  0.00000000000E+00 0.  1.
<mgrwt>
<rscale>  0 0.82314069E+02</rscale>
<asrwt>0</asrwt>
<pdfrwt beam="1">  1        2 0.40638705E-01 0.10130348E+03</pdfrwt>
<pdfrwt beam="2">  1       -2 0.30942155E-02 0.10130348E+03</pdfrwt>
<totfact> 0.45100156E+04</totfact>
</mgrwt>
</event>
<event>
 6    1  0.2866116E-002  0.1067490E+03  0.7546771E-02  0.1311437E+00
          2   -1    0    0  501    0  0.00000000000E+00  0.00000000000E+00  0.10843427859E+03  0.10843427859E+03  0.00000000000E+00 0. -1.
         -2   -1    0    0    0  501 -0.00000000000E+00 -0.00000000000E+00 -0.63726570658E+02  0.63726570658E+02  0.00000000000E+00 0.  1.
         23    2    1    2    0    0  0.80904310378E+01  0.45406684632E+02  0.61356829136E+02  0.12312601142E+03  0.96271138578E+02 0.  0.
         13    1    3    3    0    0 -0.49686640264E+01  0.73276208085E+02  0.30443864480E+02  0.79504208556E+02  0.00000000000E+00 0.  1.
        -13    1    3    3    0    0  0.13059095064E+02 -0.27869523453E+02  0.30912964655E+02  0.43621802865E+02  0.00000000000E+00 0. -1.
         22    1    1    2    0    0 -0.80904310378E+01 -0.45406684632E+02 -0.16649121205E+02  0.49034837826E+02  0.00000000000E+00 0.  1.
<mgrwt>
<rscale>  0 0.86546506E+02</rscale>
<asrwt>0</asrwt>
<pdfrwt beam="1">  1        2 0.16682197E-01 0.10674902E+03</pdfrwt>
<pdfrwt beam="2">  1       -2 0.98040878E-02 0.10674902E+03</pdfrwt>
<totfact> 0.21230558E+04</totfact>
</mgrwt>
</event>
<event>
 6    1  0.2866116E-002  0.9756437E+02  0.7546771E-02  0.1342191E+00
         -1   -1    0    0    0  501 -0.00000000000E+00  0.00000000000E+00  0.18107941268E+03  0.18107941268E+03  0.00000000000E+00 0.  1.
          1   -1    0    0  501    0  0.00000000000E+00 -0.00000000000E+00 -0.24572745385E+02  0.24572745385E+02  0.00000000000E+00 0. -1.
         23    2    1    2    0    0 -0.28058157565E+02 -0.21041619018E+02  0.10491777060E+03  0.14327087723E+03  0.91042823644E+02 0.  0.
         13    1    3    3    0    0 -0.18659792827E+02 -0.88027800586E+01 -0.12974884084E+02  0.24372616234E+02  0.00000000000E+00 0. -1.
        -13    1    3    3    0    0 -0.93983647384E+01 -0.12238838959E+02  0.11789265469E+03  0.11889826100E+03  0.00000000000E+00 0.  1.
         22    1    1    2    0    0  0.28058157565E+02  0.21041619018E+02  0.51588896692E+02  0.62381280836E+02  0.00000000000E+00 0.  1.
<mgrwt>
<rscale>  0 0.75545222E+02</rscale>
<asrwt>0</asrwt>
<pdfrwt beam="1">  1        1 0.37804225E-02 0.97564367E+02</pdfrwt>
<pdfrwt beam="2">  1       -1 0.27858370E-01 0.97564367E+02</pdfrwt>
<totfact> 0.25311393E+04</totfact>
</mgrwt>
</event>
<event>
 6    1  0.2866116E-002  0.9364860E+02  0.7546771E-02  0.1385059E+00
          2   -1    0    0  501    0  0.00000000000E+00  0.00000000000E+00  0.46417136588E+03  0.46417136588E+03  0.00000000000E+00 0. -1.
         -2   -1    0    0    0  501 -0.00000000000E+00 -0.00000000000E+00 -0.22195675496E+02  0.22195675496E+02  0.00000000000E+00 0.  1.
         23    2    1    2    0    0 -0.40525637299E+01 -0.18938085118E+02  0.45400861311E+03  0.46356648064E+03  0.91624160840E+02 0.  0.
         13    1    3    3    0    0 -0.66300921419E+01  0.19271246273E+02  0.22483796410E+02  0.30345677711E+02  0.00000000000E+00 0.  1.
        -13    1    3    3    0    0  0.25775284120E+01 -0.38209331392E+02  0.43152481670E+03  0.43322080293E+03  0.00000000000E+00 0. -1.
         22    1    1    2    0    0  0.40525637299E+01  0.18938085118E+02 -0.12032922727E+02  0.22800560741E+02  0.00000000000E+00 0.  1.
<mgrwt>
<rscale>  0 0.63152515E+02</rscale>
<asrwt>0</asrwt>
<pdfrwt beam="1">  1        2 0.71410972E-01 0.93648605E+02</pdfrwt>
<pdfrwt beam="2">  1       -2 0.34147196E-02 0.93648605E+02</pdfrwt>
<totfact> 0.21378882E+04</totfact>
</mgrwt>
</event>
<event>
 6    1  0.2866116E-002  0.9244633E+02  0.7546771E-02  0.1378210E+00
         -2   -1    0    0    0  501 -0.00000000000E+00  0.00000000000E+00  0.14499905163E+02  0.14499905163E+02  0.00000000000E+00 0.  1.
          2   -1    0    0  501    0  0.00000000000E+00 -0.00000000000E+00 -0.22812439258E+03  0.22812439258E+03  0.00000000000E+00 0. -1.
         23    2    1    2    0    0 -0.21885726646E+02  0.52450562505E+01 -0.17519005414E+03  0.19808553589E+03  0.89665092505E+02 0.  0.
         13    1    3    3    0    0 -0.14713567627E+02  0.24974457732E+02 -0.17469877058E+03  0.17708719054E+03  0.00000000000E+00 0. -1.
        -13    1    3    3    0    0 -0.71721590188E+01 -0.19729401482E+02 -0.49128355690E+00  0.20998345348E+02  0.00000000000E+00 0.  1.
         22    1    1    2    0    0  0.21885726646E+02 -0.52450562505E+01 -0.38434433273E+02  0.44538761848E+02  0.00000000000E+00 0.  1.
<mgrwt>
<rscale>  0 0.64936553E+02</rscale>
<asrwt>0</asrwt>
<pdfrwt beam="1">  1        2 0.35096059E-01 0.92446333E+02</pdfrwt>
<pdfrwt beam="2">  1       -2 0.22307547E-02 0.92446333E+02</pdfrwt>
<totfact> 0.83576138E+04</totfact>
</mgrwt>
</event>
<event>
 6    1  0.2866116E-002  0.9944119E+02  0.7546771E-02  0.1406548E+00
         -2   -1    0    0    0  501 -0.00000000000E+00  0.00000000000E+00  0.76450727446E+01  0.76450727446E+01  0.00000000000E+00 0.  1.
          2   -1    0    0  501    0  0.00000000000E+00 -0.00000000000E+00 -0.69162926173E+03  0.69162926173E+03  0.00000000000E+00 0. -1.
         23    2    1    2    0    0 -0.92051129824E+01  0.68690812313E+01 -0.67982424779E+03  0.68705862767E+03  0.98775662968E+02 0.  0.
         11    1    3    3    0    0 -0.32055246476E+02 -0.32501601818E+02 -0.47747663732E+03  0.47965386701E+03  0.00000000000E+00 0. -1.
        -11    1    3    3    0    0  0.22850133494E+02  0.39370683049E+02 -0.20234761046E+03  0.20740476066E+03  0.00000000000E+00 0.  1.
         22    1    1    2    0    0  0.92051129824E+01 -0.68690812313E+01 -0.41599411997E+01  0.12215706806E+02  0.00000000000E+00 0.  1.
<mgrwt>
<rscale>  0 0.57971281E+02</rscale>
<asrwt>0</asrwt>
<pdfrwt beam="1">  1        2 0.10640443E+00 0.99441189E+02</pdfrwt>
<pdfrwt beam="2">  1       -2 0.11761659E-02 0.99441189E+02</pdfrwt>
<totfact> 0.64116139E+04</totfact>
</mgrwt>
</event>
<event>
 6    1  0.2866116E-002  0.9112054E+02  0.7546771E-02  0.1416531E+00
         -2   -1    0    0    0  501 -0.00000000000E+00  0.00000000000E+00  0.25566306439E+01  0.25566306439E+01  0.00000000000E+00 0.  1.
          2   -1    0    0  501    0  0.00000000000E+00 -0.00000000000E+00 -0.14541955494E+04  0.14541955494E+04  0.00000000000E+00 0. -1.
         23    2    1    2    0    0  0.12657201710E+02  0.17590586233E+01 -0.14153292449E+04  0.14182594345E+04  0.90220026009E+02 0.  0.
         13    1    3    3    0    0 -0.49196820269E+01 -0.63547432325E+01 -0.10147834248E+02  0.12944673527E+02  0.00000000000E+00 0.  1.
        -13    1    3    3    0    0  0.17576883737E+02  0.81138018559E+01 -0.14051814106E+04  0.14053147610E+04  0.00000000000E+00 0. -1.
         22    1    1    2    0    0 -0.12657201710E+02 -0.17590586233E+01 -0.36309673841E+02  0.38492745509E+02  0.00000000000E+00 0.  1.
<mgrwt>
<rscale>  0 0.55761591E+02</rscale>
<asrwt>0</asrwt>
<pdfrwt beam="1">  1        2 0.22372259E+00 0.91120536E+02</pdfrwt>
<pdfrwt beam="2">  1       -2 0.39332744E-03 0.91120536E+02</pdfrwt>
<totfact> 0.10615569E+05</totfact>
</mgrwt>
</event>
<event>
 6    1  0.2866116E-002  0.8771575E+02  0.7546771E-02  0.1405137E+00
         -2   -1    0    0    0  501 -0.00000000000E+00  0.00000000000E+00  0.49161444960E+02  0.49161444960E+02  0.00000000000E+00 0.  1.
          2   -1    0    0  501    0  0.00000000000E+00 -0.00000000000E+00 -0.64628579279E+02  0.64628579279E+02  0.00000000000E+00 0. -1.
         23    2    1    2    0    0  0.59255258475E+01 -0.16050826840E+02 -0.28557143234E+02  0.92247293859E+02  0.86030877572E+02 0.  0.
         11    1    3    3    0    0  0.30509147339E+02 -0.77353839048E+01 -0.49662804105E+02  0.58796584485E+02  0.00000000000E+00 0. -1.
        -11    1    3    3    0    0 -0.24583621492E+02 -0.83154429354E+01  0.21105660871E+02  0.33450709374E+02  0.00000000000E+00 0.  1.
         22    1    1    2    0    0 -0.59255258475E+01  0.16050826840E+02  0.13090008915E+02  0.21542730380E+02  0.00000000000E+00 0.  1.
<mgrwt>
<rscale>  0 0.58293296E+02</rscale>
<asrwt>0</asrwt>
<pdfrwt beam="1">  1        2 0.99428583E-02 0.87715750E+02</pdfrwt>
<pdfrwt beam="2">  1       -2 0.75632993E-02 0.87715750E+02</pdfrwt>
<totfact> 0.56866261E+04</totfact>
</mgrwt>
</event>
<event>
 6    1  0.2866116E-002  0.9276607E+02  0.7546771E-02  0.1411931E+00
          2   -1    0    0  501    0  0.00000000000E+00  0.00000000000E+00  0.72277380867E+02  0.72277380867E+02  0.00000000000E+00 0. -1.
         -2   -1    0    0    0  501 -0.00000000000E+00 -0.00000000000E+00 -0.79396338907E+02  0.79396338907E+02  0.00000000000E+00 0.  1.
         23    2    1    2    0    0  0.41917953878E+01  0.12312482932E+02  0.41295642969E+02  0.10154247228E+03  0.91849742318E+02 0.  0.
         13    1    3    3    0    0  0.73435349937E+01 -0.20970210404E+02 -0.21172309658E+02  0.30691105012E+02  0.00000000000E+00 0.  1.
        -13    1    3    3    0    0 -0.31517396060E+01  0.33282693336E+02  0.62467952627E+02  0.70851367267E+02  0.00000000000E+00 0. -1.
         22    1    1    2    0    0 -0.41917953878E+01 -0.12312482932E+02 -0.48414601009E+02  0.50131247494E+02  0.00000000000E+00 0.  1.
<mgrwt>
<rscale>  0 0.56765147E+02</rscale>
<asrwt>0</asrwt>
<pdfrwt beam="1">  1        2 0.11119597E-01 0.92766069E+02</pdfrwt>
<pdfrwt beam="2">  1       -2 0.12214821E-01 0.92766069E+02</pdfrwt>
<totfact> 0.23808476E+04</totfact>
</mgrwt>
</event>
<event>
 6    1  0.2866116E-002  0.1037100E+03  0.7546771E-02  0.1315846E+00
         -2   -1    0    0    0  501 -0.00000000000E+00  0.00000000000E+00  0.31878877872E+01  0.31878877872E+01  0.00000000000E+00 0. -1.
          2   -1    0    0  501    0  0.00000000000E+00 -0.00000000000E+00 -0.24859961918E+04  0.24859961918E+04  0.00000000000E+00 0.  1.
         23    2    1    2    0    0 -0.33683404039E+02 -0.31984136279E+02 -0.22113369223E+04  0.22137675446E+04  0.92726483301E+02 0.  0.
         11    1    3    3    0    0 -0.99762268943E+01 -0.15163098313E+02 -0.72647902174E+02  0.74880987866E+02  0.00000000000E+00 0. -1.
        -11    1    3    3    0    0 -0.23707177145E+02 -0.16821037966E+02 -0.21386890202E+04  0.21388865567E+04  0.00000000000E+00 0.  1.
         22    1    1    2    0    0  0.33683404039E+02  0.31984136279E+02 -0.27147138168E+03  0.27541653500E+03  0.00000000000E+00 0. -1.
<mgrwt>
<rscale>  0 0.84841952E+02</rscale>
<asrwt>0</asrwt>
<pdfrwt beam="1">  1        2 0.38246121E+00 0.10370997E+03</pdfrwt>
<pdfrwt beam="2">  1       -2 0.49044394E-03 0.10370997E+03</pdfrwt>
<totfact> 0.23492314E+04</totfact>
</mgrwt>
</event>
<event>
 6    1  0.2866116E-002  0.8976958E+02  0.7546771E-02  0.1410810E+00
         -2   -1    0    0    0  501 -0.00000000000E+00  0.00000000000E+00  0.65675629565E+01  0.65675629565E+01  0.00000000000E+00 0.  1.
          2   -1    0    0  501    0  0.00000000000E+00 -0.00000000000E+00 -0.42537601367E+03  0.42537601367E+03  0.00000000000E+00 0. -1.
         23    2    1    2    0    0  0.33126141796E+01 -0.14225094003E+02 -0.38047854978E+03  0.39092519029E+03  0.88573420664E+02 0.  0.
         11    1    3    3    0    0  0.32685381141E+02  0.15581819376E+01 -0.32159771736E+03  0.32325818456E+03  0.00000000000E+00 0. -1.
        -11    1    3    3    0    0 -0.29372766962E+02 -0.15783275941E+02 -0.58880832415E+02  0.67667005729E+02  0.00000000000E+00 0.  1.
         22    1    1    2    0    0 -0.33126141796E+01  0.14225094003E+02 -0.38329900933E+02  0.41018386336E+02  0.00000000000E+00 0. -1.
<mgrwt>
<rscale>  0 0.57013480E+02</rscale>
<asrwt>0</asrwt>
<pdfrwt beam="1">  1        2 0.65442470E-01 0.89769580E+02</pdfrwt>
<pdfrwt beam="2">  1       -2 0.10103942E-02 0.89769580E+02</pdfrwt>
<totfact> 0.13402014E+05</totfact>
</mgrwt>
</event>
<event>
 6    1  0.2866116E-002  0.9209869E+02  0.7546771E-02  0.1418341E+00
         -1   -1    0    0    0  501 -0.00000000000E+00  0.00000000000E+00  0.62186867833E+02  0.62186867833E+02  0.00000000000E+00 0.  1.
          1   -1    0    0  501    0  0.00000000000E+00 -0.00000000000E+00 -0.60001014678E+03  0.60001014678E+03  0.00000000000E+00 0. -1.
         23    2    1    2    0    0 -0.10123349896E+02 -0.65084974793E+01 -0.59585491603E+03  0.60293055146E+03  0.91308959985E+02 0.  0.
         11    1    3    3    0    0 -0.22955341735E+02 -0.39051927127E+02 -0.18021064712E+03  0.18581678627E+03  0.00000000000E+00 0.  1.
        -11    1    3    3    0    0  0.12831991839E+02  0.32543429648E+02 -0.41564426891E+03  0.41711376518E+03  0.00000000000E+00 0. -1.
         22    1    1    2    0    0  0.10123349896E+02  0.65084974793E+01  0.58031637082E+02  0.59266463156E+02  0.00000000000E+00 0.  1.
<mgrwt>
<rscale>  0 0.55373527E+02</rscale>
<asrwt>0</asrwt>
<pdfrwt beam="1">  1        1 0.92309259E-01 0.92098691E+02</pdfrwt>
<pdfrwt beam="2">  1       -1 0.95672098E-02 0.92098691E+02</pdfrwt>
<totfact> 0.22272132E+03</totfact>
</mgrwt>
</event>
<event>
 6    1  0.2866116E-002  0.9033670E+02  0.7546771E-02  0.1421573E+00
          2   -1    0    0  501    0  0.00000000000E+00  0.00000000000E+00  0.17362893676E+02  0.17362893676E+02  0.00000000000E+00 0. -1.
         -2   -1    0    0    0  501 -0.00000000000E+00 -0.00000000000E+00 -0.15570109138E+03  0.15570109138E+03  0.00000000000E+00 0.  1.
         23    2    1    2    0    0 -0.11637455827E+02  0.34376987055E+01 -0.11071811118E+03  0.14289583413E+03  0.89517993267E+02 0.  0.
         13    1    3    3    0    0  0.32989009159E+02  0.21604402203E+01 -0.13113639981E+02  0.35565570160E+02  0.00000000000E+00 0. -1.
        -13    1    3    3    0    0 -0.44626464986E+02  0.12772584853E+01 -0.97604471197E+02  0.10733026397E+03  0.00000000000E+00 0.  1.
         22    1    1    2    0    0  0.11637455827E+02 -0.34376987055E+01 -0.27620086524E+02  0.30168150923E+02  0.00000000000E+00 0. -1.
<mgrwt>
<rscale>  0 0.54689556E+02</rscale>
<asrwt>0</asrwt>
<pdfrwt beam="1">  1        2 0.26712146E-02 0.90336699E+02</pdfrwt>
<pdfrwt beam="2">  1       -2 0.23954013E-01 0.90336699E+02</pdfrwt>
<totfact> 0.48356593E+04</totfact>
</mgrwt>
</event>
<event>
 6    1  0.2866116E-002  0.8971504E+02  0.7546771E-02  0.1424235E+00
         -2   -1    0    0    0  501 -0.00000000000E+00  0.00000000000E+00  0.57248054466E+02  0.57248054466E+02  0.00000000000E+00 0.  1.
          2   -1    0    0  501    0  0.00000000000E+00 -0.00000000000E+00 -0.45458759717E+02  0.45458759717E+02  0.00000000000E+00 0. -1.
         23    2    1    2    0    0 -0.11880790133E+02 -0.55262450055E+00  0.73646480642E+01  0.90016815511E+02  0.88923171702E+02 0.  0.
         11    1    3    3    0    0 -0.49042791688E+02 -0.67790502880E+01  0.14666543706E+02  0.51635825196E+02  0.00000000000E+00 0.  1.
        -11    1    3    3    0    0  0.37162001555E+02  0.62264257875E+01 -0.73018956414E+01  0.38380990315E+02  0.00000000000E+00 0. -1.
         22    1    1    2    0    0  0.11880790133E+02  0.55262450055E+00  0.44246466848E+01  0.12689998673E+02  0.00000000000E+00 0. -1.
<mgrwt>
<rscale>  0 0.54134934E+02</rscale>
<asrwt>0</asrwt>
<pdfrwt beam="1">  1        2 0.69936553E-02 0.89715044E+02</pdfrwt>
<pdfrwt beam="2">  1       -2 0.88073930E-02 0.89715044E+02</pdfrwt>
<totfact> 0.69772449E+04</totfact>
</mgrwt>
</event>
<event>
 6    1  0.2866116E-002  0.9509712E+02  0.7546771E-02  0.1423205E+00
         -1   -1    0    0    0  501 -0.00000000000E+00  0.00000000000E+00  0.33735467655E+02  0.33735467655E+02  0.00000000000E+00 0.  1.
          1   -1    0    0  501    0  0.00000000000E+00 -0.00000000000E+00 -0.51075355500E+03  0.51075355500E+03  0.00000000000E+00 0. -1.
         23    2    1    2    0    0 -0.13270724292E+01  0.10057818684E+02 -0.50544127785E+03  0.51430958270E+03  0.94554432274E+02 0.  0.
         11    1    3    3    0    0  0.68913621108E+01  0.45042734834E+02 -0.40646197023E+03  0.40900815649E+03  0.00000000000E+00 0. -1.
        -11    1    3    3    0    0 -0.82184345400E+01 -0.34984916150E+02 -0.98979307619E+02  0.10530142621E+03  0.00000000000E+00 0.  1.
         22    1    1    2    0    0  0.13270724292E+01 -0.10057818684E+02  0.28423190502E+02  0.30179439959E+02  0.00000000000E+00 0.  1.
<mgrwt>
<rscale>  0 0.54348608E+02</rscale>
<asrwt>0</asrwt>
<pdfrwt beam="1">  1        1 0.78577464E-01 0.95097116E+02</pdfrwt>
<pdfrwt beam="2">  1       -1 0.51900724E-02 0.95097116E+02</pdfrwt>
<totfact> 0.68395078E+03</totfact>
</mgrwt>
</event>
<event>
 6    1  0.2866116E-002  0.9218047E+02  0.7546771E-02  0.1420671E+00
          2   -1    0    0  501    0  0.00000000000E+00  0.00000000000E+00  0.35891196519E+02  0.35891196519E+02  0.00000000000E+00 0. -1.
         -2   -1    0    0    0  501 -0.00000000000E+00 -0.00000000000E+00 -0.78502356365E+02  0.78502356365E+02  0.00000000000E+00 0.  1.
         23    2    1    2    0    0 -0.11486542225E+02  0.14693112057E+01 -0.29244254538E+02  0.96708144061E+02  0.91450200528E+02 0.  0.
         11    1    3    3    0    0  0.31060556683E+02 -0.92086555961E+01  0.13833466197E+02  0.35226727160E+02  0.00000000000E+00 0. -1.
        -11    1    3    3    0    0 -0.42547098908E+02  0.10677966802E+02 -0.43077720735E+02  0.61481416902E+02  0.00000000000E+00 0.  1.
         22    1    1    2    0    0  0.11486542225E+02 -0.14693112057E+01 -0.13366905308E+02  0.17685408822E+02  0.00000000000E+00 0. -1.
<mgrwt>
<rscale>  0 0.54879177E+02</rscale>
<asrwt>0</asrwt>
<pdfrwt beam="1">  1        2 0.55217226E-02 0.92180468E+02</pdfrwt>
<pdfrwt beam="2">  1       -2 0.12077286E-01 0.92180468E+02</pdfrwt>
<totfact> 0.57773783E+04</totfact>
</mgrwt>
</event>
<event>
 6    1  0.2866116E-002  0.9676458E+02  0.7546771E-02  0.1347410E+00
          2   -1    0    0  501    0  0.00000000000E+00  0.00000000000E+00  0.39982204644E+03  0.39982204644E+03  0.00000000000E+00 0. -1.
         -2   -1    0    0    0  501 -0.00000000000E+00 -0.00000000000E+00 -0.15951709699E+02  0.15951709699E+02  0.00000000000E+00 0.  1.
         23    2    1    2    0    0  0.28168848783E+02  0.16924816601E+02  0.36556934749E+03  0.37815913576E+03  0.91013464254E+02 0.  0.
         11    1    3    3    0    0  0.47285470929E+02  0.42822248572E+02  0.21933135454E+03  0.22842045403E+03  0.00000000000E+00 0. -1.
        -11    1    3    3    0    0 -0.19116622146E+02 -0.25897431971E+02  0.14623799295E+03  0.14973868173E+03  0.00000000000E+00 0.  1.
         22    1    1    2    0    0 -0.28168848783E+02 -0.16924816601E+02  0.18300989249E+02  0.37614620379E+02  0.00000000000E+00 0.  1.
<mgrwt>
<rscale>  0 0.73868952E+02</rscale>
<asrwt>0</asrwt>
<pdfrwt beam="1">  1        2 0.61511077E-01 0.96764581E+02</pdfrwt>
<pdfrwt beam="2">  1       -2 0.24541095E-02 0.96764581E+02</pdfrwt>
<totfact> 0.40646221E+04</totfact>
</mgrwt>
</event>
<event>
 6    1  0.2866116E-002  0.8668826E+02  0.7546771E-02  0.1403793E+00
         -2   -1    0    0    0  501 -0.00000000000E+00  0.00000000000E+00  0.10150220478E+03  0.10150220478E+03  0.00000000000E+00 0.  1.
          2   -1    0    0  501    0  0.00000000000E+00 -0.00000000000E+00 -0.30241662858E+02  0.30241662858E+02  0.00000000000E+00 0. -1.
         23    2    1    2    0    0  0.18039679248E+02 -0.15260717960E+01  0.39671210294E+02  0.95334462325E+02  0.84776741256E+02 0.  0.
         13    1    3    3    0    0  0.31641140202E+02 -0.36667262931E+02  0.16841520832E+02  0.51276571142E+02  0.00000000000E+00 0. -1.
        -13    1    3    3    0    0 -0.13601460954E+02  0.35141191135E+02  0.22829689462E+02  0.44057891183E+02  0.00000000000E+00 0.  1.
         22    1    1    2    0    0 -0.18039679248E+02  0.15260717960E+01  0.31589331626E+02  0.36409405311E+02  0.00000000000E+00 0.  1.
<mgrwt>
<rscale>  0 0.58602283E+02</rscale>
<asrwt>0</asrwt>
<pdfrwt beam="1">  1        2 0.46525636E-02 0.86688262E+02</pdfrwt>
<pdfrwt beam="2">  1       -2 0.15615724E-01 0.86688262E+02</pdfrwt>
<totfact> 0.47292716E+04</totfact>
</mgrwt>
</event>
<event>
 6    1  0.2866116E-002  0.1304774E+03  0.7546771E-02  0.1244320E+00
          1   -1    0    0  501    0  0.00000000000E+00  0.00000000000E+00  0.43283148511E+03  0.43283148511E+03  0.00000000000E+00 0. -1.
         -1   -1    0    0    0  501 -0.00000000000E+00 -0.00000000000E+00 -0.40060987962E+02  0.40060987962E+02  0.00000000000E+00 0.  1.
         23    2    1    2    0    0 -0.28330858118E+02 -0.86555528657E+02  0.34749864619E+03  0.37118683138E+03  0.93433707110E+02 0.  0.
         11    1    3    3    0    0 -0.16895467702E+01 -0.88330739454E+02  0.16896987932E+03  0.19067247892E+03  0.00000000000E+00 0.  1.
        -11    1    3    3    0    0 -0.26641311348E+02  0.17752107972E+01  0.17852876687E+03  0.18051435246E+03  0.00000000000E+00 0. -1.
         22    1    1    2    0    0  0.28330858118E+02  0.86555528657E+02  0.45271850961E+02  0.10170564169E+03  0.00000000000E+00 0.  1.
<mgrwt>
<rscale>  0 0.11926150E+03</rscale>
<asrwt>0</asrwt>
<pdfrwt beam="1">  1        1 0.66589456E-01 0.13047741E+03</pdfrwt>
<pdfrwt beam="2">  1       -1 0.61632292E-02 0.13047741E+03</pdfrwt>
<totfact> 0.66957815E+03</totfact>
</mgrwt>
</event>
<event>
 6    1  0.2866116E-002  0.9699944E+02  0.7546771E-02  0.1373451E+00
         -2   -1    0    0    0  501 -0.00000000000E+00  0.00000000000E+00  0.42899667668E+02  0.42899667668E+02  0.00000000000E+00 0.  1.
          2   -1    0    0  501    0  0.00000000000E+00 -0.00000000000E+00 -0.26982244508E+03  0.26982244508E+03  0.00000000000E+00 0. -1.
         23    2    1    2    0    0 -0.20984549065E+02  0.18462201663E+01 -0.25774259402E+03  0.27539088019E+03  0.94684382519E+02 0.  0.
         13    1    3    3    0    0  0.15348778963E+02 -0.31626194146E+02 -0.45628993951E+02  0.57600401568E+02  0.00000000000E+00 0.  1.
        -13    1    3    3    0    0 -0.36333328029E+02  0.33472414312E+02 -0.21211360007E+03  0.21779047862E+03  0.00000000000E+00 0. -1.
         22    1    1    2    0    0  0.20984549065E+02 -0.18462201663E+01  0.30819816607E+02  0.37331232555E+02  0.00000000000E+00 0.  1.
<mgrwt>
<rscale>  0 0.66217142E+02</rscale>
<asrwt>0</asrwt>
<pdfrwt beam="1">  1        2 0.41511146E-01 0.96999444E+02</pdfrwt>
<pdfrwt beam="2">  1       -2 0.65999488E-02 0.96999444E+02</pdfrwt>
<totfact> 0.14272047E+04</totfact>
</mgrwt>
</event>
<event>
 6    1  0.2866116E-002  0.9586718E+02  0.7546771E-02  0.1361788E+00
          2   -1    0    0  501    0  0.00000000000E+00  0.00000000000E+00  0.11717991347E+04  0.11717991347E+04  0.00000000000E+00 0. -1.
         -2   -1    0    0    0  501 -0.00000000000E+00 -0.00000000000E+00 -0.38659320976E+01  0.38659320976E+01  0.00000000000E+00 0.  1.
         23    2    1    2    0    0 -0.24125745211E+02 -0.10931540135E+02  0.10675654034E+04  0.10718611879E+04  0.92135582152E+02 0.  0.
         13    1    3    3    0    0 -0.35043763319E+02 -0.43142513286E+02  0.83183524044E+03  0.83369011571E+03  0.00000000000E+00 0. -1.
        -13    1    3    3    0    0  0.10918018108E+02  0.32210973152E+02  0.23573016294E+03  0.23817107219E+03  0.00000000000E+00 0.  1.
         22    1    1    2    0    0  0.24125745211E+02  0.10931540135E+02  0.10036779922E+03  0.10380387889E+03  0.00000000000E+00 0. -1.
<mgrwt>
<rscale>  0 0.69503999E+02</rscale>
<asrwt>0</asrwt>
<pdfrwt beam="1">  1        2 0.18027651E+00 0.95867177E+02</pdfrwt>
<pdfrwt beam="2">  1       -2 0.59475972E-03 0.95867177E+02</pdfrwt>
<totfact> 0.84390644E+04</totfact>
</mgrwt>
</event>
<event>
 6    1  0.2866116E-002  0.9186353E+02  0.7546771E-02  0.1417966E+00
         -2   -1    0    0    0  501 -0.00000000000E+00  0.00000000000E+00  0.16135859585E+01  0.16135859585E+01  0.00000000000E+00 0.  1.
          2   -1    0    0  501    0  0.00000000000E+00 -0.00000000000E+00 -0.21069432702E+04  0.21069432702E+04  0.00000000000E+00 0. -1.
         23    2    1    2    0    0 -0.10110252478E+02  0.68245466139E+01 -0.20418730543E+04  0.20439384723E+04  0.91050081061E+02 0.  0.
         13    1    3    3    0    0 -0.28474451615E+02  0.12285182063E+02 -0.19418186047E+04  0.19420662228E+04  0.00000000000E+00 0. -1.
        -13    1    3    3    0    0  0.18364199137E+02 -0.54606354491E+01 -0.10005444956E+03  0.10187224954E+03  0.00000000000E+00 0.  1.
         22    1    1    2    0    0  0.10110252478E+02 -0.68245466139E+01 -0.63456629951E+02  0.64618383811E+02  0.00000000000E+00 0.  1.
<mgrwt>
<rscale>  0 0.55453592E+02</rscale>
<asrwt>0</asrwt>
<pdfrwt beam="1">  1        2 0.32414594E+00 0.91863534E+02</pdfrwt>
<pdfrwt beam="2">  1       -2 0.24824336E-03 0.91863534E+02</pdfrwt>
<totfact> 0.94537835E+04</totfact>
</mgrwt>
</event>
<event>
 6    1  0.2866116E-002  0.1210596E+03  0.7546771E-02  0.1261046E+00
         -2   -1    0    0    0  501 -0.00000000000E+00  0.00000000000E+00  0.52571757410E+03  0.52571757410E+03  0.00000000000E+00 0.  1.
          2   -1    0    0  501    0  0.00000000000E+00 -0.00000000000E+00 -0.46656171636E+02  0.46656171636E+02  0.00000000000E+00 0. -1.
         23    2    1    2    0    0  0.65322963670E+02 -0.49160226820E+02  0.42622520331E+02  0.12834366193E+03  0.89283810601E+02 0.  0.
         11    1    3    3    0    0 -0.18166505680E+02  0.98028115410E+00  0.22435302996E+02  0.28884696646E+02  0.00000000000E+00 0.  1.
        -11    1    3    3    0    0  0.83489469351E+02 -0.50140507974E+02  0.20187217335E+02  0.99458965288E+02  0.00000000000E+00 0. -1.
         22    1    1    2    0    0 -0.65322963670E+02  0.49160226820E+02  0.43643888213E+03  0.44403008380E+03  0.00000000000E+00 0.  1.
<mgrwt>
<rscale>  0 0.10974314E+03</rscale>
<asrwt>0</asrwt>
<pdfrwt beam="1">  1        2 0.71778729E-02 0.12105956E+03</pdfrwt>
<pdfrwt beam="2">  1       -2 0.80879623E-01 0.12105956E+03</pdfrwt>
<totfact> 0.13104315E+03</totfact>
</mgrwt>
</event>
<event>
 6    1  0.2866116E-002  0.9274269E+02  0.7546771E-02  0.1410674E+00
         -1   -1    0    0    0  501 -0.00000000000E+00  0.00000000000E+00  0.88228451142E+01  0.88228451142E+01  0.00000000000E+00 0.  1.
          1   -1    0    0  501    0  0.00000000000E+00 -0.00000000000E+00 -0.48989139442E+03  0.48989139442E+03  0.00000000000E+00 0. -1.
         23    2    1    2    0    0 -0.11582877483E+02 -0.64830507431E+01 -0.47526137194E+03  0.48422575077E+03  0.91787869856E+02 0.  0.
         13    1    3    3    0    0 -0.49824853965E+02 -0.28670548726E+01 -0.19237205945E+03  0.19874039683E+03  0.00000000000E+00 0.  1.
        -13    1    3    3    0    0  0.38241976483E+02 -0.36159958705E+01 -0.28288931249E+03  0.28548535394E+03  0.00000000000E+00 0. -1.
         22    1    1    2    0    0  0.11582877483E+02  0.64830507431E+01 -0.58071773659E+01  0.14488488764E+02  0.00000000000E+00 0. -1.
<mgrwt>
<rscale>  0 0.57043785E+02</rscale>
<asrwt>0</asrwt>
<pdfrwt beam="1">  1        1 0.75367923E-01 0.92742687E+02</pdfrwt>
<pdfrwt beam="2">  1       -1 0.13573605E-02 0.92742687E+02</pdfrwt>
<totfact> 0.49593178E+04</totfact>
</mgrwt>
</event>
<event>
 6    1  0.2866116E-002  0.9364078E+02  0.7546771E-02  0.1382961E+00
          2   -1    0    0  501    0  0.00000000000E+00  0.00000000000E+00  0.15992436389E+04  0.15992436389E+04  0.00000000000E+00 0.  1.
         -2   -1    0    0    0  501 -0.00000000000E+00 -0.00000000000E+00 -0.24157922773E+01  0.24157922773E+01  0.00000000000E+00 0. -1.
         23    2    1    2    0    0  0.27041938345E+01  0.19858752555E+02  0.14918236970E+04  0.14947596924E+04  0.91470827643E+02 0.  0.
         13    1    3    3    0    0 -0.39337056879E+02  0.10529095502E+02  0.39557893070E+03  0.39766940580E+03  0.00000000000E+00 0. -1.
        -13    1    3    3    0    0  0.42041250714E+02  0.93296570527E+01  0.10962447663E+04  0.10970902866E+04  0.00000000000E+00 0.  1.
         22    1    1    2    0    0 -0.27041938345E+01 -0.19858752555E+02  0.10500414961E+03  0.10689973879E+03  0.00000000000E+00 0. -1.
<mgrwt>
<rscale>  0 0.63691892E+02</rscale>
<asrwt>0</asrwt>
<pdfrwt beam="1">  1        2 0.24603664E+00 0.93640777E+02</pdfrwt>
<pdfrwt beam="2">  1       -2 0.37166163E-03 0.93640777E+02</pdfrwt>
<totfact> 0.97211039E+04</totfact>
</mgrwt>
</event>
<event>
 6    1  0.2866116E-002  0.9585520E+02  0.7546771E-02  0.1377229E+00
         -1   -1    0    0    0  501 -0.00000000000E+00  0.00000000000E+00  0.65678372165E+01  0.65678372165E+01  0.00000000000E+00 0.  1.
          1   -1    0    0  501    0  0.00000000000E+00 -0.00000000000E+00 -0.57309345147E+03  0.57309345147E+03  0.00000000000E+00 0. -1.
         23    2    1    2    0    0  0.91492377386E+01 -0.18362523368E+02 -0.52074948547E+03  0.52949810715E+03  0.93634011130E+02 0.  0.
         13    1    3    3    0    0  0.26666614444E+02  0.94179451450E+00 -0.40245975341E+02  0.48288029924E+02  0.00000000000E+00 0.  1.
        -13    1    3    3    0    0 -0.17517376705E+02 -0.19304317883E+02 -0.48050351013E+03  0.48121007723E+03  0.00000000000E+00 0. -1.
         22    1    1    2    0    0 -0.91492377386E+01  0.18362523368E+02 -0.45776128779E+02  0.50163181534E+02  0.00000000000E+00 0.  1.
<mgrwt>
<rscale>  0 0.65197798E+02</rscale>
<asrwt>0</asrwt>
<pdfrwt beam="1">  1        1 0.88168245E-01 0.95855197E+02</pdfrwt>
<pdfrwt beam="2">  1       -1 0.10104362E-02 0.95855197E+02</pdfrwt>
<totfact> 0.61647926E+04</totfact>
</mgrwt>
</event>
<event>
 6    1  0.2866116E-002  0.1079219E+03  0.7546771E-02  0.1297255E+00
         -2   -1    0    0    0  501 -0.00000000000E+00  0.00000000000E+00  0.42046736391E+02  0.42046736391E+02  0.00000000000E+00 0. -1.
          2   -1    0    0  501    0  0.00000000000E+00 -0.00000000000E+00 -0.56473035606E+03  0.56473035606E+03  0.00000000000E+00 0.  1.
         23    2    1    2    0    0  0.15053981466E+02 -0.55877278079E+02 -0.53652795181E+03  0.54727450347E+03  0.91094711785E+02 0.  0.
         13    1    3    3    0    0  0.46173185790E+02 -0.54715265211E+02 -0.28628553076E+03  0.29510189504E+03  0.00000000000E+00 0.  1.
        -13    1    3    3    0    0 -0.31119204324E+02 -0.11620128675E+01 -0.25024242104E+03  0.25217260843E+03  0.00000000000E+00 0. -1.
         22    1    1    2    0    0 -0.15053981466E+02  0.55877278079E+02  0.13844332134E+02  0.59502588983E+02  0.00000000000E+00 0. -1.
<mgrwt>
<rscale>  0 0.92351696E+02</rscale>
<asrwt>0</asrwt>
<pdfrwt beam="1">  1        2 0.86881589E-01 0.10792191E+03</pdfrwt>
<pdfrwt beam="2">  1       -2 0.64687290E-02 0.10792191E+03</pdfrwt>
<totfact> 0.67586506E+03</totfact>
</mgrwt>
</event>
<event>
 6    1  0.2866116E-002  0.9766512E+02  0.7546771E-02  0.1418041E+00
          2   -1    0    0  501    0  0.00000000000E+00  0.00000000000E+00  0.74697536956E+02  0.74697536956E+02  0.00000000000E+00 0. -1.
         -2   -1    0    0    0  501 -0.00000000000E+00 -0.00000000000E+00 -0.38897305569E+02  0.38897305569E+02  0.00000000000E+00 0.  1.
         23    2    1    2    0    0  0.95710321654E+01  0.33458453173E+01  0.32237217800E+02  0.10284801028E+03  0.97137406124E+02 0.  0.
         11    1    3    3    0    0 -0.60695317440E+01 -0.41875848816E+02 -0.44576464629E+01  0.42547579738E+02  0.00000000000E+00 0.  1.
        -11    1    3    3    0    0  0.15640563909E+02  0.45221694133E+02  0.36694864263E+02  0.60300430537E+02  0.00000000000E+00 0. -1.
         22    1    1    2    0    0 -0.95710321654E+01 -0.33458453173E+01  0.35630135875E+01  0.10746832251E+02  0.00000000000E+00 0.  1.
<mgrwt>
<rscale>  0 0.55437469E+02</rscale>
<asrwt>0</asrwt>
<pdfrwt beam="1">  1        2 0.11491929E-01 0.97665117E+02</pdfrwt>
<pdfrwt beam="2">  1       -2 0.59842009E-02 0.97665117E+02</pdfrwt>
<totfact> 0.69125523E+04</totfact>
</mgrwt>
</event>
<event>
 6    1  0.2866116E-002  0.9223670E+02  0.7546771E-02  0.1428797E+00
          3   -1    0    0  501    0  0.00000000000E+00  0.00000000000E+00  0.23057338600E+02  0.23057338600E+02  0.00000000000E+00 0. -1.
         -3   -1    0    0    0  501 -0.00000000000E+00 -0.00000000000E+00 -0.12570057064E+03  0.12570057064E+03  0.00000000000E+00 0.  1.
         23    2    1    2    0    0 -0.20761284057E+01 -0.99962403243E+01 -0.73693840577E+02  0.11806096483E+03  0.91669919542E+02 0.  0.
         13    1    3    3    0    0  0.23469451627E+02  0.16061794666E+02 -0.76348717717E+02  0.81473450305E+02  0.00000000000E+00 0.  1.
        -13    1    3    3    0    0 -0.25545580033E+02 -0.26058034990E+02  0.26548771403E+01  0.36587514529E+02  0.00000000000E+00 0. -1.
         22    1    1    2    0    0  0.20761284057E+01  0.99962403243E+01 -0.28949391460E+02  0.30696944403E+02  0.00000000000E+00 0.  1.
<mgrwt>
<rscale>  0 0.53202200E+02</rscale>
<asrwt>0</asrwt>
<pdfrwt beam="1">  1        3 0.35472829E-02 0.92236702E+02</pdfrwt>
<pdfrwt beam="2">  1       -3 0.19338549E-01 0.92236702E+02</pdfrwt>
<totfact> 0.19155791E+04</totfact>
</mgrwt>
</event>
<event>
 6    1  0.2866116E-002  0.1046725E+03  0.7546771E-02  0.1402677E+00
          1   -1    0    0  501    0  0.00000000000E+00  0.00000000000E+00  0.21036211230E+03  0.21036211230E+03  0.00000000000E+00 0. -1.
         -1   -1    0    0    0  501 -0.00000000000E+00 -0.00000000000E+00 -0.23873290161E+02  0.23873290161E+02  0.00000000000E+00 0.  1.
         23    2    1    2    0    0  0.10382033808E+02  0.13259919551E+01  0.19461943352E+03  0.22098203602E+03  0.10414793066E+03 0.  0.
         11    1    3    3    0    0 -0.16902644219E+02 -0.16699343704E+02  0.12835273632E+00  0.23760975067E+02  0.00000000000E+00 0.  1.
        -11    1    3    3    0    0  0.27284678027E+02  0.18025335659E+02  0.19449108078E+03  0.19722106096E+03  0.00000000000E+00 0. -1.
         22    1    1    2    0    0 -0.10382033808E+02 -0.13259919551E+01 -0.81306113762E+01  0.13253366441E+02  0.00000000000E+00 0.  1.
<mgrwt>
<rscale>  0 0.58860442E+02</rscale>
<asrwt>0</asrwt>
<pdfrwt beam="1">  1        1 0.32363401E-01 0.10467252E+03</pdfrwt>
<pdfrwt beam="2">  1       -1 0.36728140E-02 0.10467252E+03</pdfrwt>
<totfact> 0.34347464E+04</totfact>
</mgrwt>
</event>
<event>
 6    1  0.2866116E-002  0.1100341E+03  0.7546771E-02  0.1289486E+00
         -2   -1    0    0    0  501 -0.00000000000E+00  0.00000000000E+00  0.39652832171E+02  0.39652832171E+02  0.00000000000E+00 0.  1.
          2   -1    0    0  501    0  0.00000000000E+00 -0.00000000000E+00 -0.20994237777E+03  0.20994237777E+03  0.00000000000E+00 0. -1.
         23    2    1    2    0    0 -0.48668542426E+02  0.40167792389E+02 -0.67826418984E+02  0.12925913520E+03  0.90141124657E+02 0.  0.
         11    1    3    3    0    0  0.94398943932E+01  0.16571409477E+02 -0.63602595069E+02  0.66400401487E+02  0.00000000000E+00 0. -1.
        -11    1    3    3    0    0 -0.58108436819E+02  0.23596382912E+02 -0.42238239149E+01  0.62858733717E+02  0.00000000000E+00 0.  1.
         22    1    1    2    0    0  0.48668542426E+02 -0.40167792389E+02 -0.10246312662E+03  0.12033607474E+03  0.00000000000E+00 0. -1.
<mgrwt>
<rscale>  0 0.95754495E+02</rscale>
<asrwt>0</asrwt>
<pdfrwt beam="1">  1        2 0.32298827E-01 0.11003409E+03</pdfrwt>
<pdfrwt beam="2">  1       -2 0.61004358E-02 0.11003409E+03</pdfrwt>
<totfact> 0.21231065E+04</totfact>
</mgrwt>
</event>
<event>
 6    1  0.2866116E-002  0.9590166E+02  0.7546771E-02  0.1378810E+00
         -2   -1    0    0    0  501 -0.00000000000E+00  0.00000000000E+00  0.53719899161E+01  0.53719899161E+01  0.00000000000E+00 0.  1.
          2   -1    0    0  501    0  0.00000000000E+00 -0.00000000000E+00 -0.67663510119E+03  0.67663510119E+03  0.00000000000E+00 0. -1.
         23    2    1    2    0    0  0.55241471241E+01  0.19183186622E+02 -0.61209069618E+03  0.61955802739E+03  0.93800949399E+02 0.  0.
         11    1    3    3    0    0  0.17754553065E+02  0.10770946188E+02 -0.25980761705E+02  0.33260147551E+02  0.00000000000E+00 0.  1.
        -11    1    3    3    0    0 -0.12230405941E+02  0.84122404340E+01 -0.58610993447E+03  0.58629787984E+03  0.00000000000E+00 0. -1.
         22    1    1    2    0    0 -0.55241471241E+01 -0.19183186622E+02 -0.59172415093E+02  0.62449063711E+02  0.00000000000E+00 0.  1.
<mgrwt>
<rscale>  0 0.64777566E+02</rscale>
<asrwt>0</asrwt>
<pdfrwt beam="1">  1        2 0.10409771E+00 0.95901663E+02</pdfrwt>
<pdfrwt beam="2">  1       -2 0.82646000E-03 0.95901663E+02</pdfrwt>
<totfact> 0.10796506E+05</totfact>
</mgrwt>
</event>
<event>
 6    1  0.2866116E-002  0.1028293E+03  0.7546771E-02  0.1344978E+00
         -2   -1    0    0    0  501 -0.00000000000E+00  0.00000000000E+00  0.12201772239E+02  0.12201772239E+02  0.00000000000E+00 0.  1.
          2   -1    0    0  501    0  0.00000000000E+00 -0.00000000000E+00 -0.36211026285E+03  0.36211026285E+03  0.00000000000E+00 0. -1.
         23    2    1    2    0    0 -0.17302695433E+02 -0.22710594556E+02 -0.24783660928E+03  0.26832230289E+03  0.98786228554E+02 0.  0.
         11    1    3    3    0    0 -0.27298302865E+02  0.25743634385E+02 -0.40691830752E+02  0.55351216253E+02  0.00000000000E+00 0.  1.
        -11    1    3    3    0    0  0.99956074321E+01 -0.48454228941E+02 -0.20714477853E+03  0.21297108664E+03  0.00000000000E+00 0. -1.
         22    1    1    2    0    0  0.17302695433E+02  0.22710594556E+02 -0.10207188133E+03  0.10598973220E+03  0.00000000000E+00 0. -1.
<mgrwt>
<rscale>  0 0.74643633E+02</rscale>
<asrwt>0</asrwt>
<pdfrwt beam="1">  1        2 0.55709275E-01 0.10282934E+03</pdfrwt>
<pdfrwt beam="2">  1       -2 0.18771956E-02 0.10282934E+03</pdfrwt>
<totfact> 0.66926656E+04</totfact>
</mgrwt>
</event>
<event>
 6    1  0.2866116E-002  0.1028151E+03  0.7546771E-02  0.1392421E+00
         -2   -1    0    0    0  501 -0.00000000000E+00  0.00000000000E+00  0.15032023693E+03  0.15032023693E+03  0.00000000000E+00 0.  1.
          2   -1    0    0  501    0  0.00000000000E+00 -0.00000000000E+00 -0.22313561390E+02  0.22313561390E+02  0.00000000000E+00 0. -1.
         23    2    1    2    0    0  0.27954932170E+01 -0.12695045648E+02  0.11453995831E+03  0.15391665539E+03  0.10198997888E+03 0.  0.
         11    1    3    3    0    0 -0.31295056958E+02  0.13437948548E+02  0.10435350412E+03  0.10977072867E+03  0.00000000000E+00 0.  1.
        -11    1    3    3    0    0  0.34090550175E+02 -0.26132994197E+02  0.10186454184E+02  0.44145926717E+02  0.00000000000E+00 0. -1.
         22    1    1    2    0    0 -0.27954932170E+01  0.12695045648E+02  0.13466717237E+02  0.18717142931E+02  0.00000000000E+00 0. -1.
<mgrwt>
<rscale>  0 0.61308629E+02</rscale>
<asrwt>0</asrwt>
<pdfrwt beam="1">  1        2 0.34328557E-02 0.10281505E+03</pdfrwt>
<pdfrwt beam="2">  1       -2 0.23126190E-01 0.10281505E+03</pdfrwt>
<totfact> 0.37478176E+04</totfact>
</mgrwt>
</event>
<event>
 6    1  0.2866116E-002  0.9414020E+02  0.7546771E-02  0.1374546E+00
          2   -1    0    0  501    0  0.00000000000E+00  0.00000000000E+00  0.12745077270E+03  0.12745077270E+03  0.00000000000E+00 0. -1.
         -2   -1    0    0    0  501 -0.00000000000E+00 -0.00000000000E+00 -0.26952346113E+02  0.26952346113E+02  0.00000000000E+00 0.  1.
         23    2    1    2    0    0  0.21918653527E+02  0.56378751213E+01  0.86123797023E+02  0.12759187148E+03  0.91379233124E+02 0.  0.
         11    1    3    3    0    0  0.33470828299E+02  0.15266432862E+02  0.10035603080E+03  0.10688635665E+03  0.00000000000E+00 0. -1.
        -11    1    3    3    0    0 -0.11552174771E+02 -0.96285577407E+01 -0.14232233780E+02  0.20705514832E+02  0.00000000000E+00 0.  1.
         22    1    1    2    0    0 -0.21918653527E+02 -0.56378751213E+01  0.14374629566E+02  0.26811247332E+02  0.00000000000E+00 0.  1.
<mgrwt>
<rscale>  0 0.65919312E+02</rscale>
<asrwt>0</asrwt>
<pdfrwt beam="1">  1        2 0.19607811E-01 0.94140200E+02</pdfrwt>
<pdfrwt beam="2">  1       -2 0.41465148E-02 0.94140200E+02</pdfrwt>
<totfact> 0.63921295E+04</totfact>
</mgrwt>
</event>
<event>
 6    1  0.2866116E-002  0.1009069E+03  0.7546771E-02  0.1324602E+00
         -4   -1    0    0    0  501 -0.00000000000E+00  0.00000000000E+00  0.28202653953E+03  0.28202653953E+03  0.00000000000E+00 0. -1.
          4   -1    0    0  501    0  0.00000000000E+00 -0.00000000000E+00 -0.20222300993E+02  0.20222300993E+02  0.00000000000E+00 0.  1.
         23    2    1    2    0    0  0.19572619865E+02  0.38431276777E+02  0.22068274077E+03  0.24265833740E+03  0.91225797653E+02 0.  0.
         11    1    3    3    0    0  0.22657967976E+02  0.63697562322E+02  0.11023595543E+03  0.12931639041E+03  0.00000000000E+00 0. -1.
        -11    1    3    3    0    0 -0.30853481104E+01 -0.25266285545E+02  0.11044678534E+03  0.11334194700E+03  0.00000000000E+00 0.  1.
         22    1    1    2    0    0 -0.19572619865E+02 -0.38431276777E+02  0.41121497775E+02  0.59590503122E+02  0.00000000000E+00 0.  1.
<mgrwt>
<rscale>  0 0.81588913E+02</rscale>
<asrwt>0</asrwt>
<pdfrwt beam="1">  1        4 0.31111234E-02 0.10090687E+03</pdfrwt>
<pdfrwt beam="2">  1       -4 0.43388696E-01 0.10090687E+03</pdfrwt>
<totfact> 0.40014070E+03</totfact>
</mgrwt>
</event>
<event>
 6    1  0.2866116E-002  0.1007357E+03  0.7546771E-02  0.1321428E+00
          2   -1    0    0  501    0  0.00000000000E+00  0.00000000000E+00  0.24894783389E+03  0.24894783389E+03  0.00000000000E+00 0.  1.
         -2   -1    0    0    0  501 -0.00000000000E+00 -0.00000000000E+00 -0.35852328954E+02  0.35852328954E+02  0.00000000000E+00 0. -1.
         23    2    1    2    0    0  0.44513795673E+02 -0.11052277855E+02  0.21652056075E+03  0.23880709969E+03  0.89688610111E+02 0.  0.
         11    1    3    3    0    0  0.51928940146E+01 -0.17611138523E+02 -0.28908689176E+00  0.18363058557E+02  0.00000000000E+00 0. -1.
        -11    1    3    3    0    0  0.39320901658E+02  0.65588606685E+01  0.21680964764E+03  0.22044404113E+03  0.00000000000E+00 0.  1.
         22    1    1    2    0    0 -0.44513795673E+02  0.11052277855E+02 -0.34250558151E+01  0.45993063154E+02  0.00000000000E+00 0. -1.
<mgrwt>
<rscale>  0 0.82748226E+02</rscale>
<asrwt>0</asrwt>
<pdfrwt beam="1">  1        2 0.38299666E-01 0.10073568E+03</pdfrwt>
<pdfrwt beam="2">  1       -2 0.55157431E-02 0.10073568E+03</pdfrwt>
<totfact> 0.20423682E+04</totfact>
</mgrwt>
</event>
<event>
 6    1  0.2866116E-002  0.8955335E+02  0.7546771E-02  0.1434442E+00
         -2   -1    0    0    0  501 -0.00000000000E+00  0.00000000000E+00  0.19638170558E+03  0.19638170558E+03  0.00000000000E+00 0.  1.
          2   -1    0    0  501    0  0.00000000000E+00 -0.00000000000E+00 -0.13694351830E+02  0.13694351830E+02  0.00000000000E+00 0. -1.
         23    2    1    2    0    0 -0.78099514416E+01  0.66263249254E+01  0.14011483581E+03  0.16628881261E+03  0.88965715089E+02 0.  0.
         13    1    3    3    0    0 -0.12327418052E+02  0.20505663673E+02  0.14784755997E+03  0.14977098674E+03  0.00000000000E+00 0.  1.
        -13    1    3    3    0    0  0.45174666100E+01 -0.13879338748E+02 -0.77327241600E+01  0.16517825873E+02  0.00000000000E+00 0. -1.
         22    1    1    2    0    0  0.78099514416E+01 -0.66263249254E+01  0.42572517934E+02  0.43787244795E+02  0.00000000000E+00 0.  1.
<mgrwt>
<rscale>  0 0.52078699E+02</rscale>
<asrwt>0</asrwt>
<pdfrwt beam="1">  1        2 0.21068235E-02 0.89553347E+02</pdfrwt>
<pdfrwt beam="2">  1       -2 0.30212568E-01 0.89553347E+02</pdfrwt>
<totfact> 0.44215389E+04</totfact>
</mgrwt>
</event>
<event>
 6    1  0.2866116E-002  0.9321634E+02  0.7546771E-02  0.1421617E+00
         -2   -1    0    0    0  501 -0.00000000000E+00  0.00000000000E+00  0.12146821057E+01  0.12146821057E+01  0.00000000000E+00 0.  1.
          2   -1    0    0  501    0  0.00000000000E+00 -0.00000000000E+00 -0.29499611820E+04  0.29499611820E+04  0.00000000000E+00 0. -1.
         23    2    1    2    0    0 -0.32874856554E+01  0.10535921392E+02 -0.28832118329E+04  0.28847183154E+04  0.92560643082E+02 0.  0.
         13    1    3    3    0    0 -0.34082042213E+01  0.43276744726E+01 -0.28711203880E+04  0.28711256724E+04  0.00000000000E+00 0. -1.
        -13    1    3    3    0    0  0.12071856588E+00  0.62082469190E+01 -0.12091444946E+02  0.13592642998E+02  0.00000000000E+00 0.  1.
         22    1    1    2    0    0  0.32874856554E+01 -0.10535921392E+02 -0.65534667014E+02  0.66457548722E+02  0.00000000000E+00 0.  1.
<mgrwt>
<rscale>  0 0.54680292E+02</rscale>
<asrwt>0</asrwt>
<pdfrwt beam="1">  1        2 0.45383441E+00 0.93216339E+02</pdfrwt>
<pdfrwt beam="2">  1       -2 0.18687654E-03 0.93216339E+02</pdfrwt>
<totfact> 0.50186974E+04</totfact>
</mgrwt>
</event>
<event>
 6    1  0.2866116E-002  0.9388800E+02  0.7546771E-02  0.1399605E+00
          2   -1    0    0  501    0  0.00000000000E+00  0.00000000000E+00  0.35294594669E+03  0.35294594669E+03  0.00000000000E+00 0. -1.
         -2   -1    0    0    0  501 -0.00000000000E+00 -0.00000000000E+00 -0.95178719680E+01  0.95178719680E+01  0.00000000000E+00 0.  1.
         23    2    1    2    0    0 -0.26525636053E+01 -0.14992033468E+02  0.32633924389E+03  0.33957658859E+03  0.92645346630E+02 0.  0.
         13    1    3    3    0    0 -0.40085899875E+01 -0.83307023152E+01  0.33113069679E+03  0.33125972854E+03  0.00000000000E+00 0. -1.
        -13    1    3    3    0    0  0.13560263823E+01 -0.66613311525E+01 -0.47914528959E+01  0.83168600521E+01  0.00000000000E+00 0.  1.
         22    1    1    2    0    0  0.26525636053E+01  0.14992033468E+02  0.17088830836E+02  0.22887230075E+02  0.00000000000E+00 0.  1.
<mgrwt>
<rscale>  0 0.59579396E+02</rscale>
<asrwt>0</asrwt>
<pdfrwt beam="1">  1        2 0.54299366E-01 0.93888005E+02</pdfrwt>
<pdfrwt beam="2">  1       -2 0.14642883E-02 0.93888005E+02</pdfrwt>
<totfact> 0.96918872E+04</totfact>
</mgrwt>
</event>
<event>
 6    1  0.2866116E-002  0.9715908E+02  0.7546771E-02  0.1342811E+00
          2   -1    0    0  501    0  0.00000000000E+00  0.00000000000E+00  0.27585639057E+03  0.27585639057E+03  0.00000000000E+00 0. -1.
         -2   -1    0    0    0  501 -0.00000000000E+00 -0.00000000000E+00 -0.84999666061E+02  0.84999666061E+02  0.00000000000E+00 0.  1.
         23    2    1    2    0    0 -0.33760655469E+02  0.97268892242E+01  0.26313042352E+03  0.28049510964E+03  0.90584173680E+02 0.  0.
         11    1    3    3    0    0 -0.13888786476E+02  0.14709656416E+02  0.40824549666E+01  0.20638285302E+02  0.00000000000E+00 0.  1.
        -11    1    3    3    0    0 -0.19871868994E+02 -0.49827671917E+01  0.25904796855E+03  0.25985682434E+03  0.00000000000E+00 0. -1.
         22    1    1    2    0    0  0.33760655469E+02 -0.97268892242E+01 -0.72273699012E+02  0.80360946986E+02  0.00000000000E+00 0.  1.
<mgrwt>
<rscale>  0 0.75343238E+02</rscale>
<asrwt>0</asrwt>
<pdfrwt beam="1">  1        2 0.42439444E-01 0.97159080E+02</pdfrwt>
<pdfrwt beam="2">  1       -2 0.13076872E-01 0.97159080E+02</pdfrwt>
<totfact> 0.48313813E+03</totfact>
</mgrwt>
</event>
<event>
 6    1  0.2866116E-002  0.9442626E+02  0.7546771E-02  0.1369715E+00
          4   -1    0    0  501    0  0.00000000000E+00  0.00000000000E+00  0.11692096816E+03  0.11692096816E+03  0.00000000000E+00 0. -1.
         -4   -1    0    0    0  501 -0.00000000000E+00 -0.00000000000E+00 -0.32340658027E+02  0.32340658027E+02  0.00000000000E+00 0.  1.
         23    2    1    2    0    0  0.20861727554E+02 -0.12438500140E+02  0.81584344458E+02  0.12478911564E+03  0.91249055656E+02 0.  0.
         13    1    3    3    0    0  0.32022286011E+02 -0.34322504800E+02  0.85230776592E+01  0.47708531625E+02  0.00000000000E+00 0. -1.
        -13    1    3    3    0    0 -0.11160558457E+02  0.21884004660E+02  0.73061266799E+02  0.77080584010E+02  0.00000000000E+00 0.  1.
         22    1    1    2    0    0 -0.20861727554E+02  0.12438500140E+02  0.29959656727E+01  0.24472510549E+02  0.00000000000E+00 0.  1.
<mgrwt>
<rscale>  0 0.67246464E+02</rscale>
<asrwt>0</asrwt>
<pdfrwt beam="1">  1        4 0.17987841E-01 0.94426258E+02</pdfrwt>
<pdfrwt beam="2">  1       -4 0.49754859E-02 0.94426258E+02</pdfrwt>
<totfact> 0.96653195E+03</totfact>
</mgrwt>
</event>
<event>
 6    1  0.2866116E-002  0.9567542E+02  0.7546771E-02  0.1412442E+00
          1   -1    0    0  501    0  0.00000000000E+00  0.00000000000E+00  0.10811800825E+03  0.10811800825E+03  0.00000000000E+00 0. -1.
         -1   -1    0    0    0  501 -0.00000000000E+00 -0.00000000000E+00 -0.28187563089E+02  0.28187563089E+02  0.00000000000E+00 0.  1.
         23    2    1    2    0    0 -0.10616389828E+02  0.50626862129E+01  0.79730523563E+02  0.12454213250E+03  0.94949712245E+02 0.  0.
         13    1    3    3    0    0 -0.33709888258E+01 -0.22315415359E+02  0.91226905373E+02  0.93977069502E+02  0.00000000000E+00 0. -1.
        -13    1    3    3    0    0 -0.72454010025E+01  0.27378101572E+02 -0.11496381810E+02  0.30565062999E+02  0.00000000000E+00 0.  1.
         22    1    1    2    0    0  0.10616389828E+02 -0.50626862129E+01  0.19992159861E+00  0.11763438839E+02  0.00000000000E+00 0.  1.
<mgrwt>
<rscale>  0 0.56652383E+02</rscale>
<asrwt>0</asrwt>
<pdfrwt beam="1">  1        1 0.16633540E-01 0.95675422E+02</pdfrwt>
<pdfrwt beam="2">  1       -1 0.43365482E-02 0.95675422E+02</pdfrwt>
<totfact> 0.61217899E+04</totfact>
</mgrwt>
</event>
<event>
 6    1  0.2866116E-002  0.1041351E+03  0.7546771E-02  0.1308233E+00
          1   -1    0    0  501    0  0.00000000000E+00  0.00000000000E+00  0.16402720091E+04  0.16402720091E+04  0.00000000000E+00 0. -1.
         -1   -1    0    0    0  501 -0.00000000000E+00 -0.00000000000E+00 -0.42407636699E+01  0.42407636699E+01  0.00000000000E+00 0.  1.
         23    2    1    2    0    0  0.48726740382E+01 -0.52432412187E+02  0.13221926542E+04  0.13262871261E+04  0.89839999219E+02 0.  0.
         13    1    3    3    0    0 -0.28053181442E+02  0.26013534114E+01  0.74686026342E+03  0.74739146443E+03  0.00000000000E+00 0.  1.
        -13    1    3    3    0    0  0.32925855481E+02 -0.55033765598E+02  0.57533239074E+03  0.57889566171E+03  0.00000000000E+00 0. -1.
         22    1    1    2    0    0 -0.48726740382E+01  0.52432412187E+02  0.31383859124E+03  0.31822564660E+03  0.00000000000E+00 0.  1.
<mgrwt>
<rscale>  0 0.87814201E+02</rscale>
<asrwt>0</asrwt>
<pdfrwt beam="1">  1        1 0.25234903E+00 0.10413513E+03</pdfrwt>
<pdfrwt beam="2">  1       -1 0.65242649E-03 0.10413513E+03</pdfrwt>
<totfact> 0.19101845E+04</totfact>
</mgrwt>
</event>
<event>
 6    1  0.2866116E-002  0.9395457E+02  0.7546771E-02  0.1357297E+00
          2   -1    0    0  501    0  0.00000000000E+00  0.00000000000E+00  0.65589754388E+03  0.65589754388E+03  0.00000000000E+00 0.  1.
         -2   -1    0    0    0  501 -0.00000000000E+00 -0.00000000000E+00 -0.59494059168E+01  0.59494059168E+01  0.00000000000E+00 0. -1.
         23    2    1    2    0    0 -0.18836254436E+02 -0.23791130969E+02  0.51828245137E+03  0.52672968436E+03  0.88919281320E+02 0.  0.
         13    1    3    3    0    0 -0.11828451931E+02 -0.26441041002E+02  0.45821436661E+02  0.54209270259E+02  0.00000000000E+00 0. -1.
        -13    1    3    3    0    0 -0.70078025051E+01  0.26499100328E+01  0.47246101471E+03  0.47252041410E+03  0.00000000000E+00 0.  1.
         22    1    1    2    0    0  0.18836254436E+02  0.23791130969E+02  0.13166568659E+03  0.13511726544E+03  0.00000000000E+00 0. -1.
<mgrwt>
<rscale>  0 0.70828886E+02</rscale>
<asrwt>0</asrwt>
<pdfrwt beam="1">  1        2 0.10090726E+00 0.93954569E+02</pdfrwt>
<pdfrwt beam="2">  1       -2 0.91529374E-03 0.93954569E+02</pdfrwt>
<totfact> 0.96592510E+04</totfact>
</mgrwt>
</event>
<event>
 6    1  0.2866116E-002  0.1006769E+03  0.7546771E-02  0.1321657E+00
         -1   -1    0    0    0  501 -0.00000000000E+00  0.00000000000E+00  0.65777804913E+01  0.65777804913E+01  0.00000000000E+00 0.  1.
          1   -1    0    0  501    0  0.00000000000E+00 -0.00000000000E+00 -0.87943073579E+03  0.87943073579E+03  0.00000000000E+00 0. -1.
         23    2    1    2    0    0  0.35544104859E+02  0.28818257327E+02 -0.69993388769E+03  0.70713739148E+03  0.89677020160E+02 0.  0.
         11    1    3    3    0    0  0.20209643276E+02 -0.71569312481E+01 -0.59113330751E+03  0.59152196797E+03  0.00000000000E+00 0. -1.
        -11    1    3    3    0    0  0.15334461583E+02  0.35975188575E+02 -0.10880058018E+03  0.11561542351E+03  0.00000000000E+00 0.  1.
         22    1    1    2    0    0 -0.35544104859E+02 -0.28818257327E+02 -0.17291906761E+03  0.17887112481E+03  0.00000000000E+00 0. -1.
<mgrwt>
<rscale>  0 0.82663980E+02</rscale>
<asrwt>0</asrwt>
<pdfrwt beam="1">  1        1 0.13529701E+00 0.10067693E+03</pdfrwt>
<pdfrwt beam="2">  1       -1 0.10119664E-02 0.10067693E+03</pdfrwt>
<totfact> 0.33597261E+04</totfact>
</mgrwt>
</event>
<event>
 6    1  0.2866116E-002  0.9187140E+02  0.7546771E-02  0.1411633E+00
         -2   -1    0    0    0  501 -0.00000000000E+00  0.00000000000E+00  0.38739654195E+02  0.38739654195E+02  0.00000000000E+00 0.  1.
          2   -1    0    0  501    0  0.00000000000E+00 -0.00000000000E+00 -0.87569696748E+02  0.87569696748E+02  0.00000000000E+00 0. -1.
         23    2    1    2    0    0 -0.63725165484E+01  0.11847359668E+02 -0.59226684753E+02  0.10930761376E+03  0.90881160537E+02 0.  0.
         11    1    3    3    0    0  0.20873855455E+02 -0.25347735802E+02 -0.53600363669E+02  0.62858766590E+02  0.00000000000E+00 0. -1.
        -11    1    3    3    0    0 -0.27246372003E+02  0.37195095470E+02 -0.56263210846E+01  0.46448847169E+02  0.00000000000E+00 0.  1.
         22    1    1    2    0    0  0.63725165484E+01 -0.11847359668E+02  0.10396642200E+02  0.17001737184E+02  0.00000000000E+00 0. -1.
<mgrwt>
<rscale>  0 0.56831059E+02</rscale>
<asrwt>0</asrwt>
<pdfrwt beam="1">  1        2 0.13472261E-01 0.91871401E+02</pdfrwt>
<pdfrwt beam="2">  1       -2 0.59599468E-02 0.91871401E+02</pdfrwt>
<totfact> 0.57119089E+04</totfact>
</mgrwt>
</event>
<event>
 6    1  0.2866116E-002  0.9399178E+02  0.7546771E-02  0.1375707E+00
         -2   -1    0    0    0  501 -0.00000000000E+00  0.00000000000E+00  0.58653007245E+01  0.58653007245E+01  0.00000000000E+00 0.  1.
          2   -1    0    0  501    0  0.00000000000E+00 -0.00000000000E+00 -0.71835378061E+03  0.71835378061E+03  0.00000000000E+00 0. -1.
         23    2    1    2    0    0  0.64357300706E+01 -0.21361586434E+02 -0.66660878879E+03  0.67320259330E+03  0.91305631450E+02 0.  0.
         13    1    3    3    0    0  0.27221034672E+02 -0.29120037190E+01 -0.59921585531E+02  0.65879138631E+02  0.00000000000E+00 0.  1.
        -13    1    3    3    0    0 -0.20785304601E+02 -0.18449582715E+02 -0.60668720326E+03  0.60732345467E+03  0.00000000000E+00 0. -1.
         22    1    1    2    0    0 -0.64357300706E+01  0.21361586434E+02 -0.45879691092E+02  0.51016488033E+02  0.00000000000E+00 0.  1.
<mgrwt>
<rscale>  0 0.65605807E+02</rscale>
<asrwt>0</asrwt>
<pdfrwt beam="1">  1        2 0.11051595E+00 0.93991778E+02</pdfrwt>
<pdfrwt beam="2">  1       -2 0.90235411E-03 0.93991778E+02</pdfrwt>
<totfact> 0.88679107E+04</totfact>
</mgrwt>
</event>
<event>
 6    1  0.2866116E-002  0.9306869E+02  0.7546771E-02  0.1389990E+00
         -2   -1    0    0    0  501 -0.00000000000E+00  0.00000000000E+00  0.28433232563E+02  0.28433232563E+02  0.00000000000E+00 0.  1.
          2   -1    0    0  501    0  0.00000000000E+00 -0.00000000000E+00 -0.13276066702E+03  0.13276066702E+03  0.00000000000E+00 0. -1.
         23    2    1    2    0    0 -0.17712909438E+02 -0.42793076012E+01 -0.10803815265E+03  0.14259741971E+03  0.91267310931E+02 0.  0.
         13    1    3    3    0    0 -0.10827768019E+01  0.96929695394E+01 -0.11821093152E+03  0.11861260639E+03  0.00000000000E+00 0. -1.
        -13    1    3    3    0    0 -0.16630132636E+02 -0.13972277141E+02  0.10172778868E+02  0.23984813318E+02  0.00000000000E+00 0.  1.
         22    1    1    2    0    0  0.17712909438E+02  0.42793076012E+01  0.37107181919E+01  0.18596479876E+02  0.00000000000E+00 0.  1.
<mgrwt>
<rscale>  0 0.61909133E+02</rscale>
<asrwt>0</asrwt>
<pdfrwt beam="1">  1        2 0.20424718E-01 0.93068693E+02</pdfrwt>
<pdfrwt beam="2">  1       -2 0.43743435E-02 0.93068693E+02</pdfrwt>
<totfact> 0.56347179E+04</totfact>
</mgrwt>
</event>
<event>
 6    1  0.2866116E-002  0.9040445E+02  0.7546771E-02  0.1426012E+00
         -2   -1    0    0    0  501 -0.00000000000E+00  0.00000000000E+00  0.28118057679E+03  0.28118057679E+03  0.00000000000E+00 0.  1.
          2   -1    0    0  501    0  0.00000000000E+00 -0.00000000000E+00 -0.91996041686E+01  0.91996041686E+01  0.00000000000E+00 0. -1.
         23    2    1    2    0    0  0.29068827674E+00 -0.11308743666E+02  0.24245876041E+03  0.25876478602E+03  0.89693878297E+02 0.  0.
         11    1    3    3    0    0 -0.18670877735E+02 -0.46603980797E+02  0.12782307238E+03  0.13732905932E+03  0.00000000000E+00 0.  1.
        -11    1    3    3    0    0  0.18961566011E+02  0.35295237132E+02  0.11463568803E+03  0.12143572670E+03  0.00000000000E+00 0. -1.
         22    1    1    2    0    0 -0.29068827674E+00  0.11308743666E+02  0.29522212217E+02  0.31615394939E+02  0.00000000000E+00 0.  1.
<mgrwt>
<rscale>  0 0.53768979E+02</rscale>
<asrwt>0</asrwt>
<pdfrwt beam="1">  1        2 0.14153239E-02 0.90404447E+02</pdfrwt>
<pdfrwt beam="2">  1       -2 0.43258544E-01 0.90404447E+02</pdfrwt>
<totfact> 0.39164981E+04</totfact>
</mgrwt>
</event>
<event>
 6    1  0.2866116E-002  0.7892496E+02  0.7546771E-02  0.1436329E+00
          2   -1    0    0  501    0  0.00000000000E+00  0.00000000000E+00  0.39040599320E+03  0.39040599320E+03  0.00000000000E+00 0. -1.
         -2   -1    0    0    0  501 -0.00000000000E+00 -0.00000000000E+00 -0.10362046039E+02  0.10362046039E+02  0.00000000000E+00 0.  1.
         23    2    1    2    0    0 -0.12103877383E+02 -0.80628250613E+01  0.37791625082E+03  0.38606973705E+03  0.77573424793E+02 0.  0.
         11    1    3    3    0    0 -0.37456182433E+02  0.79581877504E+00  0.98804088782E+02  0.10566857097E+03  0.00000000000E+00 0.  1.
        -11    1    3    3    0    0  0.25352305050E+02 -0.88586438363E+01  0.27911216204E+03  0.28040116608E+03  0.00000000000E+00 0. -1.
         22    1    1    2    0    0  0.12103877383E+02  0.80628250613E+01  0.21276963426E+01  0.14698302194E+02  0.00000000000E+00 0.  1.
<mgrwt>
<rscale>  0 0.51710401E+02</rscale>
<asrwt>0</asrwt>
<pdfrwt beam="1">  1        2 0.60062449E-01 0.78924959E+02</pdfrwt>
<pdfrwt beam="2">  1       -2 0.15941612E-02 0.78924959E+02</pdfrwt>
<totfact> 0.75326194E+04</totfact>
</mgrwt>
</event>
<event>
 6    1  0.2866116E-002  0.9375378E+02  0.7546771E-02  0.1419316E+00
         -2   -1    0    0    0  501 -0.00000000000E+00  0.00000000000E+00  0.30232486075E+03  0.30232486075E+03  0.00000000000E+00 0.  1.
          2   -1    0    0  501    0  0.00000000000E+00 -0.00000000000E+00 -0.95388128346E+01  0.95388128346E+01  0.00000000000E+00 0. -1.
         23    2    1    2    0    0 -0.93712732732E+01  0.62037682359E+01  0.23531406637E+03  0.25330313939E+03  0.93077726053E+02 0.  0.
         13    1    3    3    0    0  0.15577230085E+02  0.44997374349E+02  0.11742540028E+03  0.12671281871E+03  0.00000000000E+00 0. -1.
        -13    1    3    3    0    0 -0.24948503358E+02 -0.38793606113E+02  0.11788866609E+03  0.12659032067E+03  0.00000000000E+00 0.  1.
         22    1    1    2    0    0  0.93712732732E+01 -0.62037682359E+01  0.57471981542E+02  0.58560534197E+02  0.00000000000E+00 0. -1.
<mgrwt>
<rscale>  0 0.55165838E+02</rscale>
<asrwt>0</asrwt>
<pdfrwt beam="1">  1        2 0.14675099E-02 0.93753776E+02</pdfrwt>
<pdfrwt beam="2">  1       -2 0.46511510E-01 0.93753776E+02</pdfrwt>
<totfact> 0.32612868E+04</totfact>
</mgrwt>
</event>
<event>
 6    1  0.2866116E-002  0.9157710E+02  0.7546771E-02  0.1379781E+00
         -4   -1    0    0    0  501 -0.00000000000E+00  0.00000000000E+00  0.39811785802E+02  0.39811785802E+02  0.00000000000E+00 0.  1.
          4   -1    0    0  501    0  0.00000000000E+00 -0.00000000000E+00 -0.20454975025E+03  0.20454975025E+03  0.00000000000E+00 0. -1.
         23    2    1    2    0    0 -0.70849326851E+01  0.21425003648E+02 -0.18973878812E+03  0.21068263708E+03  0.88753246683E+02 0.  0.
         13    1    3    3    0    0 -0.23088415518E+01 -0.34599551075E+02 -0.60319300126E+02  0.69576415915E+02  0.00000000000E+00 0.  1.
        -13    1    3    3    0    0 -0.47760911333E+01  0.56024554723E+02 -0.12941948799E+03  0.14110622116E+03  0.00000000000E+00 0. -1.
         22    1    1    2    0    0  0.70849326851E+01 -0.21425003648E+02  0.25000823666E+02  0.33678898979E+02  0.00000000000E+00 0.  1.
<mgrwt>
<rscale>  0 0.64521449E+02</rscale>
<asrwt>0</asrwt>
<pdfrwt beam="1">  1        4 0.31469192E-01 0.91577103E+02</pdfrwt>
<pdfrwt beam="2">  1       -4 0.61248901E-02 0.91577103E+02</pdfrwt>
<totfact> 0.24790801E+03</totfact>
</mgrwt>
</event>
<event>
 6    1  0.2866116E-002  0.9158893E+02  0.7546771E-02  0.1404330E+00
         -2   -1    0    0    0  501 -0.00000000000E+00  0.00000000000E+00  0.11002276582E+03  0.11002276582E+03  0.00000000000E+00 0.  1.
          2   -1    0    0  501    0  0.00000000000E+00 -0.00000000000E+00 -0.26803987176E+02  0.26803987176E+02  0.00000000000E+00 0. -1.
         23    2    1    2    0    0  0.13739113516E+02  0.65522582952E+01  0.61562162717E+02  0.11035593241E+03  0.90315206977E+02 0.  0.
         11    1    3    3    0    0  0.49504137748E+02  0.95065484291E+01  0.17126615611E+02  0.53238661511E+02  0.00000000000E+00 0. -1.
        -11    1    3    3    0    0 -0.35765024233E+02 -0.29542901339E+01  0.44435547107E+02  0.57117270902E+02  0.00000000000E+00 0.  1.
         22    1    1    2    0    0 -0.13739113516E+02 -0.65522582952E+01  0.21656615924E+02  0.26470820581E+02  0.00000000000E+00 0. -1.
<mgrwt>
<rscale>  0 0.58478590E+02</rscale>
<asrwt>0</asrwt>
<pdfrwt beam="1">  1        2 0.41236904E-02 0.91588929E+02</pdfrwt>
<pdfrwt beam="2">  1       -2 0.16926579E-01 0.91588929E+02</pdfrwt>
<totfact> 0.48900627E+04</totfact>
</mgrwt>
</event>
<event>
 6    1  0.2866116E-002  0.1000290E+03  0.7546771E-02  0.1390659E+00
          2   -1    0    0  501    0  0.00000000000E+00  0.00000000000E+00  0.10799775555E+04  0.10799775555E+04  0.00000000000E+00 0. -1.
         -2   -1    0    0    0  501 -0.00000000000E+00 -0.00000000000E+00 -0.34263790057E+01  0.34263790057E+01  0.00000000000E+00 0.  1.
         23    2    1    2    0    0 -0.13657883820E+02  0.49298659804E+01  0.10243025234E+04  0.10291751311E+04  0.98969437986E+02 0.  0.
         11    1    3    3    0    0 -0.40368289615E+02  0.11839158211E+02  0.92919247126E+03  0.93014429693E+03  0.00000000000E+00 0. -1.
        -11    1    3    3    0    0  0.26710405795E+02 -0.69092922306E+01  0.95110052150E+02  0.99030834172E+02  0.00000000000E+00 0.  1.
         22    1    1    2    0    0  0.13657883820E+02 -0.49298659804E+01  0.52248653100E+02  0.54228803415E+02  0.00000000000E+00 0. -1.
<mgrwt>
<rscale>  0 0.61743147E+02</rscale>
<asrwt>0</asrwt>
<pdfrwt beam="1">  1        2 0.16615012E+00 0.10002895E+03</pdfrwt>
<pdfrwt beam="2">  1       -2 0.52713609E-03 0.10002895E+03</pdfrwt>
<totfact> 0.11312078E+05</totfact>
</mgrwt>
</event>
<event>
 6    1  0.2866116E-002  0.1000031E+03  0.7546771E-02  0.1336132E+00
         -1   -1    0    0    0  501 -0.00000000000E+00  0.00000000000E+00  0.13837051092E+03  0.13837051092E+03  0.00000000000E+00 0.  1.
          1   -1    0    0  501    0  0.00000000000E+00 -0.00000000000E+00 -0.50467249903E+02  0.50467249903E+02  0.00000000000E+00 0. -1.
         23    2    1    2    0    0  0.36085493476E+02  0.25720464776E+01  0.70397276192E+01  0.10025057611E+03  0.93230048707E+02 0.  0.
         13    1    3    3    0    0  0.62024139354E+01  0.30593821630E+02  0.37798668220E+02  0.49022353879E+02  0.00000000000E+00 0.  1.
        -13    1    3    3    0    0  0.29883079541E+02 -0.28021775153E+02 -0.30758940601E+02  0.51228222226E+02  0.00000000000E+00 0. -1.
         22    1    1    2    0    0 -0.36085493476E+02 -0.25720464776E+01  0.80863533394E+02  0.88587184714E+02  0.00000000000E+00 0.  1.
<mgrwt>
<rscale>  0 0.77556528E+02</rscale>
<asrwt>0</asrwt>
<pdfrwt beam="1">  1        1 0.77641924E-02 0.10000310E+03</pdfrwt>
<pdfrwt beam="2">  1       -1 0.21287771E-01 0.10000310E+03</pdfrwt>
<totfact> 0.14879645E+04</totfact>
</mgrwt>
</event>
<event>
 6    1  0.2866116E-002  0.1037853E+03  0.7546771E-02  0.1333327E+00
          2   -1    0    0  501    0  0.00000000000E+00  0.00000000000E+00  0.33657581752E+03  0.33657581752E+03  0.00000000000E+00 0. -1.
         -2   -1    0    0    0  501 -0.00000000000E+00 -0.00000000000E+00 -0.18518213791E+02  0.18518213791E+02  0.00000000000E+00 0.  1.
         23    2    1    2    0    0  0.33503577284E+02  0.57249309455E+01  0.29816507866E+03  0.31571158499E+03  0.98061849036E+02 0.  0.
         13    1    3    3    0    0 -0.87796493702E+01 -0.22599431247E+02  0.22661085703E+03  0.22790414007E+03  0.00000000000E+00 0. -1.
        -13    1    3    3    0    0  0.42283226654E+02  0.28324362192E+02  0.71554221627E+02  0.87807444916E+02  0.00000000000E+00 0.  1.
         22    1    1    2    0    0 -0.33503577284E+02 -0.57249309455E+01  0.19892525073E+02  0.39382446330E+02  0.00000000000E+00 0.  1.
<mgrwt>
<rscale>  0 0.78512191E+02</rscale>
<asrwt>0</asrwt>
<pdfrwt beam="1">  1        2 0.51780891E-01 0.10378531E+03</pdfrwt>
<pdfrwt beam="2">  1       -2 0.28489562E-02 0.10378531E+03</pdfrwt>
<totfact> 0.39562734E+04</totfact>
</mgrwt>
</event>
<event>
 6    1  0.2866116E-002  0.1007918E+03  0.7546771E-02  0.1328641E+00
         -2   -1    0    0    0  501 -0.00000000000E+00  0.00000000000E+00  0.13967850344E+03  0.13967850344E+03  0.00000000000E+00 0.  1.
          2   -1    0    0  501    0  0.00000000000E+00 -0.00000000000E+00 -0.41482493481E+02  0.41482493481E+02  0.00000000000E+00 0. -1.
         23    2    1    2    0    0 -0.63921856551E+01  0.39782260097E+02  0.98411285955E+02  0.14086788833E+03  0.92387729187E+02 0.  0.
         13    1    3    3    0    0 -0.43894638957E+02  0.35617608694E+02  0.33281733697E+02  0.65597463183E+02  0.00000000000E+00 0. -1.
        -13    1    3    3    0    0  0.37502453302E+02  0.41646514032E+01  0.65129552258E+02  0.75270425150E+02  0.00000000000E+00 0.  1.
         22    1    1    2    0    0  0.63921856551E+01 -0.39782260097E+02 -0.21527599592E+00  0.40293108587E+02  0.00000000000E+00 0. -1.
<mgrwt>
<rscale>  0 0.80144725E+02</rscale>
<asrwt>0</asrwt>
<pdfrwt beam="1">  1        2 0.63819221E-02 0.10079177E+03</pdfrwt>
<pdfrwt beam="2">  1       -2 0.21489000E-01 0.10079177E+03</pdfrwt>
<totfact> 0.18935823E+04</totfact>
</mgrwt>
</event>
<event>
 6    1  0.2866116E-002  0.9840798E+02  0.7546771E-02  0.1336126E+00
          1   -1    0    0  501    0  0.00000000000E+00  0.00000000000E+00  0.59348734117E+03  0.59348734117E+03  0.00000000000E+00 0. -1.
         -1   -1    0    0    0  501 -0.00000000000E+00 -0.00000000000E+00 -0.10438100990E+02  0.10438100990E+02  0.00000000000E+00 0.  1.
         23    2    1    2    0    0 -0.18428023736E+01  0.37924289681E+02  0.52774657903E+03  0.53684316433E+03  0.90788125564E+02 0.  0.
         11    1    3    3    0    0  0.96832398464E+01  0.30524175528E+02  0.52023861150E+03  0.52122327588E+03  0.00000000000E+00 0. -1.
        -11    1    3    3    0    0 -0.11526042220E+02  0.74001141526E+01  0.75079675286E+01  0.15619888448E+02  0.00000000000E+00 0.  1.
         22    1    1    2    0    0  0.18428023736E+01 -0.37924289681E+02  0.55302661154E+02  0.67082277832E+02  0.00000000000E+00 0.  1.
<mgrwt>
<rscale>  0 0.77558633E+02</rscale>
<asrwt>0</asrwt>
<pdfrwt beam="1">  1        1 0.91305718E-01 0.98407984E+02</pdfrwt>
<pdfrwt beam="2">  1       -1 0.16058622E-02 0.98407984E+02</pdfrwt>
<totfact> 0.30596067E+04</totfact>
</mgrwt>
</event>
<event>
 6    1  0.2866116E-002  0.9515357E+02  0.7546771E-02  0.1393568E+00
         -2   -1    0    0    0  501 -0.00000000000E+00  0.00000000000E+00  0.15039174017E+03  0.15039174017E+03  0.00000000000E+00 0.  1.
          2   -1    0    0  501    0  0.00000000000E+00 -0.00000000000E+00 -0.21841165984E+02  0.21841165984E+02  0.00000000000E+00 0. -1.
         23    2    1    2    0    0  0.11411393675E+02 -0.11358045309E+02  0.92287856538E+02  0.13255659345E+03  0.93781538178E+02 0.  0.
         11    1    3    3    0    0 -0.39453250884E+02  0.28135810199E+01  0.24108624331E+02  0.46321712086E+02  0.00000000000E+00 0. -1.
        -11    1    3    3    0    0  0.50864644559E+02 -0.14171626329E+02  0.68179232207E+02  0.86234881361E+02  0.00000000000E+00 0.  1.
         22    1    1    2    0    0 -0.11411393675E+02  0.11358045309E+02  0.36262717652E+02  0.39676312711E+02  0.00000000000E+00 0.  1.
<mgrwt>
<rscale>  0 0.61027903E+02</rscale>
<asrwt>0</asrwt>
<pdfrwt beam="1">  1        2 0.33601795E-02 0.95153571E+02</pdfrwt>
<pdfrwt beam="2">  1       -2 0.23137190E-01 0.95153571E+02</pdfrwt>
<totfact> 0.38117331E+04</totfact>
</mgrwt>
</event>
<event>
 6    1  0.2866116E-002  0.9579615E+02  0.7546771E-02  0.1350850E+00
          2   -1    0    0  501    0  0.00000000000E+00  0.00000000000E+00  0.71556189279E+03  0.71556189279E+03  0.00000000000E+00 0.  1.
         -2   -1    0    0    0  501 -0.00000000000E+00 -0.00000000000E+00 -0.57037391558E+01  0.57037391558E+01  0.00000000000E+00 0. -1.
         23    2    1    2    0    0 -0.10844066874E+01  0.31917027127E+02  0.52447939175E+03  0.53315620125E+03  0.90316277624E+02 0.  0.
         11    1    3    3    0    0 -0.30225368763E+02  0.37508528245E+02  0.15094521051E+03  0.15844531922E+03  0.00000000000E+00 0. -1.
        -11    1    3    3    0    0  0.29140962075E+02 -0.55915011178E+01  0.37353418124E+03  0.37471088203E+03  0.00000000000E+00 0.  1.
         22    1    1    2    0    0  0.10844066874E+01 -0.31917027127E+02  0.18537876188E+03  0.18810943069E+03  0.00000000000E+00 0.  1.
<mgrwt>
<rscale>  0 0.72791268E+02</rscale>
<asrwt>0</asrwt>
<pdfrwt beam="1">  1        2 0.11008637E+00 0.95796151E+02</pdfrwt>
<pdfrwt beam="2">  1       -2 0.87749890E-03 0.95796151E+02</pdfrwt>
<totfact> 0.92910732E+04</totfact>
</mgrwt>
</event>
<event>
 6    1  0.2866116E-002  0.9368390E+02  0.7546771E-02  0.1417578E+00
         -2   -1    0    0    0  501 -0.00000000000E+00  0.00000000000E+00  0.14699974517E+03  0.14699974517E+03  0.00000000000E+00 0.  1.
          2   -1    0    0  501    0  0.00000000000E+00 -0.00000000000E+00 -0.18881412622E+02  0.18881412622E+02  0.00000000000E+00 0. -1.
         23    2    1    2    0    0  0.80988117893E+01  0.82625142647E+01  0.11151542244E+03  0.14564464331E+03  0.92966729469E+02 0.  0.
         11    1    3    3    0    0  0.11275646173E+02  0.16632815266E+02 -0.10928352359E+02  0.22873994526E+02  0.00000000000E+00 0. -1.
        -11    1    3    3    0    0 -0.31768343838E+01 -0.83703010008E+01  0.12244377480E+03  0.12277064878E+03  0.00000000000E+00 0.  1.
         22    1    1    2    0    0 -0.80988117893E+01 -0.82625142647E+01  0.16602910105E+02  0.20236514481E+02  0.00000000000E+00 0.  1.
<mgrwt>
<rscale>  0 0.55536694E+02</rscale>
<asrwt>0</asrwt>
<pdfrwt beam="1">  1        2 0.29048328E-02 0.93683898E+02</pdfrwt>
<pdfrwt beam="2">  1       -2 0.22615345E-01 0.93683898E+02</pdfrwt>
<totfact> 0.47975636E+04</totfact>
</mgrwt>
</event>
<event>
 6    1  0.2866116E-002  0.9167623E+02  0.7546771E-02  0.1424745E+00
          2   -1    0    0  501    0  0.00000000000E+00  0.00000000000E+00  0.86399088424E+02  0.86399088424E+02  0.00000000000E+00 0.  1.
         -2   -1    0    0    0  501 -0.00000000000E+00 -0.00000000000E+00 -0.31758571197E+02  0.31758571197E+02  0.00000000000E+00 0. -1.
         23    2    1    2    0    0  0.59370184776E+00  0.11043981095E+02  0.55325039016E+02  0.10707656895E+03  0.91006646331E+02 0.  0.
         11    1    3    3    0    0  0.65661933298E+01  0.32436354520E+02 -0.12753434639E+02  0.35466633397E+02  0.00000000000E+00 0. -1.
        -11    1    3    3    0    0 -0.59724914820E+01 -0.21392373426E+02  0.68078473655E+02  0.71609935557E+02  0.00000000000E+00 0.  1.
         22    1    1    2    0    0 -0.59370184776E+00 -0.11043981095E+02 -0.68452178880E+00  0.11081090668E+02  0.00000000000E+00 0. -1.
<mgrwt>
<rscale>  0 0.54029462E+02</rscale>
<asrwt>0</asrwt>
<pdfrwt beam="1">  1        2 0.13292167E-01 0.91676233E+02</pdfrwt>
<pdfrwt beam="2">  1       -2 0.48859341E-02 0.91676233E+02</pdfrwt>
<totfact> 0.78027830E+04</totfact>
</mgrwt>
</event>
<event>
 6    1  0.2866116E-002  0.9291648E+02  0.7546771E-02  0.1418262E+00
         -2   -1    0    0    0  501 -0.00000000000E+00  0.00000000000E+00  0.27219428407E+02  0.27219428407E+02  0.00000000000E+00 0. -1.
          2   -1    0    0  501    0  0.00000000000E+00 -0.00000000000E+00 -0.11966855922E+03  0.11966855922E+03  0.00000000000E+00 0.  1.
         23    2    1    2    0    0  0.27421949133E+01  0.11409460220E+02 -0.96981330624E+02  0.13430878851E+03  0.92172538020E+02 0.  0.
         11    1    3    3    0    0  0.22840553291E+02  0.11533024036E+02  0.84750636280E+01  0.26954187459E+02  0.00000000000E+00 0. -1.
        -11    1    3    3    0    0 -0.20098358378E+02 -0.12356381633E+00 -0.10545639425E+03  0.10735460105E+03  0.00000000000E+00 0.  1.
         22    1    1    2    0    0 -0.27421949133E+01 -0.11409460220E+02  0.45321998083E+01  0.12579199122E+02  0.00000000000E+00 0.  1.
<mgrwt>
<rscale>  0 0.55390399E+02</rscale>
<asrwt>0</asrwt>
<pdfrwt beam="1">  1        2 0.18410547E-01 0.92916480E+02</pdfrwt>
<pdfrwt beam="2">  1       -2 0.41876045E-02 0.92916480E+02</pdfrwt>
<totfact> 0.67500440E+04</totfact>
</mgrwt>
</event>
<event>
 6    1  0.2866116E-002  0.9551170E+02  0.7546771E-02  0.1370858E+00
          2   -1    0    0  501    0  0.00000000000E+00  0.00000000000E+00  0.41425595442E+03  0.41425595442E+03  0.00000000000E+00 0.  1.
         -2   -1    0    0    0  501 -0.00000000000E+00 -0.00000000000E+00 -0.87997619472E+01  0.87997619472E+01  0.00000000000E+00 0. -1.
         23    2    1    2    0    0 -0.17013058230E+02  0.15522397110E+02  0.35441739529E+03  0.36706154006E+03  0.92693555033E+02 0.  0.
         11    1    3    3    0    0  0.24724938509E+02 -0.25049619058E+02  0.98246960851E+02  0.10436125390E+03  0.00000000000E+00 0. -1.
        -11    1    3    3    0    0 -0.41737996739E+02  0.40572016168E+02  0.25617043444E+03  0.26270028616E+03  0.00000000000E+00 0.  1.
         22    1    1    2    0    0  0.17013058230E+02 -0.15522397110E+02  0.51038797173E+02  0.55994176298E+02  0.00000000000E+00 0. -1.
<mgrwt>
<rscale>  0 0.66929369E+02</rscale>
<asrwt>0</asrwt>
<pdfrwt beam="1">  1        2 0.63731670E-01 0.95511696E+02</pdfrwt>
<pdfrwt beam="2">  1       -2 0.13538099E-02 0.95511696E+02</pdfrwt>
<totfact> 0.91805140E+04</totfact>
</mgrwt>
</event>
<event>
 6    1  0.2866116E-002  0.9455824E+02  0.7546771E-02  0.1423620E+00
         -2   -1    0    0    0  501 -0.00000000000E+00  0.00000000000E+00  0.25838115808E+01  0.25838115808E+01  0.00000000000E+00 0.  1.
          2   -1    0    0  501    0  0.00000000000E+00 -0.00000000000E+00 -0.17428204434E+04  0.17428204434E+04  0.00000000000E+00 0. -1.
         23    2    1    2    0    0  0.10006476628E+02  0.22396495870E+01 -0.17210822915E+04  0.17236779033E+04  0.94000609550E+02 0.  0.
         11    1    3    3    0    0 -0.49423360091E+01 -0.66570534398E+01 -0.16636078113E+04  0.16636284720E+04  0.00000000000E+00 0. -1.
        -11    1    3    3    0    0  0.14948812637E+02  0.88967030268E+01 -0.57474480137E+02  0.60049431230E+02  0.00000000000E+00 0.  1.
         22    1    1    2    0    0 -0.10006476628E+02 -0.22396495870E+01 -0.19154340392E+02  0.21726351756E+02  0.00000000000E+00 0. -1.
<mgrwt>
<rscale>  0 0.54262327E+02</rscale>
<asrwt>0</asrwt>
<pdfrwt beam="1">  1        2 0.26812619E+00 0.94558237E+02</pdfrwt>
<pdfrwt beam="2">  1       -2 0.39750953E-03 0.94558237E+02</pdfrwt>
<totfact> 0.74973949E+04</totfact>
</mgrwt>
</event>
<event>
 6    1  0.2866116E-002  0.9230475E+02  0.7546771E-02  0.1395742E+00
          1   -1    0    0  501    0  0.00000000000E+00  0.00000000000E+00  0.53922773497E+02  0.53922773497E+02  0.00000000000E+00 0. -1.
         -1   -1    0    0    0  501 -0.00000000000E+00 -0.00000000000E+00 -0.55551357839E+02  0.55551357839E+02  0.00000000000E+00 0.  1.
         23    2    1    2    0    0  0.53445781411E+01 -0.16176133338E+02 -0.32423115183E+01  0.92361682047E+02  0.90718994269E+02 0.  0.
         13    1    3    3    0    0  0.18047843359E+01 -0.39518999763E+02 -0.34978707006E+02  0.52806425106E+02  0.00000000000E+00 0.  1.
        -13    1    3    3    0    0  0.35397938052E+01  0.23342866424E+02  0.31736395487E+02  0.39555256940E+02  0.00000000000E+00 0. -1.
         22    1    1    2    0    0 -0.53445781411E+01  0.16176133338E+02  0.16137271757E+01  0.17112449289E+02  0.00000000000E+00 0. -1.
<mgrwt>
<rscale>  0 0.60500809E+02</rscale>
<asrwt>0</asrwt>
<pdfrwt beam="1">  1        1 0.82958113E-02 0.92304755E+02</pdfrwt>
<pdfrwt beam="2">  1       -1 0.85463627E-02 0.92304755E+02</pdfrwt>
<totfact> 0.55210285E+04</totfact>
</mgrwt>
</event>
<event>
 6    1  0.2866116E-002  0.1120029E+03  0.7546771E-02  0.1284761E+00
         -2   -1    0    0    0  501 -0.00000000000E+00  0.00000000000E+00  0.30574479287E+02  0.30574479287E+02  0.00000000000E+00 0.  1.
          2   -1    0    0  501    0  0.00000000000E+00 -0.00000000000E+00 -0.28354658977E+03  0.28354658977E+03  0.00000000000E+00 0. -1.
         23    2    1    2    0    0  0.27464480693E+02  0.59350180662E+02 -0.11040388070E+03  0.15726941370E+03  0.90928048303E+02 0.  0.
         13    1    3    3    0    0 -0.29299271551E+02  0.18814925496E+01 -0.17580258851E+02  0.34220649160E+02  0.00000000000E+00 0.  1.
        -13    1    3    3    0    0  0.56763752244E+02  0.57468688112E+02 -0.92823621848E+02  0.12304876454E+03  0.00000000000E+00 0. -1.
         22    1    1    2    0    0 -0.27464480693E+02 -0.59350180662E+02 -0.14256822979E+03  0.15685165536E+03  0.00000000000E+00 0.  1.
<mgrwt>
<rscale>  0 0.97906405E+02</rscale>
<asrwt>0</asrwt>
<pdfrwt beam="1">  1        2 0.43622554E-01 0.11200291E+03</pdfrwt>
<pdfrwt beam="2">  1       -2 0.47037659E-02 0.11200291E+03</pdfrwt>
<totfact> 0.22836960E+04</totfact>
</mgrwt>
</event>
<event>
 6    1  0.2866116E-002  0.1054338E+03  0.7546771E-02  0.1306654E+00
          2   -1    0    0  501    0  0.00000000000E+00  0.00000000000E+00  0.17531541661E+04  0.17531541661E+04  0.00000000000E+00 0. -1.
         -2   -1    0    0    0  501 -0.00000000000E+00 -0.00000000000E+00 -0.72464672644E+01  0.72464672644E+01  0.00000000000E+00 0.  1.
         23    2    1    2    0    0  0.41276452361E+01 -0.52053381688E+02  0.16284453386E+04  0.16318549292E+04  0.91595288932E+02 0.  0.
         13    1    3    3    0    0 -0.18169580342E+02 -0.22764328469E+02  0.14212440025E+03  0.14507823216E+03  0.00000000000E+00 0.  1.
        -13    1    3    3    0    0  0.22297225578E+02 -0.29289053219E+02  0.14863209384E+04  0.14867766970E+04  0.00000000000E+00 0. -1.
         22    1    1    2    0    0 -0.41276452361E+01  0.52053381688E+02  0.11746236016E+03  0.12854570415E+03  0.00000000000E+00 0.  1.
<mgrwt>
<rscale>  0 0.88447885E+02</rscale>
<asrwt>0</asrwt>
<pdfrwt beam="1">  1        2 0.26971569E+00 0.10543381E+03</pdfrwt>
<pdfrwt beam="2">  1       -2 0.11148425E-02 0.10543381E+03</pdfrwt>
<totfact> 0.17445216E+04</totfact>
</mgrwt>
</event>
<event>
 6    1  0.2866116E-002  0.9028512E+02  0.7546771E-02  0.1414185E+00
         -3   -1    0    0    0  501 -0.00000000000E+00  0.00000000000E+00  0.67671026179E+02  0.67671026179E+02  0.00000000000E+00 0.  1.
          3   -1    0    0  501    0  0.00000000000E+00 -0.00000000000E+00 -0.42010240261E+02  0.42010240261E+02  0.00000000000E+00 0. -1.
         23    2    1    2    0    0  0.37618137396E+01  0.13093153689E+02  0.13248938662E+02  0.91252054073E+02  0.89251448620E+02 0.  0.
         11    1    3    3    0    0 -0.15989400129E+02 -0.12017454930E+02 -0.30868179800E+02  0.36782124241E+02  0.00000000000E+00 0. -1.
        -11    1    3    3    0    0  0.19751213868E+02  0.25110608620E+02  0.44117118462E+02  0.54469929832E+02  0.00000000000E+00 0.  1.
         22    1    1    2    0    0 -0.37618137396E+01 -0.13093153689E+02  0.12411847256E+02  0.18429212367E+02  0.00000000000E+00 0.  1.
<mgrwt>
<rscale>  0 0.56270282E+02</rscale>
<asrwt>0</asrwt>
<pdfrwt beam="1">  1        3 0.64631139E-02 0.90285121E+02</pdfrwt>
<pdfrwt beam="2">  1       -3 0.10410927E-01 0.90285121E+02</pdfrwt>
<totfact> 0.21181595E+04</totfact>
</mgrwt>
</event>
<event>
 6    1  0.2866116E-002  0.9198101E+02  0.7546771E-02  0.1425421E+00
          1   -1    0    0  501    0  0.00000000000E+00  0.00000000000E+00  0.37513316134E+02  0.37513316134E+02  0.00000000000E+00 0. -1.
         -1   -1    0    0    0  501 -0.00000000000E+00 -0.00000000000E+00 -0.98950803901E+02  0.98950803901E+02  0.00000000000E+00 0.  1.
         23    2    1    2    0    0  0.76711123184E+01 -0.76560831759E+01 -0.20662364554E+02  0.94273217617E+02  0.91340268650E+02 0.  0.
         13    1    3    3    0    0 -0.35038542613E+02  0.69381224948E+01  0.12954361038E+02  0.37995427121E+02  0.00000000000E+00 0. -1.
        -13    1    3    3    0    0  0.42709654932E+02 -0.14594205671E+02 -0.33616725592E+02  0.56277790496E+02  0.00000000000E+00 0.  1.
         22    1    1    2    0    0 -0.76711123184E+01  0.76560831759E+01 -0.40775123213E+02  0.42190902418E+02  0.00000000000E+00 0.  1.
<mgrwt>
<rscale>  0 0.53890301E+02</rscale>
<asrwt>0</asrwt>
<pdfrwt beam="1">  1        1 0.57712795E-02 0.91981010E+02</pdfrwt>
<pdfrwt beam="2">  1       -1 0.15223200E-01 0.91981010E+02</pdfrwt>
<totfact> 0.37166312E+04</totfact>
</mgrwt>
</event>
<event>
 6    1  0.2866116E-002  0.8556670E+02  0.7546771E-02  0.1408685E+00
          2   -1    0    0  501    0  0.00000000000E+00  0.00000000000E+00  0.40368416710E+03  0.40368416710E+03  0.00000000000E+00 0. -1.
         -2   -1    0    0    0  501 -0.00000000000E+00 -0.00000000000E+00 -0.31165900057E+02  0.31165900057E+02  0.00000000000E+00 0.  1.
         23    2    1    2    0    0  0.12712036574E+02 -0.11931323085E+02  0.39626080680E+03  0.40539398904E+03  0.83771755374E+02 0.  0.
         11    1    3    3    0    0  0.20425138657E+02 -0.21308355843E+02  0.39108145278E+03  0.39219374680E+03  0.00000000000E+00 0. -1.
        -11    1    3    3    0    0 -0.77131020825E+01  0.93770327579E+01  0.51793540133E+01  0.13200242235E+02  0.00000000000E+00 0.  1.
         22    1    1    2    0    0 -0.12712036574E+02  0.11931323085E+02 -0.23742539753E+02  0.29456078122E+02  0.00000000000E+00 0.  1.
<mgrwt>
<rscale>  0 0.57488272E+02</rscale>
<asrwt>0</asrwt>
<pdfrwt beam="1">  1        2 0.62105253E-01 0.85566695E+02</pdfrwt>
<pdfrwt beam="2">  1       -2 0.47947541E-02 0.85566695E+02</pdfrwt>
<totfact> 0.14914543E+04</totfact>
</mgrwt>
</event>
<event>
 6    1  0.2866116E-002  0.8151550E+02  0.7546771E-02  0.1438436E+00
          2   -1    0    0  501    0  0.00000000000E+00  0.00000000000E+00  0.12625797270E+02  0.12625797270E+02  0.00000000000E+00 0. -1.
         -2   -1    0    0    0  501 -0.00000000000E+00 -0.00000000000E+00 -0.20448960894E+03  0.20448960894E+03  0.00000000000E+00 0.  1.
         23    2    1    2    0    0  0.43424195081E+01  0.12029945187E+02 -0.12633842164E+03  0.15035349396E+03  0.80505901497E+02 0.  0.
         13    1    3    3    0    0 -0.59829582752E+01  0.45625829594E+02 -0.78475235160E+02  0.90971834373E+02  0.00000000000E+00 0.  1.
        -13    1    3    3    0    0  0.10325377783E+02 -0.33595884407E+02 -0.47863186476E+02  0.59381659585E+02  0.00000000000E+00 0. -1.
         22    1    1    2    0    0 -0.43424195081E+01 -0.12029945187E+02 -0.65525390036E+02  0.66761912254E+02  0.00000000000E+00 0. -1.
<mgrwt>
<rscale>  0 0.51303282E+02</rscale>
<asrwt>0</asrwt>
<pdfrwt beam="1">  1        2 0.19424305E-02 0.81515498E+02</pdfrwt>
<pdfrwt beam="2">  1       -2 0.31459937E-01 0.81515498E+02</pdfrwt>
<totfact> 0.45220776E+04</totfact>
</mgrwt>
</event>
<event>
 6    1  0.2866116E-002  0.1225573E+03  0.7546771E-02  0.1259620E+00
          2   -1    0    0  501    0  0.00000000000E+00  0.00000000000E+00  0.14165802123E+04  0.14165802123E+04  0.00000000000E+00 0. -1.
         -2   -1    0    0    0  501 -0.00000000000E+00 -0.00000000000E+00 -0.14119929737E+02  0.14119929737E+02  0.00000000000E+00 0.  1.
         23    2    1    2    0    0 -0.31335782944E+02 -0.74729002919E+02  0.12665534640E+04  0.12724692395E+04  0.91945273168E+02 0.  0.
         11    1    3    3    0    0  0.68024525525E+01 -0.60132182329E+02  0.10704435978E+04  0.10721528103E+04  0.00000000000E+00 0. -1.
        -11    1    3    3    0    0 -0.38138235497E+02 -0.14596820590E+02  0.19610986619E+03  0.20031642917E+03  0.00000000000E+00 0.  1.
         22    1    1    2    0    0  0.31335782944E+02  0.74729002919E+02  0.13590681855E+03  0.15823090248E+03  0.00000000000E+00 0.  1.
<mgrwt>
<rscale>  0 0.11051466E+03</rscale>
<asrwt>0</asrwt>
<pdfrwt beam="1">  1        2 0.21793530E+00 0.12255729E+03</pdfrwt>
<pdfrwt beam="2">  1       -2 0.21722980E-02 0.12255729E+03</pdfrwt>
<totfact> 0.10034356E+04</totfact>
</mgrwt>
</event>
<event>
 6    1  0.2866116E-002  0.1239368E+03  0.7546771E-02  0.1260515E+00
          1   -1    0    0  501    0  0.00000000000E+00  0.00000000000E+00  0.45542790624E+03  0.45542790624E+03  0.00000000000E+00 0. -1.
         -1   -1    0    0    0  501 -0.00000000000E+00 -0.00000000000E+00 -0.23532362409E+02  0.23532362409E+02  0.00000000000E+00 0.  1.
         23    2    1    2    0    0  0.10358085682E+02  0.76291173670E+02  0.20717034105E+03  0.24141227374E+03  0.97122101417E+02 0.  0.
         13    1    3    3    0    0  0.46095647752E+02  0.46152233915E+02  0.66388741161E+02  0.93071490747E+02  0.00000000000E+00 0.  1.
        -13    1    3    3    0    0 -0.35737562069E+02  0.30138939755E+02  0.14078159989E+03  0.14834078299E+03  0.00000000000E+00 0. -1.
         22    1    1    2    0    0 -0.10358085682E+02 -0.76291173670E+02  0.22472520279E+03  0.23754799491E+03  0.00000000000E+00 0. -1.
<mgrwt>
<rscale>  0 0.11002983E+03</rscale>
<asrwt>0</asrwt>
<pdfrwt beam="1">  1        1 0.70065825E-01 0.12393682E+03</pdfrwt>
<pdfrwt beam="2">  1       -1 0.36203638E-02 0.12393682E+03</pdfrwt>
<totfact> 0.13696653E+04</totfact>
</mgrwt>
</event>
<event>
 6    1  0.2866116E-002  0.9701395E+02  0.7546771E-02  0.1344232E+00
          2   -1    0    0  501    0  0.00000000000E+00  0.00000000000E+00  0.38986528251E+04  0.38986528251E+04  0.00000000000E+00 0.  1.
         -2   -1    0    0    0  501 -0.00000000000E+00 -0.00000000000E+00 -0.47841365481E+01  0.47841365481E+01  0.00000000000E+00 0. -1.
         23    2    1    2    0    0  0.10227861425E+02  0.32884557560E+02  0.38269245509E+04  0.38281540231E+04  0.90695659992E+02 0.  0.
         11    1    3    3    0    0  0.23175358423E+02 -0.44747665404E+01  0.31423080719E+04  0.31423967190E+04  0.00000000000E+00 0. -1.
        -11    1    3    3    0    0 -0.12947496997E+02  0.37359324101E+02  0.68461647901E+03  0.68575730409E+03  0.00000000000E+00 0.  1.
         22    1    1    2    0    0 -0.10227861425E+02 -0.32884557560E+02  0.66944137611E+02  0.75282938543E+02  0.00000000000E+00 0. -1.
<mgrwt>
<rscale>  0 0.74883540E+02</rscale>
<asrwt>0</asrwt>
<pdfrwt beam="1">  1        2 0.59979020E+00 0.97013948E+02</pdfrwt>
<pdfrwt beam="2">  1       -2 0.73602412E-03 0.97013948E+02</pdfrwt>
<totfact> 0.18604636E+03</totfact>
</mgrwt>
</event>
<event>
 6    1  0.2866116E-002  0.9301620E+02  0.7546771E-02  0.1417997E+00
         -2   -1    0    0    0  501 -0.00000000000E+00  0.00000000000E+00  0.11125367154E+02  0.11125367154E+02  0.00000000000E+00 0.  1.
          2   -1    0    0  501    0  0.00000000000E+00 -0.00000000000E+00 -0.43070666602E+03  0.43070666602E+03  0.00000000000E+00 0. -1.
         23    2    1    2    0    0 -0.85750671471E+01  0.80250869777E+01 -0.41990408253E+03  0.43008307633E+03  0.92271773722E+02 0.  0.
         11    1    3    3    0    0 -0.35813732679E+02 -0.20340186650E+02 -0.10592152158E+03  0.11364732894E+03  0.00000000000E+00 0.  1.
        -11    1    3    3    0    0  0.27238665532E+02  0.28365273628E+02 -0.31398256094E+03  0.31643574739E+03  0.00000000000E+00 0. -1.
         22    1    1    2    0    0  0.85750671471E+01 -0.80250869777E+01  0.32278366243E+00  0.11748956842E+02  0.00000000000E+00 0.  1.
<mgrwt>
<rscale>  0 0.55446967E+02</rscale>
<asrwt>0</asrwt>
<pdfrwt beam="1">  1        2 0.66262576E-01 0.93016203E+02</pdfrwt>
<pdfrwt beam="2">  1       -2 0.17115946E-02 0.93016203E+02</pdfrwt>
<totfact> 0.62791662E+04</totfact>
</mgrwt>
</event>
<event>
 6    1  0.2866116E-002  0.9522296E+02  0.7546771E-02  0.1394584E+00
         -1   -1    0    0    0  501 -0.00000000000E+00  0.00000000000E+00  0.83467092412E+01  0.83467092412E+01  0.00000000000E+00 0.  1.
          1   -1    0    0  501    0  0.00000000000E+00 -0.00000000000E+00 -0.51477687001E+03  0.51477687001E+03  0.00000000000E+00 0. -1.
         23    2    1    2    0    0 -0.14215026825E+02 -0.69126488796E+01 -0.49378086896E+03  0.50287867161E+03  0.93901864230E+02 0.  0.
         13    1    3    3    0    0 -0.20648207327E+02  0.18498811584E+02 -0.45629729894E+03  0.45713868740E+03  0.00000000000E+00 0. -1.
        -13    1    3    3    0    0  0.64331805019E+01 -0.25411460464E+02 -0.37483570026E+02  0.45739984217E+02  0.00000000000E+00 0.  1.
         22    1    1    2    0    0  0.14215026825E+02  0.69126488796E+01 -0.12649291807E+02  0.20244907641E+02  0.00000000000E+00 0.  1.
<mgrwt>
<rscale>  0 0.60780818E+02</rscale>
<asrwt>0</asrwt>
<pdfrwt beam="1">  1        1 0.79196450E-01 0.95222958E+02</pdfrwt>
<pdfrwt beam="2">  1       -1 0.12841090E-02 0.95222958E+02</pdfrwt>
<totfact> 0.50501331E+04</totfact>
</mgrwt>
</event>
<event>
 6    1  0.2866116E-002  0.9232941E+02  0.7546771E-02  0.1401058E+00
         -2   -1    0    0    0  501 -0.00000000000E+00  0.00000000000E+00  0.71093473209E+01  0.71093473209E+01  0.00000000000E+00 0.  1.
          2   -1    0    0  501    0  0.00000000000E+00 -0.00000000000E+00 -0.44409301983E+03  0.44409301983E+03  0.00000000000E+00 0. -1.
         23    2    1    2    0    0 -0.81052165622E+01 -0.13381881558E+02 -0.40745654227E+03  0.41778649204E+03  0.90994229482E+02 0.  0.
         11    1    3    3    0    0  0.38258993982E+02 -0.23103905149E+02 -0.21358367761E+03  0.21820982653E+03  0.00000000000E+00 0. -1.
        -11    1    3    3    0    0 -0.46364210544E+02  0.97220235913E+01 -0.19387286467E+03  0.19957666551E+03  0.00000000000E+00 0.  1.
         22    1    1    2    0    0  0.81052165622E+01  0.13381881558E+02 -0.29527130233E+02  0.33415875109E+02  0.00000000000E+00 0. -1.
<mgrwt>
<rscale>  0 0.59237899E+02</rscale>
<asrwt>0</asrwt>
<pdfrwt beam="1">  1        2 0.68321992E-01 0.92329405E+02</pdfrwt>
<pdfrwt beam="2">  1       -2 0.10937459E-02 0.92329405E+02</pdfrwt>
<totfact> 0.11492374E+05</totfact>
</mgrwt>
</event>
<event>
 6    1  0.2866116E-002  0.9317024E+02  0.7546771E-02  0.1367114E+00
          2   -1    0    0  501    0  0.00000000000E+00  0.00000000000E+00  0.81947735661E+02  0.81947735661E+02  0.00000000000E+00 0. -1.
         -2   -1    0    0    0  501 -0.00000000000E+00 -0.00000000000E+00 -0.78392207633E+02  0.78392207633E+02  0.00000000000E+00 0.  1.
         23    2    1    2    0    0 -0.16746319289E+02 -0.20407745119E+02  0.50874466197E+02  0.10615510058E+03  0.89351993810E+02 0.  0.
         13    1    3    3    0    0 -0.57328078864E+01 -0.49824654385E+02  0.55046797995E+02  0.74468189452E+02  0.00000000000E+00 0. -1.
        -13    1    3    3    0    0 -0.11013511403E+02  0.29416909266E+02 -0.41723317982E+01  0.31686911128E+02  0.00000000000E+00 0.  1.
         22    1    1    2    0    0  0.16746319289E+02  0.20407745119E+02 -0.47318938169E+02  0.54184842715E+02  0.00000000000E+00 0.  1.
<mgrwt>
<rscale>  0 0.67975970E+02</rscale>
<asrwt>0</asrwt>
<pdfrwt beam="1">  1        2 0.12607344E-01 0.93170242E+02</pdfrwt>
<pdfrwt beam="2">  1       -2 0.12060340E-01 0.93170242E+02</pdfrwt>
<totfact> 0.20931044E+04</totfact>
</mgrwt>
</event>
<event>
 6    1  0.2866116E-002  0.1098450E+03  0.7546771E-02  0.1359469E+00
         -2   -1    0    0    0  501 -0.00000000000E+00  0.00000000000E+00  0.47229571802E+01  0.47229571802E+01  0.00000000000E+00 0. -1.
          2   -1    0    0  501    0  0.00000000000E+00 -0.00000000000E+00 -0.10323861132E+04  0.10323861132E+04  0.00000000000E+00 0.  1.
         23    2    1    2    0    0 -0.17742356757E+02 -0.45096424491E+01 -0.97853484963E+03  0.98468084719E+03  0.10830877520E+03 0.  0.
         13    1    3    3    0    0 -0.62238783593E+02 -0.81468560616E+01 -0.66979548118E+03  0.67273027586E+03  0.00000000000E+00 0.  1.
        -13    1    3    3    0    0  0.44496426836E+02  0.36372136125E+01 -0.30873936844E+03  0.31195057133E+03  0.00000000000E+00 0. -1.
         22    1    1    2    0    0  0.17742356757E+02  0.45096424491E+01 -0.49128306428E+02  0.52428223228E+02  0.00000000000E+00 0. -1.
<mgrwt>
<rscale>  0 0.70183740E+02</rscale>
<asrwt>0</asrwt>
<pdfrwt beam="1">  1        2 0.15882864E+00 0.10984498E+03</pdfrwt>
<pdfrwt beam="2">  1       -2 0.72660875E-03 0.10984498E+03</pdfrwt>
<totfact> 0.77485583E+04</totfact>
</mgrwt>
</event>
<event>
 6    1  0.2866116E-002  0.9450977E+02  0.7546771E-02  0.1380819E+00
          2   -1    0    0  501    0  0.00000000000E+00  0.00000000000E+00  0.11206069728E+03  0.11206069728E+03  0.00000000000E+00 0.  1.
         -2   -1    0    0    0  501 -0.00000000000E+00 -0.00000000000E+00 -0.46501184294E+02  0.46501184294E+02  0.00000000000E+00 0. -1.
         23    2    1    2    0    0  0.17159665392E+02 -0.10629618442E+02  0.87466722205E+02  0.12877314679E+03  0.92329047089E+02 0.  0.
         11    1    3    3    0    0 -0.20662108771E+02  0.31489881138E+02  0.30517967944E+02  0.48475578598E+02  0.00000000000E+00 0. -1.
        -11    1    3    3    0    0  0.37821774163E+02 -0.42119499581E+02  0.56948754261E+02  0.80297568193E+02  0.00000000000E+00 0.  1.
         22    1    1    2    0    0 -0.17159665392E+02  0.10629618442E+02 -0.21907209216E+02  0.29788734787E+02  0.00000000000E+00 0. -1.
<mgrwt>
<rscale>  0 0.64248924E+02</rscale>
<asrwt>0</asrwt>
<pdfrwt beam="1">  1        2 0.17240107E-01 0.94509766E+02</pdfrwt>
<pdfrwt beam="2">  1       -2 0.71540283E-02 0.94509766E+02</pdfrwt>
<totfact> 0.32733095E+04</totfact>
</mgrwt>
</event>
<event>
 6    1  0.2866116E-002  0.1043723E+03  0.7546771E-02  0.1384835E+00
         -4   -1    0    0    0  501 -0.00000000000E+00  0.00000000000E+00  0.54741395664E+02  0.54741395664E+02  0.00000000000E+00 0.  1.
          4   -1    0    0  501    0  0.00000000000E+00 -0.00000000000E+00 -0.71861707479E+02  0.71861707479E+02  0.00000000000E+00 0. -1.
         23    2    1    2    0    0  0.13728514545E+02  0.29429774239E+01 -0.28873798651E+02  0.10829251384E+03  0.10342359053E+03 0.  0.
         11    1    3    3    0    0 -0.27680737497E+02 -0.34979550523E+02 -0.26935927686E+02  0.52108889678E+02  0.00000000000E+00 0. -1.
        -11    1    3    3    0    0  0.41409252042E+02  0.37922527947E+02 -0.19378709646E+01  0.56183624166E+02  0.00000000000E+00 0.  1.
         22    1    1    2    0    0 -0.13728514545E+02 -0.29429774239E+01  0.11753486835E+02  0.18310589300E+02  0.00000000000E+00 0.  1.
<mgrwt>
<rscale>  0 0.63209717E+02</rscale>
<asrwt>0</asrwt>
<pdfrwt beam="1">  1        4 0.11055647E-01 0.10437228E+03</pdfrwt>
<pdfrwt beam="2">  1       -4 0.84217531E-02 0.10437228E+03</pdfrwt>
<totfact> 0.98064387E+03</totfact>
</mgrwt>
</event>
<event>
 6    1  0.2866116E-002  0.9182827E+02  0.7546771E-02  0.1401637E+00
         -2   -1    0    0    0  501 -0.00000000000E+00  0.00000000000E+00  0.95359305442E+01  0.95359305442E+01  0.00000000000E+00 0. -1.
          2   -1    0    0  501    0  0.00000000000E+00 -0.00000000000E+00 -0.78480678373E+03  0.78480678373E+03  0.00000000000E+00 0.  1.
         23    2    1    2    0    0  0.15671993637E+02  0.16420429378E+01 -0.77298458846E+03  0.77841994140E+03  0.90466145475E+02 0.  0.
         11    1    3    3    0    0 -0.70560296107E+01 -0.61368399411E+01 -0.72198862767E+03  0.72204918589E+03  0.00000000000E+00 0.  1.
        -11    1    3    3    0    0  0.22728023248E+02  0.77788828789E+01 -0.50995960796E+02  0.56370755513E+02  0.00000000000E+00 0. -1.
         22    1    1    2    0    0 -0.15671993637E+02 -0.16420429378E+01 -0.22862647206E+01  0.15922772873E+02  0.00000000000E+00 0. -1.
<mgrwt>
<rscale>  0 0.59102530E+02</rscale>
<asrwt>0</asrwt>
<pdfrwt beam="1">  1        2 0.12073957E+00 0.91828270E+02</pdfrwt>
<pdfrwt beam="2">  1       -2 0.14670654E-02 0.91828270E+02</pdfrwt>
<totfact> 0.39898472E+04</totfact>
</mgrwt>
</event>
<event>
 6    1  0.2866116E-002  0.9646102E+02  0.7546771E-02  0.1347397E+00
         -2   -1    0    0    0  501 -0.00000000000E+00  0.00000000000E+00  0.87290985750E+01  0.87290985750E+01  0.00000000000E+00 0.  1.
          2   -1    0    0  501    0  0.00000000000E+00 -0.00000000000E+00 -0.83719655723E+03  0.83719655723E+03  0.00000000000E+00 0. -1.
         23    2    1    2    0    0  0.32711816446E+02 -0.55589637978E+01 -0.78665631587E+03  0.79254835094E+03  0.90574633678E+02 0.  0.
         13    1    3    3    0    0  0.26934108314E+02  0.41050382517E+02 -0.36606453235E+03  0.36934241827E+03  0.00000000000E+00 0.  1.
        -13    1    3    3    0    0  0.57777081327E+01 -0.46609346314E+02 -0.42059178352E+03  0.42320593266E+03  0.00000000000E+00 0. -1.
         22    1    1    2    0    0 -0.32711816446E+02  0.55589637978E+01 -0.41811142788E+02  0.53377304868E+02  0.00000000000E+00 0.  1.
<mgrwt>
<rscale>  0 0.73872976E+02</rscale>
<asrwt>0</asrwt>
<pdfrwt beam="1">  1        2 0.12879946E+00 0.96461025E+02</pdfrwt>
<pdfrwt beam="2">  1       -2 0.13429383E-02 0.96461025E+02</pdfrwt>
<totfact> 0.42024155E+04</totfact>
</mgrwt>
</event>
<event>
 6    1  0.2866116E-002  0.9321766E+02  0.7546771E-02  0.1383643E+00
          2   -1    0    0  501    0  0.00000000000E+00  0.00000000000E+00  0.22609247062E+03  0.22609247062E+03  0.00000000000E+00 0. -1.
         -2   -1    0    0    0  501 -0.00000000000E+00 -0.00000000000E+00 -0.18091093374E+02  0.18091093374E+02  0.00000000000E+00 0.  1.
         23    2    1    2    0    0 -0.72983338981E+01  0.18720058994E+02  0.11019438598E+03  0.14433410818E+03  0.91026511498E+02 0.  0.
         11    1    3    3    0    0  0.23144094103E+02  0.23750186650E+02  0.35918543443E+01  0.33355987099E+02  0.00000000000E+00 0.  1.
        -11    1    3    3    0    0 -0.30442428001E+02 -0.50301276555E+01  0.10660253164E+03  0.11097812108E+03  0.00000000000E+00 0. -1.
         22    1    1    2    0    0  0.72983338981E+01 -0.18720058994E+02  0.97806991268E+02  0.99849455819E+02  0.00000000000E+00 0. -1.
<mgrwt>
<rscale>  0 0.63515809E+02</rscale>
<asrwt>0</asrwt>
<pdfrwt beam="1">  1        2 0.34783455E-01 0.93217660E+02</pdfrwt>
<pdfrwt beam="2">  1       -2 0.27832453E-02 0.93217660E+02</pdfrwt>
<totfact> 0.61336949E+04</totfact>
</mgrwt>
</event>
<event>
 6    1  0.2866116E-002  0.9372959E+02  0.7546771E-02  0.1373310E+00
         -2   -1    0    0    0  501 -0.00000000000E+00  0.00000000000E+00  0.13201204086E+03  0.13201204086E+03  0.00000000000E+00 0. -1.
          2   -1    0    0  501    0  0.00000000000E+00 -0.00000000000E+00 -0.26006353761E+02  0.26006353761E+02  0.00000000000E+00 0.  1.
         23    2    1    2    0    0  0.82395085988E+01 -0.21903915700E+02  0.82874007528E+02  0.12511329434E+03  0.90761028370E+02 0.  0.
         11    1    3    3    0    0 -0.33563869365E+02  0.13720980990E+02  0.19220345897E+02  0.41039253678E+02  0.00000000000E+00 0. -1.
        -11    1    3    3    0    0  0.41803377963E+02 -0.35624896690E+02  0.63653661632E+02  0.84074040657E+02  0.00000000000E+00 0.  1.
         22    1    1    2    0    0 -0.82395085988E+01  0.21903915700E+02  0.23131679569E+02  0.32905100283E+02  0.00000000000E+00 0.  1.
<mgrwt>
<rscale>  0 0.66255585E+02</rscale>
<asrwt>0</asrwt>
<pdfrwt beam="1">  1        2 0.40009776E-02 0.93729586E+02</pdfrwt>
<pdfrwt beam="2">  1       -2 0.20309544E-01 0.93729586E+02</pdfrwt>
<totfact> 0.37712901E+04</totfact>
</mgrwt>
</event>
<event>
 6    1  0.2866116E-002  0.9430948E+02  0.7546771E-02  0.1398000E+00
         -2   -1    0    0    0  501 -0.00000000000E+00  0.00000000000E+00  0.21053854162E+02  0.21053854162E+02  0.00000000000E+00 0.  1.
          2   -1    0    0  501    0  0.00000000000E+00 -0.00000000000E+00 -0.15528910531E+03  0.15528910531E+03  0.00000000000E+00 0. -1.
         23    2    1    2    0    0 -0.14249843049E+02  0.58634643386E+01 -0.12954116804E+03  0.16023480448E+03  0.93042141576E+02 0.  0.
         11    1    3    3    0    0  0.25061565119E+02  0.19795156709E+02 -0.10931017355E+03  0.11387995573E+03  0.00000000000E+00 0. -1.
        -11    1    3    3    0    0 -0.39311408169E+02 -0.13931692370E+02 -0.20230994483E+02  0.46354848746E+02  0.00000000000E+00 0.  1.
         22    1    1    2    0    0  0.14249843049E+02 -0.58634643386E+01 -0.46940831087E+01  0.16108154991E+02  0.00000000000E+00 0. -1.
<mgrwt>
<rscale>  0 0.59959824E+02</rscale>
<asrwt>0</asrwt>
<pdfrwt beam="1">  1        2 0.23890631E-01 0.94309482E+02</pdfrwt>
<pdfrwt beam="2">  1       -2 0.32390545E-02 0.94309482E+02</pdfrwt>
<totfact> 0.73790507E+04</totfact>
</mgrwt>
</event>
<event>
 6    1  0.2866116E-002  0.9310765E+02  0.7546771E-02  0.1388621E+00
         -2   -1    0    0    0  501 -0.00000000000E+00  0.00000000000E+00  0.21283352737E+02  0.21283352737E+02  0.00000000000E+00 0.  1.
          2   -1    0    0  501    0  0.00000000000E+00 -0.00000000000E+00 -0.15458316645E+03  0.15458316645E+03  0.00000000000E+00 0. -1.
         23    2    1    2    0    0 -0.27912556687E+01  0.18394399196E+02 -0.12400597750E+03  0.15506939387E+03  0.91229871366E+02 0.  0.
         13    1    3    3    0    0 -0.23877898159E+02  0.45421617045E+02 -0.10242832358E+03  0.11456368878E+03  0.00000000000E+00 0. -1.
        -13    1    3    3    0    0  0.21086642490E+02 -0.27027217849E+02 -0.21577653919E+02  0.40505705089E+02  0.00000000000E+00 0.  1.
         22    1    1    2    0    0  0.27912556687E+01 -0.18394399196E+02 -0.92938362199E+01  0.20797125323E+02  0.00000000000E+00 0.  1.
<mgrwt>
<rscale>  0 0.62250993E+02</rscale>
<asrwt>0</asrwt>
<pdfrwt beam="1">  1        2 0.23782025E-01 0.93107650E+02</pdfrwt>
<pdfrwt beam="2">  1       -2 0.32743621E-02 0.93107650E+02</pdfrwt>
<totfact> 0.72862195E+04</totfact>
</mgrwt>
</event>
<event>
 6    1  0.2866116E-002  0.9639887E+02  0.7546771E-02  0.1361829E+00
         -2   -1    0    0    0  501 -0.00000000000E+00  0.00000000000E+00  0.15781236802E+02  0.15781236802E+02  0.00000000000E+00 0.  1.
          2   -1    0    0  501    0  0.00000000000E+00 -0.00000000000E+00 -0.24290646621E+03  0.24290646621E+03  0.00000000000E+00 0. -1.
         23    2    1    2    0    0  0.25912271178E+02  0.25027274726E+01 -0.19330706659E+03  0.21601010258E+03  0.92817201964E+02 0.  0.
         11    1    3    3    0    0  0.59319208788E+02  0.12825887935E+02 -0.10934564918E+03  0.12505895780E+03  0.00000000000E+00 0. -1.
        -11    1    3    3    0    0 -0.33406937610E+02 -0.10323160463E+02 -0.83961417414E+02  0.90951144779E+02  0.00000000000E+00 0.  1.
         22    1    1    2    0    0 -0.25912271178E+02 -0.25027274726E+01 -0.33818162818E+02  0.42677600433E+02  0.00000000000E+00 0.  1.
<mgrwt>
<rscale>  0 0.69491935E+02</rscale>
<asrwt>0</asrwt>
<pdfrwt beam="1">  1        2 0.37370221E-01 0.96398871E+02</pdfrwt>
<pdfrwt beam="2">  1       -2 0.24278829E-02 0.96398871E+02</pdfrwt>
<totfact> 0.69621889E+04</totfact>
</mgrwt>
</event>
<event>
 6    1  0.2866116E-002  0.1069275E+03  0.7546771E-02  0.1300679E+00
          2   -1    0    0  501    0  0.00000000000E+00  0.00000000000E+00  0.54243275077E+03  0.54243275077E+03  0.00000000000E+00 0. -1.
         -2   -1    0    0    0  501 -0.00000000000E+00 -0.00000000000E+00 -0.12870351672E+02  0.12870351672E+02  0.00000000000E+00 0.  1.
         23    2    1    2    0    0  0.37381759642E+02 -0.41499054304E+02  0.28383677857E+03  0.30330975323E+03  0.91180711089E+02 0.  0.
         11    1    3    3    0    0  0.56923421949E+02  0.30444247394E+01  0.17621983648E+03  0.18521062404E+03  0.00000000000E+00 0.  1.
        -11    1    3    3    0    0 -0.19541662307E+02 -0.44543479044E+02  0.10761694208E+03  0.11809912918E+03  0.00000000000E+00 0. -1.
         22    1    1    2    0    0 -0.37381759642E+02  0.41499054304E+02  0.24572562053E+03  0.25199334922E+03  0.00000000000E+00 0. -1.
<mgrwt>
<rscale>  0 0.90903132E+02</rscale>
<asrwt>0</asrwt>
<pdfrwt beam="1">  1        2 0.83451175E-01 0.10692750E+03</pdfrwt>
<pdfrwt beam="2">  1       -2 0.19800545E-02 0.10692750E+03</pdfrwt>
<totfact> 0.40378281E+04</totfact>
</mgrwt>
</event>
<event>
 6    1  0.2866116E-002  0.1014944E+03  0.7546771E-02  0.1323950E+00
          2   -1    0    0  501    0  0.00000000000E+00  0.00000000000E+00  0.15832872982E+02  0.15832872982E+02  0.00000000000E+00 0. -1.
         -2   -1    0    0    0  501 -0.00000000000E+00 -0.00000000000E+00 -0.34298080955E+03  0.34298080955E+03  0.00000000000E+00 0.  1.
         23    2    1    2    0    0  0.42725762777E+02  0.35952276330E+01 -0.19419997097E+03  0.21912267343E+03  0.91992938971E+02 0.  0.
         13    1    3    3    0    0 -0.84571524770E+01 -0.30529197275E+02 -0.29413640931E+02  0.43228666265E+02  0.00000000000E+00 0. -1.
        -13    1    3    3    0    0  0.51182915254E+02  0.34124424908E+02 -0.16478633004E+03  0.17589400717E+03  0.00000000000E+00 0.  1.
         22    1    1    2    0    0 -0.42725762777E+02 -0.35952276330E+01 -0.13294796560E+03  0.13969100910E+03  0.00000000000E+00 0.  1.
<mgrwt>
<rscale>  0 0.81825207E+02</rscale>
<asrwt>0</asrwt>
<pdfrwt beam="1">  1        2 0.24358266E-02 0.10149442E+03</pdfrwt>
<pdfrwt beam="2">  1       -2 0.52766279E-01 0.10149442E+03</pdfrwt>
<totfact> 0.12960640E+04</totfact>
</mgrwt>
</event>
<event>
 6    1  0.2866116E-002  0.1158518E+03  0.7546771E-02  0.1273469E+00
         -4   -1    0    0    0  501 -0.00000000000E+00  0.00000000000E+00  0.21219503190E+02  0.21219503190E+02  0.00000000000E+00 0.  1.
          4   -1    0    0  501    0  0.00000000000E+00 -0.00000000000E+00 -0.45108432136E+03  0.45108432136E+03  0.00000000000E+00 0. -1.
         23    2    1    2    0    0 -0.73235231093E+02  0.26371399973E+01 -0.31920829798E+03  0.33958148642E+03  0.89729007760E+02 0.  0.
         13    1    3    3    0    0 -0.70373113347E+02  0.32522003526E+02 -0.27793459212E+03  0.28854409246E+03  0.00000000000E+00 0. -1.
        -13    1    3    3    0    0 -0.28621177458E+01 -0.29884863529E+02 -0.41273705860E+02  0.51037393954E+02  0.00000000000E+00 0.  1.
         22    1    1    2    0    0  0.73235231093E+02 -0.26371399973E+01 -0.11065652019E+03  0.13272233814E+03  0.00000000000E+00 0.  1.
<mgrwt>
<rscale>  0 0.10331837E+03</rscale>
<asrwt>0</asrwt>
<pdfrwt beam="1">  1        4 0.69397584E-01 0.11585184E+03</pdfrwt>
<pdfrwt beam="2">  1       -4 0.32645391E-02 0.11585184E+03</pdfrwt>
<totfact> 0.14601299E+03</totfact>
</mgrwt>
</event>
<event>
 6    1  0.2866116E-002  0.9094705E+02  0.7546771E-02  0.1385942E+00
         -2   -1    0    0    0  501 -0.00000000000E+00  0.00000000000E+00  0.17859532128E+02  0.17859532128E+02  0.00000000000E+00 0.  1.
          2   -1    0    0  501    0  0.00000000000E+00 -0.00000000000E+00 -0.32265982008E+03  0.32265982008E+03  0.00000000000E+00 0. -1.
         23    2    1    2    0    0  0.66578525455E+01  0.19752719282E+02 -0.30640066942E+03  0.31961341668E+03  0.88526092093E+02 0.  0.
         11    1    3    3    0    0  0.40725480639E+01  0.55163051002E+02 -0.17820694168E+03  0.18659384209E+03  0.00000000000E+00 0. -1.
        -11    1    3    3    0    0  0.25853044816E+01 -0.35410331720E+02 -0.12819372774E+03  0.13301957458E+03  0.00000000000E+00 0.  1.
         22    1    1    2    0    0 -0.66578525455E+01 -0.19752719282E+02  0.16003814663E+01  0.20905935530E+02  0.00000000000E+00 0.  1.
<mgrwt>
<rscale>  0 0.62927402E+02</rscale>
<asrwt>0</asrwt>
<pdfrwt beam="1">  1        2 0.49639970E-01 0.90947050E+02</pdfrwt>
<pdfrwt beam="2">  1       -2 0.27476204E-02 0.90947050E+02</pdfrwt>
<totfact> 0.42895966E+04</totfact>
</mgrwt>
</event>
<event>
 6    1  0.2866116E-002  0.1287417E+03  0.7546771E-02  0.1246328E+00
          4   -1    0    0  501    0  0.00000000000E+00  0.00000000000E+00  0.72445453043E+02  0.72445453043E+02  0.00000000000E+00 0. -1.
         -4   -1    0    0    0  501 -0.00000000000E+00 -0.00000000000E+00 -0.16723017733E+03  0.16723017733E+03  0.00000000000E+00 0.  1.
         23    2    1    2    0    0 -0.58181409011E+02  0.70038042638E+02 -0.48899763829E+02  0.13771567074E+03  0.91016566045E+02 0.  0.
         13    1    3    3    0    0  0.22044082501E+02  0.71063348151E+01 -0.22721348620E+02  0.32445357926E+02  0.00000000000E+00 0. -1.
        -13    1    3    3    0    0 -0.80225491512E+02  0.62931707823E+02 -0.26178415209E+02  0.10527031282E+03  0.00000000000E+00 0.  1.
         22    1    1    2    0    0  0.58181409011E+02 -0.70038042638E+02 -0.45884960455E+02  0.10195995963E+03  0.00000000000E+00 0.  1.
<mgrwt>
<rscale>  0 0.11806232E+03</rscale>
<asrwt>0</asrwt>
<pdfrwt beam="1">  1        4 0.11145454E-01 0.12874168E+03</pdfrwt>
<pdfrwt beam="2">  1       -4 0.25727719E-01 0.12874168E+03</pdfrwt>
<totfact> 0.14581011E+03</totfact>
</mgrwt>
</event>
<event>
 6    1  0.2866116E-002  0.9448551E+02  0.7546771E-02  0.1376784E+00
         -2   -1    0    0    0  501 -0.00000000000E+00  0.00000000000E+00  0.35098464947E+02  0.35098464947E+02  0.00000000000E+00 0.  1.
          2   -1    0    0  501    0  0.00000000000E+00 -0.00000000000E+00 -0.98786871464E+02  0.98786871464E+02  0.00000000000E+00 0. -1.
         23    2    1    2    0    0 -0.15424636507E+02  0.15088763939E+02 -0.42362635157E+02  0.10354759205E+03  0.91988699057E+02 0.  0.
         11    1    3    3    0    0 -0.28118280366E+02 -0.74324542576E+01  0.20495984807E+02  0.35580394324E+02  0.00000000000E+00 0.  1.
        -11    1    3    3    0    0  0.12693643859E+02  0.22521218197E+02 -0.62858619965E+02  0.67967197731E+02  0.00000000000E+00 0. -1.
         22    1    1    2    0    0  0.15424636507E+02 -0.15088763939E+02 -0.21325771360E+02  0.30337744357E+02  0.00000000000E+00 0. -1.
<mgrwt>
<rscale>  0 0.65316721E+02</rscale>
<asrwt>0</asrwt>
<pdfrwt beam="1">  1        2 0.15197980E-01 0.94485507E+02</pdfrwt>
<pdfrwt beam="2">  1       -2 0.53997640E-02 0.94485507E+02</pdfrwt>
<totfact> 0.57769576E+04</totfact>
</mgrwt>
</event>
<event>
 6    1  0.2866116E-002  0.9576375E+02  0.7546771E-02  0.1355653E+00
         -2   -1    0    0    0  501 -0.00000000000E+00  0.00000000000E+00  0.18016053018E+02  0.18016053018E+02  0.00000000000E+00 0.  1.
          2   -1    0    0  501    0  0.00000000000E+00 -0.00000000000E+00 -0.87982773353E+03  0.87982773353E+03  0.00000000000E+00 0. -1.
         23    2    1    2    0    0  0.29408356143E+02 -0.18201469992E+01 -0.86305621930E+03  0.86835288587E+03  0.91118232918E+02 0.  0.
         13    1    3    3    0    0  0.40254371241E+02 -0.28555930033E+02 -0.75173887892E+03  0.75335728418E+03  0.00000000000E+00 0. -1.
        -13    1    3    3    0    0 -0.10846015098E+02  0.26735783034E+02 -0.11131734038E+03  0.11499560169E+03  0.00000000000E+00 0.  1.
         22    1    1    2    0    0 -0.29408356143E+02  0.18201469992E+01  0.12445387916E+01  0.29490900680E+02  0.00000000000E+00 0.  1.
<mgrwt>
<rscale>  0 0.71322428E+02</rscale>
<asrwt>0</asrwt>
<pdfrwt beam="1">  1        2 0.13535806E+00 0.95763755E+02</pdfrwt>
<pdfrwt beam="2">  1       -2 0.27717015E-02 0.95763755E+02</pdfrwt>
<totfact> 0.13917962E+04</totfact>
</mgrwt>
</event>
<event>
 6    1  0.2866116E-002  0.9126570E+02  0.7546771E-02  0.1430907E+00
         -2   -1    0    0    0  501 -0.00000000000E+00  0.00000000000E+00  0.15379506163E+02  0.15379506163E+02  0.00000000000E+00 0.  1.
          2   -1    0    0  501    0  0.00000000000E+00 -0.00000000000E+00 -0.56244599490E+03  0.56244599490E+03  0.00000000000E+00 0. -1.
         23    2    1    2    0    0  0.90912253550E+01 -0.46406268968E+01 -0.55649554633E+03  0.56392971308E+03  0.90693122168E+02 0.  0.
         11    1    3    3    0    0  0.14989008846E+01  0.25145581705E+02 -0.49028595085E+03  0.49093264363E+03  0.00000000000E+00 0. -1.
        -11    1    3    3    0    0  0.75923244704E+01 -0.29786208602E+02 -0.66209595480E+02  0.72997069444E+02  0.00000000000E+00 0.  1.
         22    1    1    2    0    0 -0.90912253550E+01  0.46406268968E+01  0.94290575986E+01  0.13895787982E+02  0.00000000000E+00 0.  1.
<mgrwt>
<rscale>  0 0.52778466E+02</rscale>
<asrwt>0</asrwt>
<pdfrwt beam="1">  1        2 0.86530143E-01 0.91265701E+02</pdfrwt>
<pdfrwt beam="2">  1       -2 0.23660782E-02 0.91265701E+02</pdfrwt>
<totfact> 0.29488548E+04</totfact>
</mgrwt>
</event>
<event>
 6    1  0.2866116E-002  0.9338688E+02  0.7546771E-02  0.1406743E+00
          2   -1    0    0  501    0  0.00000000000E+00  0.00000000000E+00  0.17348686325E+03  0.17348686325E+03  0.00000000000E+00 0. -1.
         -2   -1    0    0    0  501 -0.00000000000E+00 -0.00000000000E+00 -0.39026115054E+02  0.39026115054E+02  0.00000000000E+00 0.  1.
         23    2    1    2    0    0 -0.13619803625E+02 -0.23735983719E+01  0.15897152854E+03  0.18437205840E+03  0.92357869242E+02 0.  0.
         11    1    3    3    0    0 -0.17601961422E+02 -0.66711823258E+01 -0.56444827439E+01  0.19651816836E+02  0.00000000000E+00 0.  1.
        -11    1    3    3    0    0  0.39821577973E+01  0.42975839539E+01  0.16461601128E+03  0.16472024156E+03  0.00000000000E+00 0. -1.
         22    1    1    2    0    0  0.13619803625E+02  0.23735983719E+01 -0.24510780345E+02  0.28140919906E+02  0.00000000000E+00 0. -1.
<mgrwt>
<rscale>  0 0.57927043E+02</rscale>
<asrwt>0</asrwt>
<pdfrwt beam="1">  1        2 0.26690286E-01 0.93386878E+02</pdfrwt>
<pdfrwt beam="2">  1       -2 0.60040178E-02 0.93386878E+02</pdfrwt>
<totfact> 0.26222505E+04</totfact>
</mgrwt>
</event>
<event>
 6    1  0.2866116E-002  0.9195860E+02  0.7546771E-02  0.1407692E+00
         -4   -1    0    0    0  501 -0.00000000000E+00  0.00000000000E+00  0.21214715562E+02  0.21214715562E+02  0.00000000000E+00 0.  1.
          4   -1    0    0  501    0  0.00000000000E+00 -0.00000000000E+00 -0.20276560177E+03  0.20276560177E+03  0.00000000000E+00 0. -1.
         23    2    1    2    0    0 -0.13607652299E+02 -0.42822649529E+01 -0.18725514852E+03  0.20861657422E+03  0.90845354301E+02 0.  0.
         13    1    3    3    0    0 -0.37646798128E+02  0.15388258445E+02 -0.16616999104E+03  0.17107467911E+03  0.00000000000E+00 0. -1.
        -13    1    3    3    0    0  0.24039145830E+02 -0.19670523398E+02 -0.21085157472E+02  0.37541895112E+02  0.00000000000E+00 0.  1.
         22    1    1    2    0    0  0.13607652299E+02  0.42822649529E+01  0.57042623034E+01  0.15363743119E+02  0.00000000000E+00 0.  1.
<mgrwt>
<rscale>  0 0.57712039E+02</rscale>
<asrwt>0</asrwt>
<pdfrwt beam="1">  1        4 0.31194708E-01 0.91958602E+02</pdfrwt>
<pdfrwt beam="2">  1       -4 0.32638024E-02 0.91958602E+02</pdfrwt>
<totfact> 0.68420653E+03</totfact>
</mgrwt>
</event>
<event>
 6    1  0.2866116E-002  0.9199865E+02  0.7546771E-02  0.1418315E+00
         -2   -1    0    0    0  501 -0.00000000000E+00  0.00000000000E+00  0.64021509742E+01  0.64021509742E+01  0.00000000000E+00 0.  1.
          2   -1    0    0  501    0  0.00000000000E+00 -0.00000000000E+00 -0.42466259653E+03  0.42466259653E+03  0.00000000000E+00 0. -1.
         23    2    1    2    0    0  0.79557053154E+00  0.12052923563E+02 -0.37777415278E+03  0.38881494512E+03  0.91202221136E+02 0.  0.
         13    1    3    3    0    0 -0.48756099558E+01  0.30090545546E+01  0.39388310467E+01  0.69527240538E+01  0.00000000000E+00 0.  1.
        -13    1    3    3    0    0  0.56711804874E+01  0.90438690089E+01 -0.38171298382E+03  0.38186222106E+03  0.00000000000E+00 0. -1.
         22    1    1    2    0    0 -0.79557053154E+00 -0.12052923563E+02 -0.40486292781E+02  0.42249802390E+02  0.00000000000E+00 0.  1.
<mgrwt>
<rscale>  0 0.55379010E+02</rscale>
<asrwt>0</asrwt>
<pdfrwt beam="1">  1        2 0.65332705E-01 0.91998647E+02</pdfrwt>
<pdfrwt beam="2">  1       -2 0.98494634E-03 0.91998647E+02</pdfrwt>
<totfact> 0.13972581E+05</totfact>
</mgrwt>
</event>
<event>
 6    1  0.2866116E-002  0.9025581E+02  0.7546771E-02  0.1430608E+00
         -2   -1    0    0    0  501 -0.00000000000E+00  0.00000000000E+00  0.23286640404E+01  0.23286640404E+01  0.00000000000E+00 0.  1.
          2   -1    0    0  501    0  0.00000000000E+00 -0.00000000000E+00 -0.12187348504E+04  0.12187348504E+04  0.00000000000E+00 0. -1.
         23    2    1    2    0    0  0.80032491706E+01 -0.69526359962E+01 -0.11693443874E+04  0.11728224109E+04  0.89631022194E+02 0.  0.
         11    1    3    3    0    0 -0.12369542253E+02  0.21338455680E+02 -0.10313572868E+03  0.10604392391E+03  0.00000000000E+00 0.  1.
        -11    1    3    3    0    0  0.20372791424E+02 -0.28291091676E+02 -0.10662086587E+04  0.10667784870E+04  0.00000000000E+00 0. -1.
         22    1    1    2    0    0 -0.80032491706E+01  0.69526359962E+01 -0.47061798958E+02  0.48241103488E+02  0.00000000000E+00 0. -1.
<mgrwt>
<rscale>  0 0.52838185E+02</rscale>
<asrwt>0</asrwt>
<pdfrwt beam="1">  1        2 0.18749808E+00 0.90255810E+02</pdfrwt>
<pdfrwt beam="2">  1       -2 0.35825523E-03 0.90255810E+02</pdfrwt>
<totfact> 0.16061180E+05</totfact>
</mgrwt>
</event>
<event>
 6    1  0.2866116E-002  0.9563535E+02  0.7546771E-02  0.1383935E+00
          1   -1    0    0  501    0  0.00000000000E+00  0.00000000000E+00  0.57919110342E+03  0.57919110342E+03  0.00000000000E+00 0. -1.
         -1   -1    0    0    0  501 -0.00000000000E+00 -0.00000000000E+00 -0.56262368385E+01  0.56262368385E+01  0.00000000000E+00 0.  1.
         23    2    1    2    0    0  0.43333700362E+01 -0.18004793048E+02  0.47694919893E+03  0.48644286235E+03  0.93825206101E+02 0.  0.
         11    1    3    3    0    0  0.29974381399E+02 -0.47656088508E+02  0.26828462884E+03  0.27412808755E+03  0.00000000000E+00 0. -1.
        -11    1    3    3    0    0 -0.25641011363E+02  0.29651295460E+02  0.20866457010E+03  0.21231477480E+03  0.00000000000E+00 0.  1.
         22    1    1    2    0    0 -0.43333700362E+01  0.18004793048E+02  0.96615667650E+02  0.98374477910E+02  0.00000000000E+00 0. -1.
<mgrwt>
<rscale>  0 0.63440675E+02</rscale>
<asrwt>0</asrwt>
<pdfrwt beam="1">  1        1 0.89106277E-01 0.95635349E+02</pdfrwt>
<pdfrwt beam="2">  1       -1 0.86557535E-03 0.95635349E+02</pdfrwt>
<totfact> 0.75600901E+04</totfact>
</mgrwt>
</event>
<event>
 6    1  0.2866116E-002  0.1079196E+03  0.7546771E-02  0.1298924E+00
          2   -1    0    0  501    0  0.00000000000E+00  0.00000000000E+00  0.67386577767E+03  0.67386577767E+03  0.00000000000E+00 0. -1.
         -2   -1    0    0    0  501 -0.00000000000E+00 -0.00000000000E+00 -0.12433968120E+02  0.12433968120E+02  0.00000000000E+00 0.  1.
         23    2    1    2    0    0 -0.50488920452E+02  0.24487751303E+02  0.56071382129E+03  0.57100493146E+03  0.92183845184E+02 0.  0.
         13    1    3    3    0    0 -0.16950351078E+02  0.57461184976E+02  0.35157414236E+03  0.35664194896E+03  0.00000000000E+00 0. -1.
        -13    1    3    3    0    0 -0.33538569374E+02 -0.32973433672E+02  0.20913967893E+03  0.21436298250E+03  0.00000000000E+00 0.  1.
         22    1    1    2    0    0  0.50488920452E+02 -0.24487751303E+02  0.10071798826E+03  0.11529481433E+03  0.00000000000E+00 0.  1.
<mgrwt>
<rscale>  0 0.91641689E+02</rscale>
<asrwt>0</asrwt>
<pdfrwt beam="1">  1        2 0.10367163E+00 0.10791961E+03</pdfrwt>
<pdfrwt beam="2">  1       -2 0.19129187E-02 0.10791961E+03</pdfrwt>
<totfact> 0.33242076E+04</totfact>
</mgrwt>
</event>
<event>
 6    1  0.2866116E-002  0.1490462E+03  0.7546771E-02  0.1214621E+00
         -2   -1    0    0    0  501 -0.00000000000E+00  0.00000000000E+00  0.69671000862E+02  0.69671000862E+02  0.00000000000E+00 0.  1.
          2   -1    0    0  501    0  0.00000000000E+00 -0.00000000000E+00 -0.38406097441E+03  0.38406097441E+03  0.00000000000E+00 0. -1.
         23    2    1    2    0    0 -0.10440111033E+03  0.42946105332E+02 -0.30619728144E+03  0.34054593371E+03  0.97318025065E+02 0.  0.
         13    1    3    3    0    0 -0.89723364965E+02 -0.39634115379E+01 -0.25126622385E+03  0.26683460439E+03  0.00000000000E+00 0. -1.
        -13    1    3    3    0    0 -0.14677745365E+02  0.46909516870E+02 -0.54931057587E+02  0.73711329316E+02  0.00000000000E+00 0.  1.
         22    1    1    2    0    0  0.10440111033E+03 -0.42946105332E+02 -0.81926921094E+01  0.11318604157E+03  0.00000000000E+00 0.  1.
<mgrwt>
<rscale>  0 0.13904444E+03</rscale>
<asrwt>0</asrwt>
<pdfrwt beam="1">  1        2 0.59086304E-01 0.14904616E+03</pdfrwt>
<pdfrwt beam="2">  1       -2 0.10718616E-01 0.14904616E+03</pdfrwt>
<totfact> 0.47908026E+03</totfact>
</mgrwt>
</event>
<event>
 6    1  0.2866116E-002  0.9332026E+02  0.7546771E-02  0.1411001E+00
          2   -1    0    0  501    0  0.00000000000E+00  0.00000000000E+00  0.20169678819E+03  0.20169678819E+03  0.00000000000E+00 0. -1.
         -2   -1    0    0    0  501 -0.00000000000E+00 -0.00000000000E+00 -0.16758255600E+02  0.16758255600E+02  0.00000000000E+00 0.  1.
         23    2    1    2    0    0 -0.97478138237E+01 -0.85445599586E+01  0.18290201047E+03  0.20533342797E+03  0.92415593012E+02 0.  0.
         11    1    3    3    0    0 -0.21784853633E+02 -0.15267823216E+02  0.18856212930E+03  0.19042941706E+03  0.00000000000E+00 0. -1.
        -11    1    3    3    0    0  0.12037039810E+02  0.67232632575E+01 -0.56601188355E+01  0.14904010918E+02  0.00000000000E+00 0.  1.
         22    1    1    2    0    0  0.97478138237E+01  0.85445599586E+01  0.20365221216E+01  0.13121615814E+02  0.00000000000E+00 0. -1.
<mgrwt>
<rscale>  0 0.56971167E+02</rscale>
<asrwt>0</asrwt>
<pdfrwt beam="1">  1        2 0.31030273E-01 0.93320262E+02</pdfrwt>
<pdfrwt beam="2">  1       -2 0.25781933E-02 0.93320262E+02</pdfrwt>
<totfact> 0.77385217E+04</totfact>
</mgrwt>
</event>
<event>
 6    1  0.2866116E-002  0.9615514E+02  0.7546771E-02  0.1352993E+00
          2   -1    0    0  501    0  0.00000000000E+00  0.00000000000E+00  0.12514564709E+04  0.12514564709E+04  0.00000000000E+00 0. -1.
         -2   -1    0    0    0  501 -0.00000000000E+00 -0.00000000000E+00 -0.80269513435E+01  0.80269513435E+01  0.00000000000E+00 0.  1.
         23    2    1    2    0    0 -0.19072818839E+02 -0.23735174975E+02  0.12116932166E+04  0.12155024732E+04  0.91206799732E+02 0.  0.
         13    1    3    3    0    0  0.35316872381E+02 -0.90400717816E+01  0.64074592082E+03  0.64178215885E+03  0.00000000000E+00 0.  1.
        -13    1    3    3    0    0 -0.54389691220E+02 -0.14695103193E+02  0.57094729580E+03  0.57372031439E+03  0.00000000000E+00 0. -1.
         22    1    1    2    0    0  0.19072818839E+02  0.23735174975E+02  0.31736302897E+02  0.43980948956E+02  0.00000000000E+00 0.  1.
<mgrwt>
<rscale>  0 0.72131011E+02</rscale>
<asrwt>0</asrwt>
<pdfrwt beam="1">  1        2 0.19253161E+00 0.96155142E+02</pdfrwt>
<pdfrwt beam="2">  1       -2 0.12349166E-02 0.96155142E+02</pdfrwt>
<totfact> 0.27192401E+04</totfact>
</mgrwt>
</event>
<event>
 6    1  0.2866116E-002  0.1001585E+03  0.7546771E-02  0.1399604E+00
         -2   -1    0    0    0  501 -0.00000000000E+00  0.00000000000E+00  0.11974163310E+02  0.11974163310E+02  0.00000000000E+00 0.  1.
          2   -1    0    0  501    0  0.00000000000E+00 -0.00000000000E+00 -0.26663595415E+03  0.26663595415E+03  0.00000000000E+00 0. -1.
         23    2    1    2    0    0 -0.12290673244E+02  0.24926184357E+01 -0.23228773760E+03  0.25296110083E+03  0.99370275744E+02 0.  0.
         11    1    3    3    0    0  0.15501984924E+02  0.37370564882E+02 -0.17880028846E+03  0.18332052206E+03  0.00000000000E+00 0. -1.
        -11    1    3    3    0    0 -0.27792658167E+02 -0.34877946446E+02 -0.53487449139E+02  0.69640578772E+02  0.00000000000E+00 0.  1.
         22    1    1    2    0    0  0.12290673244E+02 -0.24926184357E+01 -0.22374053246E+02  0.25649016631E+02  0.00000000000E+00 0.  1.
<mgrwt>
<rscale>  0 0.59579645E+02</rscale>
<asrwt>0</asrwt>
<pdfrwt beam="1">  1        2 0.41020917E-01 0.10015850E+03</pdfrwt>
<pdfrwt beam="2">  1       -2 0.18421789E-02 0.10015850E+03</pdfrwt>
<totfact> 0.94477612E+04</totfact>
</mgrwt>
</event>
<event>
 6    1  0.2866116E-002  0.9839931E+02  0.7546771E-02  0.1343484E+00
         -2   -1    0    0    0  501 -0.00000000000E+00  0.00000000000E+00  0.35216243210E+02  0.35216243210E+02  0.00000000000E+00 0.  1.
          2   -1    0    0  501    0  0.00000000000E+00 -0.00000000000E+00 -0.21624117033E+03  0.21624117033E+03  0.00000000000E+00 0. -1.
         23    2    1    2    0    0  0.32999689535E+01 -0.33268947021E+02 -0.19243362695E+03  0.21613219503E+03  0.92545730948E+02 0.  0.
         11    1    3    3    0    0 -0.12611230542E+02 -0.60265860688E+02 -0.90257036814E+02  0.10925817953E+03  0.00000000000E+00 0.  1.
        -11    1    3    3    0    0  0.15911199495E+02  0.26996913667E+02 -0.10217659014E+03  0.10687401550E+03  0.00000000000E+00 0. -1.
         22    1    1    2    0    0 -0.32999689535E+01  0.33268947021E+02  0.11408699830E+02  0.35325218510E+02  0.00000000000E+00 0.  1.
<mgrwt>
<rscale>  0 0.75125145E+02</rscale>
<asrwt>0</asrwt>
<pdfrwt beam="1">  1        2 0.33267872E-01 0.98399314E+02</pdfrwt>
<pdfrwt beam="2">  1       -2 0.54178836E-02 0.98399314E+02</pdfrwt>
<totfact> 0.24292617E+04</totfact>
</mgrwt>
</event>
<event>
 6    1  0.2866116E-002  0.9197964E+02  0.7546771E-02  0.1428607E+00
          2   -1    0    0  501    0  0.00000000000E+00  0.00000000000E+00  0.12348424482E+03  0.12348424482E+03  0.00000000000E+00 0. -1.
         -2   -1    0    0    0  501 -0.00000000000E+00 -0.00000000000E+00 -0.21507064615E+02  0.21507064615E+02  0.00000000000E+00 0.  1.
         23    2    1    2    0    0  0.65133961690E+01 -0.80116295264E+01  0.85708795354E+02  0.12572291866E+03  0.91398272078E+02 0.  0.
         11    1    3    3    0    0  0.46591802774E+01 -0.42766689317E+02  0.12720427293E+02  0.44860973536E+02  0.00000000000E+00 0.  1.
        -11    1    3    3    0    0  0.18542158916E+01  0.34755059791E+02  0.72988368061E+02  0.80861945128E+02  0.00000000000E+00 0. -1.
         22    1    1    2    0    0 -0.65133961690E+01  0.80116295264E+01  0.16268384854E+02  0.19268390776E+02  0.00000000000E+00 0.  1.
<mgrwt>
<rscale>  0 0.53240706E+02</rscale>
<asrwt>0</asrwt>
<pdfrwt beam="1">  1        2 0.18997576E-01 0.91979643E+02</pdfrwt>
<pdfrwt beam="2">  1       -2 0.33087792E-02 0.91979643E+02</pdfrwt>
<totfact> 0.91905222E+04</totfact>
</mgrwt>
</event>
<event>
 6    1  0.2866116E-002  0.9208957E+02  0.7546771E-02  0.1420450E+00
         -2   -1    0    0    0  501 -0.00000000000E+00  0.00000000000E+00  0.16529273630E+03  0.16529273630E+03  0.00000000000E+00 0.  1.
          2   -1    0    0  501    0  0.00000000000E+00 -0.00000000000E+00 -0.19320273631E+02  0.19320273631E+02  0.00000000000E+00 0. -1.
         23    2    1    2    0    0 -0.11431940448E+02  0.22642155491E+01  0.94933998288E+02  0.13226092515E+03  0.91349178191E+02 0.  0.
         13    1    3    3    0    0 -0.38681761445E+02 -0.29452070197E+02  0.38456700334E+02  0.61988877292E+02  0.00000000000E+00 0. -1.
        -13    1    3    3    0    0  0.27249820997E+02  0.31716285746E+02  0.56477297954E+02  0.70272047858E+02  0.00000000000E+00 0.  1.
         22    1    1    2    0    0  0.11431940448E+02 -0.22642155491E+01  0.51038464376E+02  0.52352084776E+02  0.00000000000E+00 0.  1.
<mgrwt>
<rscale>  0 0.54925834E+02</rscale>
<asrwt>0</asrwt>
<pdfrwt beam="1">  1        2 0.29723499E-02 0.92089567E+02</pdfrwt>
<pdfrwt beam="2">  1       -2 0.25429651E-01 0.92089567E+02</pdfrwt>
<totfact> 0.37936344E+04</totfact>
</mgrwt>
</event>
<event>
 6    1  0.2866116E-002  0.9317330E+02  0.7546771E-02  0.1409051E+00
          4   -1    0    0  501    0  0.00000000000E+00  0.00000000000E+00  0.94494514619E+02  0.94494514619E+02  0.00000000000E+00 0. -1.
         -4   -1    0    0    0  501 -0.00000000000E+00 -0.00000000000E+00 -0.49293480180E+02  0.49293480180E+02  0.00000000000E+00 0.  1.
         23    2    1    2    0    0  0.11740452945E+02 -0.65139721485E+01  0.69355516210E+02  0.11615270833E+03  0.92200834894E+02 0.  0.
         13    1    3    3    0    0 -0.30997280648E+01 -0.30242232279E+02  0.80484292937E+02  0.86034425301E+02  0.00000000000E+00 0. -1.
        -13    1    3    3    0    0  0.14840181010E+02  0.23728260130E+02 -0.11128776727E+02  0.30118283030E+02  0.00000000000E+00 0.  1.
         22    1    1    2    0    0 -0.11740452945E+02  0.65139721485E+01 -0.24154481772E+02  0.27635286468E+02  0.00000000000E+00 0.  1.
<mgrwt>
<rscale>  0 0.57406235E+02</rscale>
<asrwt>0</asrwt>
<pdfrwt beam="1">  1        4 0.14537618E-01 0.93173301E+02</pdfrwt>
<pdfrwt beam="2">  1       -4 0.75836123E-02 0.93173301E+02</pdfrwt>
<totfact> 0.70685385E+03</totfact>
</mgrwt>
</event>
<event>
 6    1  0.2866116E-002  0.9434132E+02  0.7546771E-02  0.1383548E+00
          1   -1    0    0  501    0  0.00000000000E+00  0.00000000000E+00  0.44273393405E+03  0.44273393405E+03  0.00000000000E+00 0. -1.
         -1   -1    0    0    0  501 -0.00000000000E+00 -0.00000000000E+00 -0.88084229418E+01  0.88084229418E+01  0.00000000000E+00 0.  1.
         23    2    1    2    0    0  0.11646768178E+02 -0.15531159746E+02  0.41008923709E+03  0.42080098274E+03  0.92322373029E+02 0.  0.
         13    1    3    3    0    0 -0.56102152923E+01  0.26942601232E+02  0.30382569282E+03  0.30506954927E+03  0.00000000000E+00 0. -1.
        -13    1    3    3    0    0  0.17256983470E+02 -0.42473760979E+02  0.10626354427E+03  0.11573143346E+03  0.00000000000E+00 0.  1.
         22    1    1    2    0    0 -0.11646768178E+02  0.15531159746E+02  0.23836274014E+02  0.30741374252E+02  0.00000000000E+00 0. -1.
<mgrwt>
<rscale>  0 0.63540344E+02</rscale>
<asrwt>0</asrwt>
<pdfrwt beam="1">  1        1 0.68112896E-01 0.94341320E+02</pdfrwt>
<pdfrwt beam="2">  1       -1 0.13551423E-02 0.94341320E+02</pdfrwt>
<totfact> 0.56650615E+04</totfact>
</mgrwt>
</event>
<event>
 6    1  0.2866116E-002  0.9666863E+02  0.7546771E-02  0.1356851E+00
         -2   -1    0    0    0  501 -0.00000000000E+00  0.00000000000E+00  0.56493226827E+01  0.56493226827E+01  0.00000000000E+00 0.  1.
          2   -1    0    0  501    0  0.00000000000E+00 -0.00000000000E+00 -0.10534191396E+04  0.10534191396E+04  0.00000000000E+00 0. -1.
         23    2    1    2    0    0  0.21919294442E+02 -0.17535893815E+02 -0.99134301344E+03  0.99604507621E+03  0.92503299985E+02 0.  0.
         11    1    3    3    0    0  0.98538021822E+01 -0.34364243335E+02 -0.14137449729E+03  0.14582437080E+03  0.00000000000E+00 0.  1.
        -11    1    3    3    0    0  0.12065492260E+02  0.16828349520E+02 -0.84996851615E+03  0.85022070541E+03  0.00000000000E+00 0. -1.
         22    1    1    2    0    0 -0.21919294442E+02  0.17535893815E+02 -0.56426803442E+02  0.63023386036E+02  0.00000000000E+00 0.  1.
<mgrwt>
<rscale>  0 0.70962253E+02</rscale>
<asrwt>0</asrwt>
<pdfrwt beam="1">  1        2 0.16206453E+00 0.96668628E+02</pdfrwt>
<pdfrwt beam="2">  1       -2 0.86912633E-03 0.96668628E+02</pdfrwt>
<totfact> 0.57642937E+04</totfact>
</mgrwt>
</event>
<event>
 6    1  0.2866116E-002  0.9229377E+02  0.7546771E-02  0.1427975E+00
          2   -1    0    0  501    0  0.00000000000E+00  0.00000000000E+00  0.13731084605E+04  0.13731084605E+04  0.00000000000E+00 0. -1.
         -2   -1    0    0    0  501 -0.00000000000E+00 -0.00000000000E+00 -0.50425933741E+01  0.50425933741E+01  0.00000000000E+00 0.  1.
         23    2    1    2    0    0  0.93049893282E+01 -0.44601095913E+01  0.13639064459E+04  0.13670255791E+04  0.91715131560E+02 0.  0.
         13    1    3    3    0    0  0.19341073092E+02 -0.45484457493E+02  0.81445214168E+03  0.81595049119E+03  0.00000000000E+00 0. -1.
        -13    1    3    3    0    0 -0.10036083764E+02  0.41024347901E+02  0.54945430417E+03  0.55107508787E+03  0.00000000000E+00 0.  1.
         22    1    1    2    0    0 -0.93049893282E+01  0.44601095913E+01  0.41594212311E+01  0.11125474774E+02  0.00000000000E+00 0.  1.
<mgrwt>
<rscale>  0 0.53368558E+02</rscale>
<asrwt>0</asrwt>
<pdfrwt beam="1">  1        2 0.21124716E+00 0.92293774E+02</pdfrwt>
<pdfrwt beam="2">  1       -2 0.77578469E-03 0.92293774E+02</pdfrwt>
<totfact> 0.45134015E+04</totfact>
</mgrwt>
</event>
<event>
 6    1  0.2866116E-002  0.9172228E+02  0.7546771E-02  0.1428529E+00
         -2   -1    0    0    0  501 -0.00000000000E+00  0.00000000000E+00  0.32406985620E+02  0.32406985620E+02  0.00000000000E+00 0.  1.
          2   -1    0    0  501    0  0.00000000000E+00 -0.00000000000E+00 -0.10298575200E+03  0.10298575200E+03  0.00000000000E+00 0. -1.
         23    2    1    2    0    0 -0.10400778587E+02 -0.70574019384E+00 -0.79722349637E+02  0.12152625359E+03  0.91127948594E+02 0.  0.
         11    1    3    3    0    0 -0.46112178814E+02  0.58952604492E+01 -0.17876758336E+02  0.49806280923E+02  0.00000000000E+00 0.  1.
        -11    1    3    3    0    0  0.35711400227E+02 -0.66010006430E+01 -0.61845591301E+02  0.71719972665E+02  0.00000000000E+00 0. -1.
         22    1    1    2    0    0  0.10400778587E+02  0.70574019384E+00  0.91435832610E+01  0.13866484028E+02  0.00000000000E+00 0.  1.
<mgrwt>
<rscale>  0 0.53256422E+02</rscale>
<asrwt>0</asrwt>
<pdfrwt beam="1">  1        2 0.15843962E-01 0.91722283E+02</pdfrwt>
<pdfrwt beam="2">  1       -2 0.49856901E-02 0.91722283E+02</pdfrwt>
<totfact> 0.61755727E+04</totfact>
</mgrwt>
</event>
<event>
 6    1  0.2866116E-002  0.8774984E+02  0.7546771E-02  0.1393728E+00
          2   -1    0    0  501    0  0.00000000000E+00  0.00000000000E+00  0.39125235809E+03  0.39125235809E+03  0.00000000000E+00 0. -1.
         -2   -1    0    0    0  501 -0.00000000000E+00 -0.00000000000E+00 -0.12565687273E+02  0.12565687273E+02  0.00000000000E+00 0.  1.
         23    2    1    2    0    0  0.19071623680E+02 -0.74547747265E+01  0.37210179309E+03  0.38230848678E+03  0.85327218076E+02 0.  0.
         13    1    3    3    0    0  0.43546457218E+02 -0.26892684189E+02  0.28954086842E+03  0.29402963267E+03  0.00000000000E+00 0. -1.
        -13    1    3    3    0    0 -0.24474833539E+02  0.19437909463E+02  0.82560924666E+02  0.88278854109E+02  0.00000000000E+00 0.  1.
         22    1    1    2    0    0 -0.19071623680E+02  0.74547747265E+01  0.65848777294E+01  0.21509558589E+02  0.00000000000E+00 0.  1.
<mgrwt>
<rscale>  0 0.60988848E+02</rscale>
<asrwt>0</asrwt>
<pdfrwt beam="1">  1        2 0.60192661E-01 0.87749841E+02</pdfrwt>
<pdfrwt beam="2">  1       -2 0.19331830E-02 0.87749841E+02</pdfrwt>
<totfact> 0.57916706E+04</totfact>
</mgrwt>
</event>
<event>
 6    1  0.2866116E-002  0.9352359E+02  0.7546771E-02  0.1395207E+00
         -3   -1    0    0    0  501 -0.00000000000E+00  0.00000000000E+00  0.31393953746E+01  0.31393953746E+01  0.00000000000E+00 0.  1.
          3   -1    0    0  501    0  0.00000000000E+00 -0.00000000000E+00 -0.10305450993E+04  0.10305450993E+04  0.00000000000E+00 0. -1.
         23    2    1    2    0    0  0.13831053592E+01 -0.16461139594E+02 -0.94651843154E+03  0.95112764801E+03  0.92053133930E+02 0.  0.
         13    1    3    3    0    0 -0.12853032249E+02 -0.13994425743E+02 -0.92507937394E+03  0.92527449574E+03  0.00000000000E+00 0. -1.
        -13    1    3    3    0    0  0.14236137608E+02 -0.24667138508E+01 -0.21439057607E+02  0.25853152270E+02  0.00000000000E+00 0.  1.
         22    1    1    2    0    0 -0.13831053592E+01  0.16461139594E+02 -0.80887272339E+02  0.82556846619E+02  0.00000000000E+00 0.  1.
<mgrwt>
<rscale>  0 0.60630026E+02</rscale>
<asrwt>0</asrwt>
<pdfrwt beam="1">  1        3 0.15854529E+00 0.93523588E+02</pdfrwt>
<pdfrwt beam="2">  1       -3 0.48298425E-03 0.93523588E+02</pdfrwt>
<totfact> 0.51262092E+03</totfact>
</mgrwt>
</event>
<event>
 6    1  0.2866116E-002  0.9146609E+02  0.7546771E-02  0.1423632E+00
          2   -1    0    0  501    0  0.00000000000E+00  0.00000000000E+00  0.35181843110E+04  0.35181843110E+04  0.00000000000E+00 0. -1.
         -2   -1    0    0    0  501 -0.00000000000E+00 -0.00000000000E+00 -0.27248166005E+01  0.27248166005E+01  0.00000000000E+00 0.  1.
         23    2    1    2    0    0 -0.59979369174E+01  0.96091059879E+01  0.35025116198E+04  0.35037057087E+04  0.90761976087E+02 0.  0.
         13    1    3    3    0    0 -0.31708929002E+02  0.11990714060E+02  0.31739497444E+04  0.31741307807E+04  0.00000000000E+00 0. -1.
        -13    1    3    3    0    0  0.25710992085E+02 -0.23816080720E+01  0.32856187542E+03  0.32957492797E+03  0.00000000000E+00 0.  1.
         22    1    1    2    0    0  0.59979369174E+01 -0.96091059879E+01  0.12947874663E+02  0.17203418947E+02  0.00000000000E+00 0.  1.
<mgrwt>
<rscale>  0 0.54259743E+02</rscale>
<asrwt>0</asrwt>
<pdfrwt beam="1">  1        2 0.54125549E+00 0.91466095E+02</pdfrwt>
<pdfrwt beam="2">  1       -2 0.41920537E-03 0.91466095E+02</pdfrwt>
<totfact> 0.74305404E+03</totfact>
</mgrwt>
</event>
<event>
 6    1  0.2866116E-002  0.7469080E+02  0.7546771E-02  0.1433702E+00
          4   -1    0    0  501    0  0.00000000000E+00  0.00000000000E+00  0.11689513308E+02  0.11689513308E+02  0.00000000000E+00 0. -1.
         -4   -1    0    0    0  501 -0.00000000000E+00 -0.00000000000E+00 -0.18693446088E+03  0.18693446088E+03  0.00000000000E+00 0.  1.
         23    2    1    2    0    0 -0.11014572276E+02 -0.14048666448E+02 -0.12914564878E+03  0.14918885327E+03  0.72526060893E+02 0.  0.
         11    1    3    3    0    0 -0.37774543326E+02 -0.24715569819E+02 -0.68323304058E+02  0.81889250774E+02  0.00000000000E+00 0. -1.
        -11    1    3    3    0    0  0.26759971049E+02  0.10666903371E+02 -0.60822344725E+02  0.67299602495E+02  0.00000000000E+00 0.  1.
         22    1    1    2    0    0  0.11014572276E+02  0.14048666448E+02 -0.46099298794E+02  0.49435120923E+02  0.00000000000E+00 0.  1.
<mgrwt>
<rscale>  0 0.52224065E+02</rscale>
<asrwt>0</asrwt>
<pdfrwt beam="1">  1        4 0.17983867E-02 0.74690798E+02</pdfrwt>
<pdfrwt beam="2">  1       -4 0.28759148E-01 0.74690798E+02</pdfrwt>
<totfact> 0.18637605E+04</totfact>
</mgrwt>
</event>
<event>
 6    1  0.2866116E-002  0.9268084E+02  0.7546771E-02  0.1414701E+00
         -2   -1    0    0    0  501 -0.00000000000E+00  0.00000000000E+00  0.76877404456E+01  0.76877404456E+01  0.00000000000E+00 0.  1.
          2   -1    0    0  501    0  0.00000000000E+00 -0.00000000000E+00 -0.38535661990E+03  0.38535661990E+03  0.00000000000E+00 0. -1.
         23    2    1    2    0    0  0.12184278243E+02 -0.27613496465E+01 -0.35751102353E+03  0.36932894671E+03  0.91834945681E+02 0.  0.
         11    1    3    3    0    0 -0.23388942491E+02 -0.86159418618E+01 -0.30269838656E+03  0.30372288408E+03  0.00000000000E+00 0. -1.
        -11    1    3    3    0    0  0.35573220735E+02  0.58545922152E+01 -0.54812636966E+02  0.65606062636E+02  0.00000000000E+00 0.  1.
         22    1    1    2    0    0 -0.12184278243E+02  0.27613496465E+01 -0.20157855924E+02  0.23715413629E+02  0.00000000000E+00 0. -1.
<mgrwt>
<rscale>  0 0.56157980E+02</rscale>
<asrwt>0</asrwt>
<pdfrwt beam="1">  1        2 0.59285639E-01 0.92680844E+02</pdfrwt>
<pdfrwt beam="2">  1       -2 0.11827292E-02 0.92680844E+02</pdfrwt>
<totfact> 0.11955167E+05</totfact>
</mgrwt>
</event>
<event>
 6    1  0.2866116E-002  0.9395770E+02  0.7546771E-02  0.1418278E+00
          2   -1    0    0  501    0  0.00000000000E+00  0.00000000000E+00  0.37942274018E+03  0.37942274018E+03  0.00000000000E+00 0. -1.
         -2   -1    0    0    0  501 -0.00000000000E+00 -0.00000000000E+00 -0.75440209671E+01  0.75440209671E+01  0.00000000000E+00 0.  1.
         23    2    1    2    0    0 -0.16366719286E+01  0.11226979915E+02  0.34904203100E+03  0.36146699445E+03  0.93270171547E+02 0.  0.
         11    1    3    3    0    0  0.27824791903E+02 -0.24646364587E+02  0.77112678370E+02  0.85603898843E+02  0.00000000000E+00 0. -1.
        -11    1    3    3    0    0 -0.29461463832E+02  0.35873344502E+02  0.27192935263E+03  0.27586309561E+03  0.00000000000E+00 0.  1.
         22    1    1    2    0    0  0.16366719286E+01 -0.11226979915E+02  0.22836688220E+02  0.25499766703E+02  0.00000000000E+00 0. -1.
<mgrwt>
<rscale>  0 0.55386843E+02</rscale>
<asrwt>0</asrwt>
<pdfrwt beam="1">  1        2 0.58372715E-01 0.93957696E+02</pdfrwt>
<pdfrwt beam="2">  1       -2 0.11606189E-02 0.93957696E+02</pdfrwt>
<totfact> 0.12507600E+05</totfact>
</mgrwt>
</event>
<event>
 6    1  0.2866116E-002  0.1002593E+03  0.7546771E-02  0.1326569E+00
         -1   -1    0    0    0  501 -0.00000000000E+00  0.00000000000E+00  0.14693543560E+03  0.14693543560E+03  0.00000000000E+00 0.  1.
          1   -1    0    0  501    0  0.00000000000E+00 -0.00000000000E+00 -0.35292808718E+02  0.35292808718E+02  0.00000000000E+00 0. -1.
         23    2    1    2    0    0  0.35843256800E+02  0.22768950800E+02  0.66825326923E+02  0.12048883588E+03  0.90822745361E+02 0.  0.
         11    1    3    3    0    0  0.94731899000E+01  0.31396471854E+02  0.82389179183E+02  0.88676133307E+02  0.00000000000E+00 0.  1.
        -11    1    3    3    0    0  0.26370066900E+02 -0.86275210543E+01 -0.15563852260E+02  0.31812702574E+02  0.00000000000E+00 0. -1.
         22    1    1    2    0    0 -0.35843256800E+02 -0.22768950800E+02  0.44817299959E+02  0.61739408437E+02  0.00000000000E+00 0.  1.
<mgrwt>
<rscale>  0 0.80881285E+02</rscale>
<asrwt>0</asrwt>
<pdfrwt beam="1">  1        1 0.54296630E-02 0.10025934E+03</pdfrwt>
<pdfrwt beam="2">  1       -1 0.22605451E-01 0.10025934E+03</pdfrwt>
<totfact> 0.21832691E+04</totfact>
</mgrwt>
</event>
<event>
 6    1  0.2866116E-002  0.8927230E+02  0.7546771E-02  0.1388283E+00
          1   -1    0    0  501    0  0.00000000000E+00  0.00000000000E+00  0.84012955249E+03  0.84012955249E+03  0.00000000000E+00 0. -1.
         -1   -1    0    0    0  501 -0.00000000000E+00 -0.00000000000E+00 -0.46367164939E+01  0.46367164939E+01  0.00000000000E+00 0.  1.
         23    2    1    2    0    0  0.19142180014E+02  0.91642518436E+01  0.78407449085E+03  0.78914026081E+03  0.86712960194E+02 0.  0.
         11    1    3    3    0    0  0.17710589717E+02  0.46123378789E+02  0.54324482902E+03  0.54548691580E+03  0.00000000000E+00 0. -1.
        -11    1    3    3    0    0  0.14315902969E+01 -0.36959126946E+02  0.24082966183E+03  0.24365334501E+03  0.00000000000E+00 0.  1.
         22    1    1    2    0    0 -0.19142180014E+02 -0.91642518436E+01  0.51418345146E+02  0.55626008172E+02  0.00000000000E+00 0.  1.
<mgrwt>
<rscale>  0 0.62335887E+02</rscale>
<asrwt>0</asrwt>
<pdfrwt beam="1">  1        1 0.12925058E+00 0.89272303E+02</pdfrwt>
<pdfrwt beam="2">  1       -1 0.71334167E-03 0.89272303E+02</pdfrwt>
<totfact> 0.58200100E+04</totfact>
</mgrwt>
</event>
<event>
 6    1  0.2866116E-002  0.9145677E+02  0.7546771E-02  0.1412248E+00
         -1   -1    0    0    0  501 -0.00000000000E+00  0.00000000000E+00  0.59873826522E+01  0.59873826522E+01  0.00000000000E+00 0.  1.
          1   -1    0    0  501    0  0.00000000000E+00 -0.00000000000E+00 -0.66025170696E+03  0.66025170696E+03  0.00000000000E+00 0. -1.
         23    2    1    2    0    0  0.11868675385E+02  0.64462078912E+01 -0.64034839514E+03  0.64684651020E+03  0.90453974747E+02 0.  0.
         13    1    3    3    0    0  0.62000545888E+01  0.20384750932E+02 -0.62496312004E+03  0.62532621899E+03  0.00000000000E+00 0. -1.
        -13    1    3    3    0    0  0.56686207967E+01 -0.13938543041E+02 -0.15385275103E+02  0.21520291211E+02  0.00000000000E+00 0.  1.
         22    1    1    2    0    0 -0.11868675385E+02 -0.64462078912E+01 -0.13915929160E+02  0.19392579404E+02  0.00000000000E+00 0.  1.
<mgrwt>
<rscale>  0 0.56695118E+02</rscale>
<asrwt>0</asrwt>
<pdfrwt beam="1">  1        1 0.10157717E+00 0.91456769E+02</pdfrwt>
<pdfrwt beam="2">  1       -1 0.92113595E-03 0.91456769E+02</pdfrwt>
<totfact> 0.57666351E+04</totfact>
</mgrwt>
</event>
<event>
 6    1  0.2866116E-002  0.8697052E+02  0.7546771E-02  0.1425334E+00
          2   -1    0    0  501    0  0.00000000000E+00  0.00000000000E+00  0.12410134122E+04  0.12410134122E+04  0.00000000000E+00 0. -1.
         -2   -1    0    0    0  501 -0.00000000000E+00 -0.00000000000E+00 -0.37217378508E+01  0.37217378508E+01  0.00000000000E+00 0.  1.
         23    2    1    2    0    0 -0.11231431798E+02  0.62186145873E+01  0.12205162752E+04  0.12236109875E+04  0.86017756775E+02 0.  0.
         13    1    3    3    0    0 -0.26851881088E+02 -0.34045623515E+02  0.55126361752E+03  0.55296627745E+03  0.00000000000E+00 0. -1.
        -13    1    3    3    0    0  0.15620449290E+02  0.40264238102E+02  0.66925265764E+03  0.67064471001E+03  0.00000000000E+00 0.  1.
         22    1    1    2    0    0  0.11231431798E+02 -0.62186145873E+01  0.16775399249E+02  0.21124162648E+02  0.00000000000E+00 0. -1.
<mgrwt>
<rscale>  0 0.53908101E+02</rscale>
<asrwt>0</asrwt>
<pdfrwt beam="1">  1        2 0.19092481E+00 0.86970516E+02</pdfrwt>
<pdfrwt beam="2">  1       -2 0.57257604E-03 0.86970516E+02</pdfrwt>
<totfact> 0.80713041E+04</totfact>
</mgrwt>
</event>
<event>
 6    1  0.2866116E-002  0.9352843E+02  0.7546771E-02  0.1372927E+00
         -2   -1    0    0    0  501 -0.00000000000E+00  0.00000000000E+00  0.70484650934E+01  0.70484650934E+01  0.00000000000E+00 0.  1.
          2   -1    0    0  501    0  0.00000000000E+00 -0.00000000000E+00 -0.68514745787E+03  0.68514745787E+03  0.00000000000E+00 0. -1.
         23    2    1    2    0    0  0.10069375271E+02  0.21457736654E+02 -0.64347041387E+03  0.65023206640E+03  0.90475078709E+02 0.  0.
         11    1    3    3    0    0 -0.12721768427E+02  0.37427699616E+02 -0.57450425991E+03  0.57586267524E+03  0.00000000000E+00 0. -1.
        -11    1    3    3    0    0  0.22791143698E+02 -0.15969962963E+02 -0.68966153968E+02  0.74369391158E+02  0.00000000000E+00 0.  1.
         22    1    1    2    0    0 -0.10069375271E+02 -0.21457736654E+02 -0.34628578907E+02  0.41963856564E+02  0.00000000000E+00 0. -1.
<mgrwt>
<rscale>  0 0.66360252E+02</rscale>
<asrwt>0</asrwt>
<pdfrwt beam="1">  1        2 0.10540734E+00 0.93528427E+02</pdfrwt>
<pdfrwt beam="2">  1       -2 0.10843789E-02 0.93528427E+02</pdfrwt>
<totfact> 0.72199625E+04</totfact>
</mgrwt>
</event>
<event>
 6    1  0.2866116E-002  0.9152705E+02  0.7546771E-02  0.1398033E+00
          2   -1    0    0  501    0  0.00000000000E+00  0.00000000000E+00  0.12185451391E+03  0.12185451391E+03  0.00000000000E+00 0. -1.
         -2   -1    0    0    0  501 -0.00000000000E+00 -0.00000000000E+00 -0.27528824718E+02  0.27528824718E+02  0.00000000000E+00 0.  1.
         23    2    1    2    0    0 -0.15952228567E+02 -0.54229045956E+01  0.95769720524E+02  0.13247278817E+03  0.89962874258E+02 0.  0.
         11    1    3    3    0    0 -0.37504332112E+02  0.27566717692E+02  0.28697054263E+02  0.54681073278E+02  0.00000000000E+00 0.  1.
        -11    1    3    3    0    0  0.21552103545E+02 -0.32989622288E+02  0.67072666261E+02  0.77791714888E+02  0.00000000000E+00 0. -1.
         22    1    1    2    0    0  0.15952228567E+02  0.54229045956E+01 -0.14440313301E+01  0.16910550464E+02  0.00000000000E+00 0.  1.
<mgrwt>
<rscale>  0 0.59952075E+02</rscale>
<asrwt>0</asrwt>
<pdfrwt beam="1">  1        2 0.18746848E-01 0.91527046E+02</pdfrwt>
<pdfrwt beam="2">  1       -2 0.42352039E-02 0.91527046E+02</pdfrwt>
<totfact> 0.64905491E+04</totfact>
</mgrwt>
</event>
<event>
 6    1  0.2866116E-002  0.9932649E+02  0.7546771E-02  0.1339427E+00
         -1   -1    0    0    0  501 -0.00000000000E+00  0.00000000000E+00  0.83307134078E+01  0.83307134078E+01  0.00000000000E+00 0.  1.
          1   -1    0    0  501    0  0.00000000000E+00 -0.00000000000E+00 -0.54283200883E+03  0.54283200883E+03  0.00000000000E+00 0. -1.
         23    2    1    2    0    0  0.33803773752E+02  0.85412531917E+01 -0.37886130697E+03  0.39166521714E+03  0.93005936773E+02 0.  0.
         11    1    3    3    0    0 -0.74390722481E+01  0.30415841977E+02 -0.28620062609E+03  0.28790842574E+03  0.00000000000E+00 0. -1.
        -11    1    3    3    0    0  0.41242846000E+02 -0.21874588786E+02 -0.92660680880E+02  0.10375679140E+03  0.00000000000E+00 0.  1.
         22    1    1    2    0    0 -0.33803773752E+02 -0.85412531917E+01 -0.15563998845E+03  0.15949750509E+03  0.00000000000E+00 0. -1.
<mgrwt>
<rscale>  0 0.76453930E+02</rscale>
<asrwt>0</asrwt>
<pdfrwt beam="1">  1        1 0.83512610E-01 0.99326494E+02</pdfrwt>
<pdfrwt beam="2">  1       -1 0.12816483E-02 0.99326494E+02</pdfrwt>
<totfact> 0.47501592E+04</totfact>
</mgrwt>
</event>
<event>
 6    1  0.2866116E-002  0.9254623E+02  0.7546771E-02  0.1381982E+00
          1   -1    0    0  501    0  0.00000000000E+00  0.00000000000E+00  0.44777375862E+02  0.44777375862E+02  0.00000000000E+00 0. -1.
         -1   -1    0    0    0  501 -0.00000000000E+00 -0.00000000000E+00 -0.13180744239E+03  0.13180744239E+03  0.00000000000E+00 0.  1.
         23    2    1    2    0    0 -0.19860071158E+02  0.71100872325E+01 -0.58744262332E+01  0.92732485437E+02  0.90110094911E+02 0.  0.
         13    1    3    3    0    0 -0.19851574945E+02  0.47814460167E+02 -0.14959278617E+01  0.51793295213E+02  0.00000000000E+00 0.  1.
        -13    1    3    3    0    0 -0.84962135228E-02 -0.40704372935E+02 -0.43784983715E+01  0.40939190224E+02  0.00000000000E+00 0. -1.
         22    1    1    2    0    0  0.19860071158E+02 -0.71100872325E+01 -0.81155640296E+02  0.83852332816E+02  0.00000000000E+00 0.  1.
<mgrwt>
<rscale>  0 0.63945664E+02</rscale>
<asrwt>0</asrwt>
<pdfrwt beam="1">  1        1 0.68888273E-02 0.92546232E+02</pdfrwt>
<pdfrwt beam="2">  1       -1 0.20278067E-01 0.92546232E+02</pdfrwt>
<totfact> 0.18701236E+04</totfact>
</mgrwt>
</event>
<event>
 6    1  0.2866116E-002  0.9060821E+02  0.7546771E-02  0.1412117E+00
          2   -1    0    0  501    0  0.00000000000E+00  0.00000000000E+00  0.72682563923E+03  0.72682563923E+03  0.00000000000E+00 0. -1.
         -2   -1    0    0    0  501 -0.00000000000E+00 -0.00000000000E+00 -0.44631947214E+01  0.44631947214E+01  0.00000000000E+00 0.  1.
         23    2    1    2    0    0  0.30014149129E+01 -0.13590293059E+02  0.69177701391E+03  0.69768566265E+03  0.89532911993E+02 0.  0.
         13    1    3    3    0    0  0.36085721619E+02 -0.21381152147E+02  0.56093296248E+03  0.56249899678E+03  0.00000000000E+00 0.  1.
        -13    1    3    3    0    0 -0.33084306707E+02  0.77908590885E+01  0.13084405143E+03  0.13518666588E+03  0.00000000000E+00 0. -1.
         22    1    1    2    0    0 -0.30014149129E+01  0.13590293059E+02  0.30585430597E+02  0.33603171304E+02  0.00000000000E+00 0. -1.
<mgrwt>
<rscale>  0 0.56724167E+02</rscale>
<asrwt>0</asrwt>
<pdfrwt beam="1">  1        2 0.11181924E+00 0.90608205E+02</pdfrwt>
<pdfrwt beam="2">  1       -2 0.68664592E-03 0.90608205E+02</pdfrwt>
<totfact> 0.12793391E+05</totfact>
</mgrwt>
</event>
<event>
 6    1  0.2866116E-002  0.9224283E+02  0.7546771E-02  0.1426141E+00
          3   -1    0    0  501    0  0.00000000000E+00  0.00000000000E+00  0.28314508593E+01  0.28314508593E+01  0.00000000000E+00 0. -1.
         -3   -1    0    0    0  501 -0.00000000000E+00 -0.00000000000E+00 -0.97863728917E+03  0.97863728917E+03  0.00000000000E+00 0.  1.
         23    2    1    2    0    0  0.93426554516E+01  0.50676215270E+01 -0.92340745443E+03  0.92800326863E+03  0.91628454580E+02 0.  0.
         11    1    3    3    0    0  0.18932601787E+02 -0.40940809496E+02 -0.47772092253E+03  0.47984567635E+03  0.00000000000E+00 0.  1.
        -11    1    3    3    0    0 -0.95899463353E+01  0.46008431023E+02 -0.44568653191E+03  0.44815759228E+03  0.00000000000E+00 0. -1.
         22    1    1    2    0    0 -0.93426554516E+01 -0.50676215270E+01 -0.52398383872E+02  0.53465471392E+02  0.00000000000E+00 0. -1.
<mgrwt>
<rscale>  0 0.53742508E+02</rscale>
<asrwt>0</asrwt>
<pdfrwt beam="1">  1        3 0.43560763E-03 0.92242830E+02</pdfrwt>
<pdfrwt beam="2">  1       -3 0.15055965E+00 0.92242830E+02</pdfrwt>
<totfact> 0.67250573E+03</totfact>
</mgrwt>
</event>
<event>
 6    1  0.2866116E-002  0.9307215E+02  0.7546771E-02  0.1424681E+00
         -2   -1    0    0    0  501 -0.00000000000E+00  0.00000000000E+00  0.35766590987E+02  0.35766590987E+02  0.00000000000E+00 0.  1.
          2   -1    0    0  501    0  0.00000000000E+00 -0.00000000000E+00 -0.75100887219E+02  0.75100887219E+02  0.00000000000E+00 0. -1.
         23    2    1    2    0    0  0.70453494280E+01 -0.78931010501E+01 -0.35061984748E+02  0.99457366981E+02  0.92468843832E+02 0.  0.
         13    1    3    3    0    0 -0.41936072097E+02 -0.10148859513E+02 -0.23288012970E+02  0.49030246180E+02  0.00000000000E+00 0.  1.
        -13    1    3    3    0    0  0.48981421525E+02  0.22557584632E+01 -0.11773971778E+02  0.50427120801E+02  0.00000000000E+00 0. -1.
         22    1    1    2    0    0 -0.70453494280E+01  0.78931010501E+01 -0.42723114838E+01  0.11410111225E+02  0.00000000000E+00 0. -1.
<mgrwt>
<rscale>  0 0.54042695E+02</rscale>
<asrwt>0</asrwt>
<pdfrwt beam="1">  1        2 0.11553982E-01 0.93072150E+02</pdfrwt>
<pdfrwt beam="2">  1       -2 0.55025525E-02 0.93072150E+02</pdfrwt>
<totfact> 0.77339234E+04</totfact>
</mgrwt>
</event>
<event>
 6    1  0.2866116E-002  0.9216629E+02  0.7546771E-02  0.1427272E+00
         -2   -1    0    0    0  501 -0.00000000000E+00  0.00000000000E+00  0.80091738858E+01  0.80091738858E+01  0.00000000000E+00 0.  1.
          2   -1    0    0  501    0  0.00000000000E+00 -0.00000000000E+00 -0.82531303986E+03  0.82531303986E+03  0.00000000000E+00 0. -1.
         23    2    1    2    0    0  0.39314988242E+01  0.97071391773E+01 -0.81766487534E+03  0.82284292170E+03  0.91569319034E+02 0.  0.
         13    1    3    3    0    0 -0.33220123057E+02  0.69471916559E+01 -0.65859369956E+03  0.65946758915E+03  0.00000000000E+00 0. -1.
        -13    1    3    3    0    0  0.37151621882E+02  0.27599475214E+01 -0.15907117579E+03  0.16337533255E+03  0.00000000000E+00 0.  1.
         22    1    1    2    0    0 -0.39314988242E+01 -0.97071391773E+01  0.36100936880E+00  0.10479292046E+02  0.00000000000E+00 0.  1.
<mgrwt>
<rscale>  0 0.53511560E+02</rscale>
<asrwt>0</asrwt>
<pdfrwt beam="1">  1        2 0.12697133E+00 0.92166292E+02</pdfrwt>
<pdfrwt beam="2">  1       -2 0.12321797E-02 0.92166292E+02</pdfrwt>
<totfact> 0.48110502E+04</totfact>
</mgrwt>
</event>
<event>
 6    1  0.2866116E-002  0.1274645E+03  0.7546771E-02  0.1316811E+00
         -2   -1    0    0    0  501 -0.00000000000E+00  0.00000000000E+00  0.22722693578E+02  0.22722693578E+02  0.00000000000E+00 0.  1.
          2   -1    0    0  501    0  0.00000000000E+00 -0.00000000000E+00 -0.65524936067E+03  0.65524936067E+03  0.00000000000E+00 0. -1.
         23    2    1    2    0    0 -0.15867574015E+02 -0.18784727648E+02 -0.63976505313E+03  0.65233926021E+03  0.12507014553E+03 0.  0.
         11    1    3    3    0    0  0.82453253525E+01 -0.67673602577E+02 -0.26492259162E+03  0.27355379987E+03  0.00000000000E+00 0.  1.
        -11    1    3    3    0    0 -0.24112899368E+02  0.48888874929E+02 -0.37484246151E+03  0.37878546033E+03  0.00000000000E+00 0. -1.
         22    1    1    2    0    0  0.15867574015E+02  0.18784727648E+02  0.72383860367E+01  0.25632794041E+02  0.00000000000E+00 0.  1.
<mgrwt>
<rscale>  0 0.84475245E+02</rscale>
<asrwt>0</asrwt>
<pdfrwt beam="1">  1        2 0.10080759E+00 0.12746445E+03</pdfrwt>
<pdfrwt beam="2">  1       -2 0.34957993E-02 0.12746445E+03</pdfrwt>
<totfact> 0.14473855E+04</totfact>
</mgrwt>
</event>
<event>
 6    1  0.2866116E-002  0.9442814E+02  0.7546771E-02  0.1387937E+00
          4   -1    0    0  501    0  0.00000000000E+00  0.00000000000E+00  0.26148119407E+03  0.26148119407E+03  0.00000000000E+00 0. -1.
         -4   -1    0    0    0  501 -0.00000000000E+00 -0.00000000000E+00 -0.57232704482E+02  0.57232704482E+02  0.00000000000E+00 0.  1.
         23    2    1    2    0    0 -0.14897058365E+02  0.10162072811E+02  0.25123023113E+03  0.26839020523E+03  0.92690253858E+02 0.  0.
         11    1    3    3    0    0  0.24151662346E+02 -0.29587495609E+02  0.88686919883E+02  0.96561340343E+02  0.00000000000E+00 0.  1.
        -11    1    3    3    0    0 -0.39048720711E+02  0.39749568420E+02  0.16254331124E+03  0.17182886489E+03  0.00000000000E+00 0. -1.
         22    1    1    2    0    0  0.14897058365E+02 -0.10162072811E+02 -0.46981741537E+02  0.50323693322E+02  0.00000000000E+00 0.  1.
<mgrwt>
<rscale>  0 0.62422798E+02</rscale>
<asrwt>0</asrwt>
<pdfrwt beam="1">  1        4 0.40227875E-01 0.94428138E+02</pdfrwt>
<pdfrwt beam="2">  1       -4 0.88050316E-02 0.94428138E+02</pdfrwt>
<totfact> 0.86192210E+02</totfact>
</mgrwt>
</event>
<event>
 6    1  0.2866116E-002  0.8348517E+02  0.7546771E-02  0.1421509E+00
          2   -1    0    0  501    0  0.00000000000E+00  0.00000000000E+00  0.29301875588E+02  0.29301875588E+02  0.00000000000E+00 0. -1.
         -2   -1    0    0    0  501 -0.00000000000E+00 -0.00000000000E+00 -0.87195735064E+02  0.87195735064E+02  0.00000000000E+00 0.  1.
         23    2    1    2    0    0 -0.44471220853E+01  0.14732620153E+02 -0.39045213083E+02  0.92164537228E+02  0.82054532271E+02 0.  0.
         13    1    3    3    0    0  0.24773879890E+02  0.26639164676E+02 -0.47182678112E+02  0.59578480455E+02  0.00000000000E+00 0.  1.
        -13    1    3    3    0    0 -0.29221001975E+02 -0.11906544523E+02  0.81374650290E+01  0.32586056773E+02  0.00000000000E+00 0. -1.
         22    1    1    2    0    0  0.44471220853E+01 -0.14732620153E+02 -0.18848646393E+02  0.24333073424E+02  0.00000000000E+00 0.  1.
<mgrwt>
<rscale>  0 0.54702968E+02</rscale>
<asrwt>0</asrwt>
<pdfrwt beam="1">  1        2 0.45079808E-02 0.83485168E+02</pdfrwt>
<pdfrwt beam="2">  1       -2 0.13414729E-01 0.83485168E+02</pdfrwt>
<totfact> 0.62549388E+04</totfact>
</mgrwt>
</event>
<event>
 6    1  0.2866116E-002  0.9147412E+02  0.7546771E-02  0.1408173E+00
         -2   -1    0    0    0  501 -0.00000000000E+00  0.00000000000E+00  0.30363759874E+01  0.30363759874E+01  0.00000000000E+00 0.  1.
          2   -1    0    0  501    0  0.00000000000E+00 -0.00000000000E+00 -0.96763915965E+03  0.96763915965E+03  0.00000000000E+00 0. -1.
         23    2    1    2    0    0 -0.82883436749E+01 -0.11756939982E+02 -0.89077330906E+03  0.89545776115E+03  0.90335992788E+02 0.  0.
         13    1    3    3    0    0 -0.36455020595E+02 -0.14130855680E+02 -0.78498740324E+03  0.78596047793E+03  0.00000000000E+00 0. -1.
        -13    1    3    3    0    0  0.28166676920E+02  0.23739156976E+01 -0.10578590582E+03  0.10949728323E+03  0.00000000000E+00 0.  1.
         22    1    1    2    0    0  0.82883436749E+01  0.11756939982E+02 -0.73829474602E+02  0.75217774486E+02  0.00000000000E+00 0.  1.
<mgrwt>
<rscale>  0 0.57603593E+02</rscale>
<asrwt>0</asrwt>
<pdfrwt beam="1">  1        2 0.14886758E+00 0.91474116E+02</pdfrwt>
<pdfrwt beam="2">  1       -2 0.46713471E-03 0.91474116E+02</pdfrwt>
<totfact> 0.15392266E+05</totfact>
</mgrwt>
</event>
<event>
 6    1  0.2866116E-002  0.9337286E+02  0.7546771E-02  0.1390549E+00
         -2   -1    0    0    0  501 -0.00000000000E+00  0.00000000000E+00  0.20469365582E+02  0.20469365582E+02  0.00000000000E+00 0.  1.
          2   -1    0    0  501    0  0.00000000000E+00 -0.00000000000E+00 -0.47151004858E+03  0.47151004858E+03  0.00000000000E+00 0. -1.
         23    2    1    2    0    0  0.37831768614E+01 -0.17479008781E+02 -0.46177556855E+03  0.47112117975E+03  0.91644214943E+02 0.  0.
         11    1    3    3    0    0 -0.14343379589E+02  0.22142420569E+02 -0.45684213842E+02  0.52754779130E+02  0.00000000000E+00 0.  1.
        -11    1    3    3    0    0  0.18126556450E+02 -0.39621429350E+02 -0.41609135470E+03  0.41836640062E+03  0.00000000000E+00 0. -1.
         22    1    1    2    0    0 -0.37831768614E+01  0.17479008781E+02  0.10734885544E+02  0.20858234411E+02  0.00000000000E+00 0.  1.
<mgrwt>
<rscale>  0 0.61770352E+02</rscale>
<asrwt>0</asrwt>
<pdfrwt beam="1">  1        2 0.72540001E-01 0.93372856E+02</pdfrwt>
<pdfrwt beam="2">  1       -2 0.31491334E-02 0.93372856E+02</pdfrwt>
<totfact> 0.23653230E+04</totfact>
</mgrwt>
</event>
<event>
 6    1  0.2866116E-002  0.9263800E+02  0.7546771E-02  0.1399365E+00
          2   -1    0    0  501    0  0.00000000000E+00  0.00000000000E+00  0.88409031503E+02  0.88409031503E+02  0.00000000000E+00 0. -1.
         -2   -1    0    0    0  501 -0.00000000000E+00 -0.00000000000E+00 -0.34274392034E+02  0.34274392034E+02  0.00000000000E+00 0.  1.
         23    2    1    2    0    0  0.15762715705E+02  0.21591765996E+01  0.53012728803E+02  0.10673400557E+03  0.91261565182E+02 0.  0.
         11    1    3    3    0    0  0.31999393014E+02  0.86643321578E+01  0.72999350649E+02  0.80174416120E+02  0.00000000000E+00 0. -1.
        -11    1    3    3    0    0 -0.16236677309E+02 -0.65051555582E+01 -0.19986621846E+02  0.26559589448E+02  0.00000000000E+00 0.  1.
         22    1    1    2    0    0 -0.15762715705E+02 -0.21591765996E+01  0.11219106661E+01  0.15949417968E+02  0.00000000000E+00 0. -1.
<mgrwt>
<rscale>  0 0.59636041E+02</rscale>
<asrwt>0</asrwt>
<pdfrwt beam="1">  1        2 0.13601389E-01 0.92637997E+02</pdfrwt>
<pdfrwt beam="2">  1       -2 0.52729834E-02 0.92637997E+02</pdfrwt>
<totfact> 0.67914002E+04</totfact>
</mgrwt>
</event>
<event>
 6    1  0.2866116E-002  0.9301464E+02  0.7546771E-02  0.1380333E+00
         -2   -1    0    0    0  501 -0.00000000000E+00  0.00000000000E+00  0.14140630531E+03  0.14140630531E+03  0.00000000000E+00 0.  1.
          2   -1    0    0  501    0  0.00000000000E+00 -0.00000000000E+00 -0.24863422376E+02  0.24863422376E+02  0.00000000000E+00 0. -1.
         23    2    1    2    0    0 -0.20205358551E+02  0.68748690594E+01  0.74696986786E+02  0.11929527332E+03  0.90532878350E+02 0.  0.
         13    1    3    3    0    0 -0.34781421761E+02  0.37216067725E+02  0.68018678360E+02  0.84978371380E+02  0.00000000000E+00 0.  1.
        -13    1    3    3    0    0  0.14576063210E+02 -0.30341198665E+02  0.66783084262E+01  0.34316901937E+02  0.00000000000E+00 0. -1.
         22    1    1    2    0    0  0.20205358551E+02 -0.68748690594E+01  0.41845896145E+02  0.46974454365E+02  0.00000000000E+00 0. -1.
<mgrwt>
<rscale>  0 0.64376437E+02</rscale>
<asrwt>0</asrwt>
<pdfrwt beam="1">  1        2 0.38251420E-02 0.93014635E+02</pdfrwt>
<pdfrwt beam="2">  1       -2 0.21754816E-01 0.93014635E+02</pdfrwt>
<totfact> 0.35580547E+04</totfact>
</mgrwt>
</event>
<event>
 6    1  0.2866116E-002  0.9313438E+02  0.7546771E-02  0.1378679E+00
          4   -1    0    0  501    0  0.00000000000E+00  0.00000000000E+00  0.57256793281E+02  0.57256793281E+02  0.00000000000E+00 0. -1.
         -4   -1    0    0    0  501 -0.00000000000E+00 -0.00000000000E+00 -0.65029603861E+02  0.65029603861E+02  0.00000000000E+00 0.  1.
         23    2    1    2    0    0 -0.12215392101E+02 -0.18107061114E+02 -0.22662361686E+02  0.95851946165E+02  0.90536906729E+02 0.  0.
         13    1    3    3    0    0 -0.42454768575E+02 -0.34260514134E+02  0.36000766293E+00  0.54555657901E+02  0.00000000000E+00 0. -1.
        -13    1    3    3    0    0  0.30239376473E+02  0.16153453020E+02 -0.23022369349E+02  0.41296288264E+02  0.00000000000E+00 0.  1.
         22    1    1    2    0    0  0.12215392101E+02  0.18107061114E+02  0.14889551105E+02  0.26434450977E+02  0.00000000000E+00 0. -1.
<mgrwt>
<rscale>  0 0.64812175E+02</rscale>
<asrwt>0</asrwt>
<pdfrwt beam="1">  1        4 0.88087374E-02 0.93134381E+02</pdfrwt>
<pdfrwt beam="2">  1       -4 0.10004554E-01 0.93134381E+02</pdfrwt>
<totfact> 0.10417917E+04</totfact>
</mgrwt>
</event>
<event>
 6    1  0.2866116E-002  0.9250347E+02  0.7546771E-02  0.1374577E+00
         -2   -1    0    0    0  501 -0.00000000000E+00  0.00000000000E+00  0.45004663243E+02  0.45004663243E+02  0.00000000000E+00 0.  1.
          2   -1    0    0  501    0  0.00000000000E+00 -0.00000000000E+00 -0.80996383611E+02  0.80996383611E+02  0.00000000000E+00 0. -1.
         23    2    1    2    0    0  0.15567066917E+02 -0.18059707101E+02 -0.41725078906E+02  0.10147844518E+03  0.89377883352E+02 0.  0.
         11    1    3    3    0    0 -0.28928287341E+01 -0.24126137162E+02 -0.66031088634E+02  0.70360099621E+02  0.00000000000E+00 0. -1.
        -11    1    3    3    0    0  0.18459895651E+02  0.60664300611E+01  0.24306009728E+02  0.31118345554E+02  0.00000000000E+00 0.  1.
         22    1    1    2    0    0 -0.15567066917E+02  0.18059707101E+02  0.57333585383E+01  0.24522601679E+02  0.00000000000E+00 0. -1.
<mgrwt>
<rscale>  0 0.65911100E+02</rscale>
<asrwt>0</asrwt>
<pdfrwt beam="1">  1        2 0.12460982E-01 0.92503474E+02</pdfrwt>
<pdfrwt beam="2">  1       -2 0.69237944E-02 0.92503474E+02</pdfrwt>
<totfact> 0.50000146E+04</totfact>
</mgrwt>
</event>
<event>
 6    1  0.2866116E-002  0.8967370E+02  0.7546771E-02  0.1403529E+00
          2   -1    0    0  501    0  0.00000000000E+00  0.00000000000E+00  0.59196140721E+03  0.59196140721E+03  0.00000000000E+00 0. -1.
         -2   -1    0    0    0  501 -0.00000000000E+00 -0.00000000000E+00 -0.49065988510E+01  0.49065988510E+01  0.00000000000E+00 0.  1.
         23    2    1    2    0    0  0.13479776545E+02 -0.93823750534E+01  0.52849101947E+03  0.53604489609E+03  0.88156903461E+02 0.  0.
         13    1    3    3    0    0  0.27189494015E+02  0.13257336803E+02  0.63874791846E+02  0.70675417206E+02  0.00000000000E+00 0.  1.
        -13    1    3    3    0    0 -0.13709717470E+02 -0.22639711857E+02  0.46461622762E+03  0.46536947889E+03  0.00000000000E+00 0. -1.
         22    1    1    2    0    0 -0.13479776545E+02  0.93823750534E+01  0.58563788888E+02  0.60823109968E+02  0.00000000000E+00 0.  1.
<mgrwt>
<rscale>  0 0.58663187E+02</rscale>
<asrwt>0</asrwt>
<pdfrwt beam="1">  1        2 0.91070929E-01 0.89673703E+02</pdfrwt>
<pdfrwt beam="2">  1       -2 0.75486183E-03 0.89673703E+02</pdfrwt>
<totfact> 0.14141770E+05</totfact>
</mgrwt>
</event>
<event>
 6    1  0.2866116E-002  0.9066780E+02  0.7546771E-02  0.1424475E+00
         -2   -1    0    0    0  501 -0.00000000000E+00  0.00000000000E+00  0.53223042439E+03  0.53223042439E+03  0.00000000000E+00 0.  1.
          2   -1    0    0  501    0  0.00000000000E+00 -0.00000000000E+00 -0.49067450313E+01  0.49067450313E+01  0.00000000000E+00 0. -1.
         23    2    1    2    0    0  0.10413265916E+02 -0.48336518835E+01  0.46211610116E+03  0.47092668270E+03  0.89938029933E+02 0.  0.
         13    1    3    3    0    0  0.31931195793E+02  0.18900186165E+02  0.88828771803E+02  0.96267175101E+02  0.00000000000E+00 0. -1.
        -13    1    3    3    0    0 -0.21517929877E+02 -0.23733838048E+02  0.37328732936E+03  0.37465950760E+03  0.00000000000E+00 0.  1.
         22    1    1    2    0    0 -0.10413265916E+02  0.48336518835E+01  0.65207578198E+02  0.66210486722E+02  0.00000000000E+00 0. -1.
<mgrwt>
<rscale>  0 0.54085313E+02</rscale>
<asrwt>0</asrwt>
<pdfrwt beam="1">  1        2 0.75488427E-03 0.90667798E+02</pdfrwt>
<pdfrwt beam="2">  1       -2 0.81881558E-01 0.90667798E+02</pdfrwt>
<totfact> 0.25218325E+04</totfact>
</mgrwt>
</event>
<event>
 6    1  0.2866116E-002  0.9951232E+02  0.7546771E-02  0.1330993E+00
          1   -1    0    0  501    0  0.00000000000E+00  0.00000000000E+00  0.56684547618E+03  0.56684547618E+03  0.00000000000E+00 0.  1.
         -1   -1    0    0    0  501 -0.00000000000E+00 -0.00000000000E+00 -0.95312191186E+01  0.95312191186E+01  0.00000000000E+00 0. -1.
         23    2    1    2    0    0 -0.12604622427E+02 -0.38140270064E+02  0.46773085359E+03  0.47819959571E+03  0.91044742985E+02 0.  0.
         13    1    3    3    0    0 -0.29495739812E+02  0.22038410965E+02  0.18782382544E+03  0.19139874510E+03  0.00000000000E+00 0. -1.
        -13    1    3    3    0    0  0.16891117385E+02 -0.60178681030E+02  0.27990702815E+03  0.28680085060E+03  0.00000000000E+00 0.  1.
         22    1    1    2    0    0  0.12604622427E+02  0.38140270064E+02  0.89583403471E+02  0.98177099593E+02  0.00000000000E+00 0. -1.
<mgrwt>
<rscale>  0 0.79319628E+02</rscale>
<asrwt>0</asrwt>
<pdfrwt beam="1">  1        1 0.87206970E-01 0.99512321E+02</pdfrwt>
<pdfrwt beam="2">  1       -1 0.14663418E-02 0.99512321E+02</pdfrwt>
<totfact> 0.37064694E+04</totfact>
</mgrwt>
</event>
<event>
 6    1  0.2866116E-002  0.9109150E+02  0.7546771E-02  0.1428413E+00
         -2   -1    0    0    0  501 -0.00000000000E+00  0.00000000000E+00  0.28587028491E+01  0.28587028491E+01  0.00000000000E+00 0. -1.
          2   -1    0    0  501    0  0.00000000000E+00 -0.00000000000E+00 -0.16290783331E+04  0.16290783331E+04  0.00000000000E+00 0.  1.
         23    2    1    2    0    0 -0.89449629897E+00 -0.10623933222E+02 -0.16097026170E+04  0.16122779463E+04  0.90465422752E+02 0.  0.
         11    1    3    3    0    0  0.14414517111E+01  0.16538728460E+01 -0.15806451336E+04  0.15806466561E+04  0.00000000000E+00 0.  1.
        -11    1    3    3    0    0 -0.23359480101E+01 -0.12277806068E+02 -0.29057483409E+02  0.31631290157E+02  0.00000000000E+00 0. -1.
         22    1    1    2    0    0  0.89449629897E+00  0.10623933222E+02 -0.16517013213E+02  0.19659089659E+02  0.00000000000E+00 0. -1.
<mgrwt>
<rscale>  0 0.53279875E+02</rscale>
<asrwt>0</asrwt>
<pdfrwt beam="1">  1        2 0.25062714E+00 0.91091497E+02</pdfrwt>
<pdfrwt beam="2">  1       -2 0.43980096E-03 0.91091497E+02</pdfrwt>
<totfact> 0.73979269E+04</totfact>
</mgrwt>
</event>
<event>
 6    1  0.2866116E-002  0.9369365E+02  0.7546771E-02  0.1403935E+00
         -2   -1    0    0    0  501 -0.00000000000E+00  0.00000000000E+00  0.37168188164E+01  0.37168188164E+01  0.00000000000E+00 0.  1.
          2   -1    0    0  501    0  0.00000000000E+00 -0.00000000000E+00 -0.83425356519E+03  0.83425356519E+03  0.00000000000E+00 0. -1.
         23    2    1    2    0    0 -0.58944229697E+01 -0.13036654252E+02 -0.77405020319E+03  0.77970008165E+03  0.92594825370E+02 0.  0.
         11    1    3    3    0    0 -0.37974739123E+02  0.17500854659E+02 -0.22397116127E+03  0.22784082559E+03  0.00000000000E+00 0.  1.
        -11    1    3    3    0    0  0.32080316154E+02 -0.30537508911E+02 -0.55007904192E+03  0.55185925606E+03  0.00000000000E+00 0. -1.
         22    1    1    2    0    0  0.58944229697E+01  0.13036654252E+02 -0.56486543175E+02  0.58270302351E+02  0.00000000000E+00 0. -1.
<mgrwt>
<rscale>  0 0.58569562E+02</rscale>
<asrwt>0</asrwt>
<pdfrwt beam="1">  1        2 0.12834698E+00 0.93693651E+02</pdfrwt>
<pdfrwt beam="2">  1       -2 0.57181702E-03 0.93693651E+02</pdfrwt>
<totfact> 0.14070793E+05</totfact>
</mgrwt>
</event>
<event>
 6    1  0.2866116E-002  0.8500746E+02  0.7546771E-02  0.1441451E+00
          1   -1    0    0  501    0  0.00000000000E+00  0.00000000000E+00  0.58831043986E+03  0.58831043986E+03  0.00000000000E+00 0. -1.
         -1   -1    0    0    0  501 -0.00000000000E+00 -0.00000000000E+00 -0.39473346402E+01  0.39473346402E+01  0.00000000000E+00 0.  1.
         23    2    1    2    0    0 -0.10336332409E+02 -0.30626502420E+01  0.53672173923E+03  0.54341190111E+03  0.84321108321E+02 0.  0.
         11    1    3    3    0    0  0.29536416025E+01 -0.63406555239E+01  0.49700414023E+00  0.70124834620E+01  0.00000000000E+00 0.  1.
        -11    1    3    3    0    0 -0.13289974011E+02  0.32780052819E+01  0.53622473509E+03  0.53639941764E+03  0.00000000000E+00 0. -1.
         22    1    1    2    0    0  0.10336332409E+02  0.30626502420E+01  0.47641365987E+02  0.48845873390E+02  0.00000000000E+00 0.  1.
<mgrwt>
<rscale>  0 0.50728581E+02</rscale>
<asrwt>0</asrwt>
<pdfrwt beam="1">  1        1 0.90509229E-01 0.85007464E+02</pdfrwt>
<pdfrwt beam="2">  1       -1 0.60728272E-03 0.85007464E+02</pdfrwt>
<totfact> 0.11976941E+05</totfact>
</mgrwt>
</event>
<event>
 6    1  0.2866116E-002  0.9398993E+02  0.7546771E-02  0.1407410E+00
         -2   -1    0    0    0  501 -0.00000000000E+00  0.00000000000E+00  0.71578434933E+01  0.71578434933E+01  0.00000000000E+00 0.  1.
          2   -1    0    0  501    0  0.00000000000E+00 -0.00000000000E+00 -0.16050849582E+04  0.16050849582E+04  0.00000000000E+00 0. -1.
         23    2    1    2    0    0 -0.75684798255E+00  0.13398159657E+02 -0.15959066958E+04  0.15986720393E+04  0.93027006524E+02 0.  0.
         11    1    3    3    0    0 -0.19391419428E+02  0.72235540974E+01 -0.15238103913E+04  0.15239508901E+04  0.00000000000E+00 0. -1.
        -11    1    3    3    0    0  0.18634571445E+02  0.61746055593E+01 -0.72096304480E+02  0.74721149124E+02  0.00000000000E+00 0.  1.
         22    1    1    2    0    0  0.75684798255E+00 -0.13398159657E+02 -0.20204189439E+01  0.13570762461E+02  0.00000000000E+00 0.  1.
<mgrwt>
<rscale>  0 0.57775704E+02</rscale>
<asrwt>0</asrwt>
<pdfrwt beam="1">  1        2 0.24693615E+00 0.93989933E+02</pdfrwt>
<pdfrwt beam="2">  1       -2 0.11012067E-02 0.93989933E+02</pdfrwt>
<totfact> 0.20940405E+04</totfact>
</mgrwt>
</event>
<event>
 6    1  0.2866116E-002  0.9407784E+02  0.7546771E-02  0.1397281E+00
          1   -1    0    0  501    0  0.00000000000E+00  0.00000000000E+00  0.26506841849E+02  0.26506841849E+02  0.00000000000E+00 0. -1.
         -1   -1    0    0    0  501 -0.00000000000E+00 -0.00000000000E+00 -0.11390897852E+03  0.11390897852E+03  0.00000000000E+00 0.  1.
         23    2    1    2    0    0  0.80683312850E+01  0.13470087509E+02 -0.72553380954E+02  0.11880501813E+03  0.92758277351E+02 0.  0.
         13    1    3    3    0    0  0.16583239925E+02 -0.80891693102E+01 -0.88672310824E+02  0.90571613729E+02  0.00000000000E+00 0.  1.
        -13    1    3    3    0    0 -0.85149086403E+01  0.21559256819E+02  0.16118929870E+02  0.28233404398E+02  0.00000000000E+00 0. -1.
         22    1    1    2    0    0 -0.80683312850E+01 -0.13470087509E+02 -0.14848755722E+02  0.21610802246E+02  0.00000000000E+00 0.  1.
<mgrwt>
<rscale>  0 0.60131451E+02</rscale>
<asrwt>0</asrwt>
<pdfrwt beam="1">  1        1 0.40779757E-02 0.94077836E+02</pdfrwt>
<pdfrwt beam="2">  1       -1 0.17524458E-01 0.94077836E+02</pdfrwt>
<totfact> 0.47866162E+04</totfact>
</mgrwt>
</event>
<event>
 6    1  0.2866116E-002  0.9294850E+02  0.7546771E-02  0.1389111E+00
          1   -1    0    0  501    0  0.00000000000E+00  0.00000000000E+00  0.14114493362E+03  0.14114493362E+03  0.00000000000E+00 0. -1.
         -1   -1    0    0    0  501 -0.00000000000E+00 -0.00000000000E+00 -0.22303466525E+02  0.22303466525E+02  0.00000000000E+00 0.  1.
         23    2    1    2    0    0  0.32736210894E+01 -0.18262661696E+02  0.10544714692E+03  0.14056501709E+03  0.91077888799E+02 0.  0.
         11    1    3    3    0    0 -0.12455701746E+02 -0.42520165786E+01 -0.14034738960E+02  0.19240531402E+02  0.00000000000E+00 0.  1.
        -11    1    3    3    0    0  0.15729322835E+02 -0.14010645117E+02  0.11948188588E+03  0.12132448568E+03  0.00000000000E+00 0. -1.
         22    1    1    2    0    0 -0.32736210894E+01  0.18262661696E+02  0.13394320179E+02  0.22883383061E+02  0.00000000000E+00 0.  1.
<mgrwt>
<rscale>  0 0.62128329E+02</rscale>
<asrwt>0</asrwt>
<pdfrwt beam="1">  1        1 0.21714605E-01 0.92948498E+02</pdfrwt>
<pdfrwt beam="2">  1       -1 0.34313026E-02 0.92948498E+02</pdfrwt>
<totfact> 0.61204547E+04</totfact>
</mgrwt>
</event>
<event>
 6    1  0.2866116E-002  0.9016968E+02  0.7546771E-02  0.1423156E+00
          2   -1    0    0  501    0  0.00000000000E+00  0.00000000000E+00  0.12564158019E+04  0.12564158019E+04  0.00000000000E+00 0. -1.
         -2   -1    0    0    0  501 -0.00000000000E+00 -0.00000000000E+00 -0.23107607760E+01  0.23107607760E+01  0.00000000000E+00 0.  1.
         23    2    1    2    0    0  0.11903929088E+02 -0.36791174869E+00  0.11970768603E+04  0.12004680672E+04  0.89379706980E+02 0.  0.
         13    1    3    3    0    0  0.12802627983E+01  0.31508529068E+02  0.10035992015E+04  0.10040945094E+04  0.00000000000E+00 0. -1.
        -13    1    3    3    0    0  0.10623666290E+02 -0.31876440816E+02  0.19347765878E+03  0.19637355783E+03  0.00000000000E+00 0.  1.
         22    1    1    2    0    0 -0.11903929088E+02  0.36791174869E+00  0.57028180837E+02  0.58258495486E+02  0.00000000000E+00 0. -1.
<mgrwt>
<rscale>  0 0.54358793E+02</rscale>
<asrwt>0</asrwt>
<pdfrwt beam="1">  1        2 0.19329419E+00 0.90169678E+02</pdfrwt>
<pdfrwt beam="2">  1       -2 0.35550266E-03 0.90169678E+02</pdfrwt>
<totfact> 0.15493880E+05</totfact>
</mgrwt>
</event>
<event>
 6    1  0.2866116E-002  0.9211096E+02  0.7546771E-02  0.1385588E+00
          1   -1    0    0  501    0  0.00000000000E+00  0.00000000000E+00  0.26071949177E+03  0.26071949177E+03  0.00000000000E+00 0. -1.
         -1   -1    0    0    0  501 -0.00000000000E+00 -0.00000000000E+00 -0.12092138366E+02  0.12092138366E+02  0.00000000000E+00 0.  1.
         23    2    1    2    0    0  0.78739278646E+01  0.18580052308E+02  0.20281438918E+03  0.22275121889E+03  0.89873310679E+02 0.  0.
         11    1    3    3    0    0  0.44531411742E+02 -0.20412869832E+01  0.66209453239E+02  0.79817950252E+02  0.00000000000E+00 0.  1.
        -11    1    3    3    0    0 -0.36657483878E+02  0.20621339291E+02  0.13660493594E+03  0.14293326863E+03  0.00000000000E+00 0. -1.
         22    1    1    2    0    0 -0.78739278646E+01 -0.18580052308E+02  0.45812964226E+02  0.50060411255E+02  0.00000000000E+00 0.  1.
<mgrwt>
<rscale>  0 0.63017582E+02</rscale>
<asrwt>0</asrwt>
<pdfrwt beam="1">  1        1 0.40110687E-01 0.92110961E+02</pdfrwt>
<pdfrwt beam="2">  1       -1 0.18603292E-02 0.92110961E+02</pdfrwt>
<totfact> 0.69109745E+04</totfact>
</mgrwt>
</event>
<event>
 6    1  0.2866116E-002  0.9132441E+02  0.7546771E-02  0.1427794E+00
          2   -1    0    0  501    0  0.00000000000E+00  0.00000000000E+00  0.10169128025E+04  0.10169128025E+04  0.00000000000E+00 0. -1.
         -2   -1    0    0    0  501 -0.00000000000E+00 -0.00000000000E+00 -0.45789375875E+01  0.45789375875E+01  0.00000000000E+00 0.  1.
         23    2    1    2    0    0 -0.94478996969E+01 -0.49803046441E+01  0.10034570528E+04  0.10076041904E+04  0.90697747659E+02 0.  0.
         11    1    3    3    0    0  0.31788291082E+02  0.19992053591E+02  0.27477465389E+03  0.27732884465E+03  0.00000000000E+00 0.  1.
        -11    1    3    3    0    0 -0.41236190779E+02 -0.24972358235E+02  0.72868239894E+03  0.73027534577E+03  0.00000000000E+00 0. -1.
         22    1    1    2    0    0  0.94478996969E+01  0.49803046441E+01  0.88768120780E+01  0.13887549665E+02  0.00000000000E+00 0. -1.
<mgrwt>
<rscale>  0 0.53405354E+02</rscale>
<asrwt>0</asrwt>
<pdfrwt beam="1">  1        2 0.15644794E+00 0.91324409E+02</pdfrwt>
<pdfrwt beam="2">  1       -2 0.70445275E-03 0.91324409E+02</pdfrwt>
<totfact> 0.80855800E+04</totfact>
</mgrwt>
</event>
<event>
 6    1  0.2866116E-002  0.9133372E+02  0.7546771E-02  0.1407208E+00
         -2   -1    0    0    0  501 -0.00000000000E+00  0.00000000000E+00  0.91433064055E+02  0.91433064055E+02  0.00000000000E+00 0.  1.
          2   -1    0    0  501    0  0.00000000000E+00 -0.00000000000E+00 -0.39436845809E+02  0.39436845809E+02  0.00000000000E+00 0. -1.
         23    2    1    2    0    0 -0.10895673985E+02 -0.98249567788E+01  0.16972316936E+02  0.92897299336E+02  0.90147674371E+02 0.  0.
         13    1    3    3    0    0 -0.24814132721E+02 -0.41386662046E+02 -0.97899222944E+01  0.49238598239E+02  0.00000000000E+00 0. -1.
        -13    1    3    3    0    0  0.13918458736E+02  0.31561705267E+02  0.26762239230E+02  0.43658701098E+02  0.00000000000E+00 0.  1.
         22    1    1    2    0    0  0.10895673985E+02  0.98249567788E+01  0.35023901311E+02  0.37972610528E+02  0.00000000000E+00 0.  1.
<mgrwt>
<rscale>  0 0.57821602E+02</rscale>
<asrwt>0</asrwt>
<pdfrwt beam="1">  1        2 0.60672071E-02 0.91333721E+02</pdfrwt>
<pdfrwt beam="2">  1       -2 0.14066625E-01 0.91333721E+02</pdfrwt>
<totfact> 0.40123260E+04</totfact>
</mgrwt>
</event>
<event>
 6    1  0.2866116E-002  0.9419562E+02  0.7546771E-02  0.1367913E+00
          2   -1    0    0  501    0  0.00000000000E+00  0.00000000000E+00  0.17647934593E+02  0.17647934593E+02  0.00000000000E+00 0.  1.
         -2   -1    0    0    0  501 -0.00000000000E+00 -0.00000000000E+00 -0.20200040734E+03  0.20200040734E+03  0.00000000000E+00 0. -1.
         23    2    1    2    0    0  0.93829503456E+01  0.23398348665E+02 -0.14437262731E+03  0.17238407934E+03  0.90759532919E+02 0.  0.
         11    1    3    3    0    0 -0.37340359113E+02  0.20995181963E+01 -0.90682041627E+02  0.98091503551E+02  0.00000000000E+00 0. -1.
        -11    1    3    3    0    0  0.46723309459E+02  0.21298830469E+02 -0.53690585683E+02  0.74292575787E+02  0.00000000000E+00 0.  1.
         22    1    1    2    0    0 -0.93829503456E+01 -0.23398348665E+02 -0.39979845436E+02  0.47264262594E+02  0.00000000000E+00 0.  1.
<mgrwt>
<rscale>  0 0.67750796E+02</rscale>
<asrwt>0</asrwt>
<pdfrwt beam="1">  1        2 0.27150671E-02 0.94195622E+02</pdfrwt>
<pdfrwt beam="2">  1       -2 0.31076983E-01 0.94195622E+02</pdfrwt>
<totfact> 0.30138072E+04</totfact>
</mgrwt>
</event>
<event>
 6    1  0.2866116E-002  0.6054119E+02  0.7546771E-02  0.1515008E+00
          2   -1    0    0  501    0  0.00000000000E+00  0.00000000000E+00  0.10060968144E+04  0.10060968144E+04  0.00000000000E+00 0.  1.
         -2   -1    0    0    0  501 -0.00000000000E+00 -0.00000000000E+00 -0.24606404846E+01  0.24606404846E+01  0.00000000000E+00 0. -1.
         23    2    1    2    0    0  0.98058471055E+01 -0.38197707487E+01  0.98711200900E+03  0.98896681139E+03  0.59619547455E+02 0.  0.
         11    1    3    3    0    0 -0.21907400332E+02 -0.25668582883E+01  0.19951043156E+03  0.20072602036E+03  0.00000000000E+00 0. -1.
        -11    1    3    3    0    0  0.31713247437E+02 -0.12529124605E+01  0.78760157744E+03  0.78824079103E+03  0.00000000000E+00 0.  1.
         22    1    1    2    0    0 -0.98058471055E+01  0.38197707487E+01  0.16524164878E+02  0.19590643454E+02  0.00000000000E+00 0. -1.
<mgrwt>
<rscale>  0 0.39091188E+02</rscale>
<asrwt>0</asrwt>
<pdfrwt beam="1">  1        2 0.15478380E+00 0.60541190E+02</pdfrwt>
<pdfrwt beam="2">  1       -2 0.37856088E-03 0.60541190E+02</pdfrwt>
<totfact> 0.18371925E+05</totfact>
</mgrwt>
</event>
<event>
 6    1  0.2866116E-002  0.7210536E+02  0.7546771E-02  0.1440310E+00
         -1   -1    0    0    0  501 -0.00000000000E+00  0.00000000000E+00  0.73728693493E+02  0.73728693493E+02  0.00000000000E+00 0.  1.
          1   -1    0    0  501    0  0.00000000000E+00 -0.00000000000E+00 -0.30898339009E+02  0.30898339009E+02  0.00000000000E+00 0. -1.
         23    2    1    2    0    0  0.66132077545E+01  0.16707033928E+02  0.18607921334E+02  0.74467692868E+02  0.69830674099E+02 0.  0.
         11    1    3    3    0    0  0.21199003398E+02  0.16301719148E+02 -0.19869965943E+02  0.33316052269E+02  0.00000000000E+00 0. -1.
        -11    1    3    3    0    0 -0.14585795644E+02  0.40531478050E+00  0.38477887277E+02  0.41151640598E+02  0.00000000000E+00 0.  1.
         22    1    1    2    0    0 -0.66132077545E+01 -0.16707033928E+02  0.24222433150E+02  0.30159339635E+02  0.00000000000E+00 0. -1.
<mgrwt>
<rscale>  0 0.50945091E+02</rscale>
<asrwt>0</asrwt>
<pdfrwt beam="1">  1        1 0.47535906E-02 0.72105357E+02</pdfrwt>
<pdfrwt beam="2">  1       -1 0.11342876E-01 0.72105357E+02</pdfrwt>
<totfact> 0.72953925E+04</totfact>
</mgrwt>
</event>
<event>
 6    1  0.2866116E-002  0.9503176E+02  0.7546771E-02  0.1421687E+00
          2   -1    0    0  501    0  0.00000000000E+00  0.00000000000E+00  0.79072449242E+02  0.79072449242E+02  0.00000000000E+00 0. -1.
         -2   -1    0    0    0  501 -0.00000000000E+00 -0.00000000000E+00 -0.35249399320E+02  0.35249399320E+02  0.00000000000E+00 0.  1.
         23    2    1    2    0    0 -0.77264767451E+01  0.69691070064E+01  0.41281583084E+02  0.10361082858E+03  0.94460403354E+02 0.  0.
         13    1    3    3    0    0 -0.25715235127E+02  0.29350626654E+02  0.58357839679E+02  0.70202350777E+02  0.00000000000E+00 0. -1.
        -13    1    3    3    0    0  0.17988758382E+02 -0.22381519647E+02 -0.17076256595E+02  0.33408477804E+02  0.00000000000E+00 0.  1.
         22    1    1    2    0    0  0.77264767451E+01 -0.69691070064E+01  0.25414668375E+01  0.10711019982E+02  0.00000000000E+00 0.  1.
<mgrwt>
<rscale>  0 0.54665525E+02</rscale>
<asrwt>0</asrwt>
<pdfrwt beam="1">  1        2 0.12164992E-01 0.95031756E+02</pdfrwt>
<pdfrwt beam="2">  1       -2 0.54229845E-02 0.95031756E+02</pdfrwt>
<totfact> 0.74564950E+04</totfact>
</mgrwt>
</event>
<event>
 6    1  0.2866116E-002  0.9237510E+02  0.7546771E-02  0.1407214E+00
         -2   -1    0    0    0  501 -0.00000000000E+00  0.00000000000E+00  0.45487047067E+02  0.45487047067E+02  0.00000000000E+00 0.  1.
          2   -1    0    0  501    0  0.00000000000E+00 -0.00000000000E+00 -0.28477717402E+03  0.28477717402E+03  0.00000000000E+00 0. -1.
         23    2    1    2    0    0 -0.51044400279E+01 -0.13228463636E+02 -0.27592705677E+03  0.29097920887E+03  0.91280401933E+02 0.  0.
         13    1    3    3    0    0  0.89918541636E+01 -0.29224187724E+01  0.41734162108E+01  0.10334958909E+02  0.00000000000E+00 0.  1.
        -13    1    3    3    0    0 -0.14096294191E+02 -0.10306044864E+02 -0.28010047298E+03  0.28064424996E+03  0.00000000000E+00 0. -1.
         22    1    1    2    0    0  0.51044400279E+01  0.13228463636E+02  0.36636929820E+02  0.39285012216E+02  0.00000000000E+00 0.  1.
<mgrwt>
<rscale>  0 0.57820061E+02</rscale>
<asrwt>0</asrwt>
<pdfrwt beam="1">  1        2 0.43811873E-01 0.92375101E+02</pdfrwt>
<pdfrwt beam="2">  1       -2 0.69980072E-02 0.92375101E+02</pdfrwt>
<totfact> 0.12288785E+04</totfact>
</mgrwt>
</event>
<event>
 6    1  0.2866116E-002  0.9433574E+02  0.7546771E-02  0.1387052E+00
          2   -1    0    0  501    0  0.00000000000E+00  0.00000000000E+00  0.24643739264E+03  0.24643739264E+03  0.00000000000E+00 0. -1.
         -2   -1    0    0    0  501 -0.00000000000E+00 -0.00000000000E+00 -0.14278050933E+02  0.14278050933E+02  0.00000000000E+00 0.  1.
         23    2    1    2    0    0  0.16026685686E+02 -0.89285669341E+01  0.21801668334E+03  0.23755105825E+03  0.92534626502E+02 0.  0.
         13    1    3    3    0    0  0.23484043043E+02  0.79444322868E+01  0.70430581890E+01  0.25772445570E+02  0.00000000000E+00 0.  1.
        -13    1    3    3    0    0 -0.74573573571E+01 -0.16872999221E+02  0.21097362515E+03  0.21177861268E+03  0.00000000000E+00 0. -1.
         22    1    1    2    0    0 -0.16026685686E+02  0.89285669341E+01  0.14142658371E+02  0.23164385322E+02  0.00000000000E+00 0.  1.
<mgrwt>
<rscale>  0 0.62645841E+02</rscale>
<asrwt>0</asrwt>
<pdfrwt beam="1">  1        2 0.37913442E-01 0.94335736E+02</pdfrwt>
<pdfrwt beam="2">  1       -2 0.21966234E-02 0.94335736E+02</pdfrwt>
<totfact> 0.78993918E+04</totfact>
</mgrwt>
</event>
<event>
 6    1  0.2866116E-002  0.8977496E+02  0.7546771E-02  0.1428575E+00
         -2   -1    0    0    0  501 -0.00000000000E+00  0.00000000000E+00  0.62633898548E+01  0.62633898548E+01  0.00000000000E+00 0.  1.
          2   -1    0    0  501    0  0.00000000000E+00 -0.00000000000E+00 -0.49421278028E+03  0.49421278028E+03  0.00000000000E+00 0. -1.
         23    2    1    2    0    0 -0.99993556584E+01  0.48423631145E+01 -0.47502041646E+03  0.48342935336E+03  0.89084836254E+02 0.  0.
         13    1    3    3    0    0  0.31294228409E+02  0.19750678380E+02 -0.32550090184E+03  0.32759770318E+03  0.00000000000E+00 0.  1.
        -13    1    3    3    0    0 -0.41293584067E+02 -0.14908315265E+02 -0.14951951461E+03  0.15583165018E+03  0.00000000000E+00 0. -1.
         22    1    1    2    0    0  0.99993556584E+01 -0.48423631145E+01 -0.12928973971E+02  0.17046816772E+02  0.00000000000E+00 0.  1.
<mgrwt>
<rscale>  0 0.53247163E+02</rscale>
<asrwt>0</asrwt>
<pdfrwt beam="1">  1        2 0.76032728E-01 0.89774961E+02</pdfrwt>
<pdfrwt beam="2">  1       -2 0.96359854E-03 0.89774961E+02</pdfrwt>
<totfact> 0.12211660E+05</totfact>
</mgrwt>
</event>
<event>
 6    1  0.2866116E-002  0.9725034E+02  0.7546771E-02  0.1380486E+00
          1   -1    0    0  501    0  0.00000000000E+00  0.00000000000E+00  0.45324240073E+03  0.45324240073E+03  0.00000000000E+00 0. -1.
         -1   -1    0    0    0  501 -0.00000000000E+00 -0.00000000000E+00 -0.30470717799E+02  0.30470717799E+02  0.00000000000E+00 0.  1.
         23    2    1    2    0    0 -0.16496374089E+02  0.86509973980E+01  0.44454562273E+03  0.45505871978E+03  0.95449765041E+02 0.  0.
         11    1    3    3    0    0 -0.53966607987E+02 -0.78997643109E+01  0.21025251633E+03  0.21721169784E+03  0.00000000000E+00 0.  1.
        -11    1    3    3    0    0  0.37470233898E+02  0.16550761709E+02  0.23429310639E+03  0.23784702194E+03  0.00000000000E+00 0. -1.
         22    1    1    2    0    0  0.16496374089E+02 -0.86509973980E+01 -0.21773939791E+02  0.28654398757E+02  0.00000000000E+00 0. -1.
<mgrwt>
<rscale>  0 0.64336116E+02</rscale>
<asrwt>0</asrwt>
<pdfrwt beam="1">  1        1 0.69729595E-01 0.97250336E+02</pdfrwt>
<pdfrwt beam="2">  1       -1 0.46878031E-02 0.97250336E+02</pdfrwt>
<totfact> 0.92646121E+03</totfact>
</mgrwt>
</event>
<event>
 6    1  0.2866116E-002  0.1106786E+03  0.7546771E-02  0.1288893E+00
          2   -1    0    0  501    0  0.00000000000E+00  0.00000000000E+00  0.95553261646E+02  0.95553261646E+02  0.00000000000E+00 0. -1.
         -2   -1    0    0    0  501 -0.00000000000E+00 -0.00000000000E+00 -0.11727439409E+03  0.11727439409E+03  0.00000000000E+00 0.  1.
         23    2    1    2    0    0  0.56978491490E+02 -0.26168644193E+02  0.46606630826E+02  0.12009131084E+03  0.91205254624E+02 0.  0.
         11    1    3    3    0    0  0.18850448115E+02 -0.40070691306E+02  0.62422670719E+02  0.76534890838E+02  0.00000000000E+00 0. -1.
        -11    1    3    3    0    0  0.38128043374E+02  0.13902047113E+02 -0.15816039893E+02  0.43556420002E+02  0.00000000000E+00 0.  1.
         22    1    1    2    0    0 -0.56978491490E+02  0.26168644193E+02 -0.68327763272E+02  0.92736344898E+02  0.00000000000E+00 0.  1.
<mgrwt>
<rscale>  0 0.96020797E+02</rscale>
<asrwt>0</asrwt>
<pdfrwt beam="1">  1        2 0.14700502E-01 0.11067857E+03</pdfrwt>
<pdfrwt beam="2">  1       -2 0.18042215E-01 0.11067857E+03</pdfrwt>
<totfact> 0.92590534E+03</totfact>
</mgrwt>
</event>
<event>
 6    1  0.2866116E-002  0.9630670E+02  0.7546771E-02  0.1391173E+00
         -1   -1    0    0    0  501 -0.00000000000E+00  0.00000000000E+00  0.70530744767E+01  0.70530744767E+01  0.00000000000E+00 0.  1.
          1   -1    0    0  501    0  0.00000000000E+00 -0.00000000000E+00 -0.45063675303E+03  0.45063675303E+03  0.00000000000E+00 0. -1.
         23    2    1    2    0    0 -0.16114618049E+02  0.83450595644E+00 -0.39100307483E+03  0.40268894385E+03  0.94945266643E+02 0.  0.
         11    1    3    3    0    0  0.62876331806E+01 -0.23918661831E+02 -0.34480250539E+03  0.34568830533E+03  0.00000000000E+00 0. -1.
        -11    1    3    3    0    0 -0.22402251230E+02  0.24753167788E+02 -0.46200569435E+02  0.57000638521E+02  0.00000000000E+00 0.  1.
         22    1    1    2    0    0  0.16114618049E+02 -0.83450595644E+00 -0.52580603729E+02  0.55000883662E+02  0.00000000000E+00 0.  1.
<mgrwt>
<rscale>  0 0.61615897E+02</rscale>
<asrwt>0</asrwt>
<pdfrwt beam="1">  1        1 0.69328733E-01 0.96306703E+02</pdfrwt>
<pdfrwt beam="2">  1       -1 0.10850884E-02 0.96306703E+02</pdfrwt>
<totfact> 0.76102961E+04</totfact>
</mgrwt>
</event>
<event>
 6    1  0.2866116E-002  0.9342419E+02  0.7546771E-02  0.1374222E+00
         -2   -1    0    0    0  501 -0.00000000000E+00  0.00000000000E+00  0.42895446302E+01  0.42895446302E+01  0.00000000000E+00 0.  1.
          2   -1    0    0  501    0  0.00000000000E+00 -0.00000000000E+00 -0.11417035459E+04  0.11417035459E+04  0.00000000000E+00 0. -1.
         23    2    1    2    0    0  0.40023429201E+01  0.22933579556E+02 -0.10800795900E+04  0.10841125400E+04  0.90477128610E+02 0.  0.
         11    1    3    3    0    0  0.39118871420E+02 -0.14329773176E+02 -0.42623574208E+03  0.42826689847E+03  0.00000000000E+00 0.  1.
        -11    1    3    3    0    0 -0.35116528499E+02  0.37263352732E+02 -0.65384384791E+03  0.65584564151E+03  0.00000000000E+00 0. -1.
         22    1    1    2    0    0 -0.40023429201E+01 -0.22933579556E+02 -0.57334411288E+02  0.61880550562E+02  0.00000000000E+00 0.  1.
<mgrwt>
<rscale>  0 0.66007180E+02</rscale>
<asrwt>0</asrwt>
<pdfrwt beam="1">  1        2 0.17564670E+00 0.93424186E+02</pdfrwt>
<pdfrwt beam="2">  1       -2 0.65992993E-03 0.93424186E+02</pdfrwt>
<totfact> 0.75516867E+04</totfact>
</mgrwt>
</event>
<event>
 6    1  0.2866116E-002  0.9035559E+02  0.7546771E-02  0.1424037E+00
         -2   -1    0    0    0  501 -0.00000000000E+00  0.00000000000E+00  0.47943451583E+01  0.47943451583E+01  0.00000000000E+00 0.  1.
          2   -1    0    0  501    0  0.00000000000E+00 -0.00000000000E+00 -0.79286516052E+03  0.79286516052E+03  0.00000000000E+00 0. -1.
         23    2    1    2    0    0 -0.10078387238E+02  0.58988252678E+01 -0.77451353688E+03  0.77976621564E+03  0.89597780103E+02 0.  0.
         13    1    3    3    0    0 -0.27198953705E+02 -0.92077922425E+01 -0.72117168525E+03  0.72174314415E+03  0.00000000000E+00 0. -1.
        -13    1    3    3    0    0  0.17120566467E+02  0.15106617510E+02 -0.53341851632E+02  0.58023071483E+02  0.00000000000E+00 0.  1.
         22    1    1    2    0    0  0.10078387238E+02 -0.58988252678E+01 -0.13557278475E+02  0.17893290042E+02  0.00000000000E+00 0.  1.
<mgrwt>
<rscale>  0 0.54175899E+02</rscale>
<asrwt>0</asrwt>
<pdfrwt beam="1">  1        2 0.12197922E+00 0.90355588E+02</pdfrwt>
<pdfrwt beam="2">  1       -2 0.73759177E-03 0.90355588E+02</pdfrwt>
<totfact> 0.10418289E+05</totfact>
</mgrwt>
</event>
<event>
 6    1  0.2866116E-002  0.9350917E+02  0.7546771E-02  0.1377351E+00
         -1   -1    0    0    0  501 -0.00000000000E+00  0.00000000000E+00  0.42019709582E+02  0.42019709582E+02  0.00000000000E+00 0.  1.
          1   -1    0    0  501    0  0.00000000000E+00 -0.00000000000E+00 -0.10839046815E+03  0.10839046815E+03  0.00000000000E+00 0. -1.
         23    2    1    2    0    0 -0.55629112221E+01 -0.21341544894E+02 -0.81191213105E+02  0.12383851252E+03  0.90871098691E+02 0.  0.
         13    1    3    3    0    0 -0.13564281839E+02  0.22169755273E+02 -0.74739701201E+02  0.79129708241E+02  0.00000000000E+00 0. -1.
        -13    1    3    3    0    0  0.80013706171E+01 -0.43511300166E+02 -0.64515119034E+01  0.44708804276E+02  0.00000000000E+00 0.  1.
         22    1    1    2    0    0  0.55629112221E+01  0.21341544894E+02  0.14820454536E+02  0.26571665216E+02  0.00000000000E+00 0.  1.
<mgrwt>
<rscale>  0 0.65165191E+02</rscale>
<asrwt>0</asrwt>
<pdfrwt beam="1">  1        1 0.16675457E-01 0.93509166E+02</pdfrwt>
<pdfrwt beam="2">  1       -1 0.64645707E-02 0.93509166E+02</pdfrwt>
<totfact> 0.33851403E+04</totfact>
</mgrwt>
</event>
<event>
 6    1  0.2866116E-002  0.9164551E+02  0.7546771E-02  0.1412732E+00
         -2   -1    0    0    0  501 -0.00000000000E+00  0.00000000000E+00  0.53456652004E+01  0.53456652004E+01  0.00000000000E+00 0.  1.
          2   -1    0    0  501    0  0.00000000000E+00 -0.00000000000E+00 -0.59910972055E+03  0.59910972055E+03  0.00000000000E+00 0. -1.
         23    2    1    2    0    0  0.13012103538E+02 -0.28583207510E+01 -0.56901948191E+03  0.57635238322E+03  0.90672013461E+02 0.  0.
         11    1    3    3    0    0 -0.97734631632E+01 -0.29282114962E+02 -0.75032215432E+02  0.81134432835E+02  0.00000000000E+00 0.  1.
        -11    1    3    3    0    0  0.22785566702E+02  0.26423794211E+02 -0.49398726647E+03  0.49521795039E+03  0.00000000000E+00 0. -1.
         22    1    1    2    0    0 -0.13012103538E+02  0.28583207510E+01 -0.24744573441E+02  0.28103002523E+02  0.00000000000E+00 0.  1.
<mgrwt>
<rscale>  0 0.56588546E+02</rscale>
<asrwt>0</asrwt>
<pdfrwt beam="1">  1        2 0.92170679E-01 0.91645506E+02</pdfrwt>
<pdfrwt beam="2">  1       -2 0.82241045E-03 0.91645506E+02</pdfrwt>
<totfact> 0.12405512E+05</totfact>
</mgrwt>
</event>
<event>
 6    1  0.2866116E-002  0.9951033E+02  0.7546771E-02  0.1333948E+00
         -2   -1    0    0    0  501 -0.00000000000E+00  0.00000000000E+00  0.13950505523E+03  0.13950505523E+03  0.00000000000E+00 0.  1.
          2   -1    0    0  501    0  0.00000000000E+00 -0.00000000000E+00 -0.47751136364E+02  0.47751136364E+02  0.00000000000E+00 0. -1.
         23    2    1    2    0    0 -0.21481316267E+01 -0.38083782333E+02  0.13790045134E+02  0.10046129224E+03  0.91909286516E+02 0.  0.
         11    1    3    3    0    0 -0.33706679396E+02 -0.14825574019E+02  0.39169199793E+02  0.53760246403E+02  0.00000000000E+00 0.  1.
        -11    1    3    3    0    0  0.31558547769E+02 -0.23258208313E+02 -0.25379154659E+02  0.46701045839E+02  0.00000000000E+00 0. -1.
         22    1    1    2    0    0  0.21481316267E+01  0.38083782333E+02  0.77963873736E+02  0.86794899355E+02  0.00000000000E+00 0.  1.
<mgrwt>
<rscale>  0 0.78299428E+02</rscale>
<asrwt>0</asrwt>
<pdfrwt beam="1">  1        2 0.73463288E-02 0.99510331E+02</pdfrwt>
<pdfrwt beam="2">  1       -2 0.21462316E-01 0.99510331E+02</pdfrwt>
<totfact> 0.15865988E+04</totfact>
</mgrwt>
</event>
<event>
 6    1  0.2866116E-002  0.9057065E+02  0.7546771E-02  0.1379811E+00
          2   -1    0    0  501    0  0.00000000000E+00  0.00000000000E+00  0.86496916232E+02  0.86496916232E+02  0.00000000000E+00 0. -1.
         -2   -1    0    0    0  501 -0.00000000000E+00 -0.00000000000E+00 -0.39552649206E+02  0.39552649206E+02  0.00000000000E+00 0.  1.
         23    2    1    2    0    0 -0.22731298578E+02  0.51852970989E+01  0.48394691217E+02  0.10268927924E+03  0.87518242048E+02 0.  0.
         13    1    3    3    0    0 -0.18865764403E+02 -0.23358247824E+02 -0.14625783752E+02  0.33398178967E+02  0.00000000000E+00 0.  1.
        -13    1    3    3    0    0 -0.38655341747E+01  0.28543544923E+02  0.63020474970E+02  0.69291100270E+02  0.00000000000E+00 0. -1.
         22    1    1    2    0    0  0.22731298578E+02 -0.51852970989E+01 -0.14504241904E+01  0.23360286201E+02  0.00000000000E+00 0.  1.
<mgrwt>
<rscale>  0 0.64513478E+02</rscale>
<asrwt>0</asrwt>
<pdfrwt beam="1">  1        2 0.13307218E-01 0.90570646E+02</pdfrwt>
<pdfrwt beam="2">  1       -2 0.60850230E-02 0.90570646E+02</pdfrwt>
<totfact> 0.56059668E+04</totfact>
</mgrwt>
</event>
<event>
 6    1  0.2866116E-002  0.9254191E+02  0.7546771E-02  0.1381754E+00
          2   -1    0    0  501    0  0.00000000000E+00  0.00000000000E+00  0.37728944069E+03  0.37728944069E+03  0.00000000000E+00 0. -1.
         -2   -1    0    0    0  501 -0.00000000000E+00 -0.00000000000E+00 -0.87088267389E+01  0.87088267389E+01  0.00000000000E+00 0.  1.
         23    2    1    2    0    0  0.72518086192E-01 -0.21175644016E+02  0.31723749828E+03  0.33045973409E+03  0.90086582704E+02 0.  0.
         13    1    3    3    0    0  0.25819422905E+02 -0.16649591388E+02  0.29364015040E+03  0.29524293289E+03  0.00000000000E+00 0. -1.
        -13    1    3    3    0    0 -0.25746904819E+02 -0.45260526272E+01  0.23597347877E+02  0.35216801203E+02  0.00000000000E+00 0.  1.
         22    1    1    2    0    0 -0.72518086192E-01  0.21175644016E+02  0.51343115676E+02  0.55538533341E+02  0.00000000000E+00 0. -1.
<mgrwt>
<rscale>  0 0.64004962E+02</rscale>
<asrwt>0</asrwt>
<pdfrwt beam="1">  1        2 0.58044517E-01 0.92541912E+02</pdfrwt>
<pdfrwt beam="2">  1       -2 0.13398198E-02 0.92541912E+02</pdfrwt>
<totfact> 0.10234935E+05</totfact>
</mgrwt>
</event>
<event>
 6    1  0.2866116E-002  0.9184266E+02  0.7546771E-02  0.1418945E+00
          1   -1    0    0  501    0  0.00000000000E+00  0.00000000000E+00  0.27798160305E+03  0.27798160305E+03  0.00000000000E+00 0. -1.
         -1   -1    0    0    0  501 -0.00000000000E+00 -0.00000000000E+00 -0.11388943169E+02  0.11388943169E+02  0.00000000000E+00 0.  1.
         23    2    1    2    0    0  0.10454232862E+01 -0.11977962560E+02  0.25981097025E+03  0.27556635080E+03  0.91052231908E+02 0.  0.
         11    1    3    3    0    0  0.34402409168E+02 -0.34565371453E+02  0.17509788665E+03  0.18176237392E+03  0.00000000000E+00 0. -1.
        -11    1    3    3    0    0 -0.33356985882E+02  0.22587408893E+02  0.84713083593E+02  0.93803976885E+02  0.00000000000E+00 0.  1.
         22    1    1    2    0    0 -0.10454232862E+01  0.11977962560E+02  0.67816896370E+01  0.13804195423E+02  0.00000000000E+00 0.  1.
<mgrwt>
<rscale>  0 0.55244752E+02</rscale>
<asrwt>0</asrwt>
<pdfrwt beam="1">  1        1 0.42766395E-01 0.91842656E+02</pdfrwt>
<pdfrwt beam="2">  1       -1 0.17521453E-02 0.91842656E+02</pdfrwt>
<totfact> 0.69577935E+04</totfact>
</mgrwt>
</event>
<event>
 6    1  0.2866116E-002  0.1287554E+03  0.7546771E-02  0.1291560E+00
         -2   -1    0    0    0  501 -0.00000000000E+00  0.00000000000E+00  0.92831597352E+01  0.92831597352E+01  0.00000000000E+00 0.  1.
          2   -1    0    0  501    0  0.00000000000E+00 -0.00000000000E+00 -0.21577209411E+04  0.21577209411E+04  0.00000000000E+00 0. -1.
         23    2    1    2    0    0 -0.34696003530E+02 -0.15217146831E+02 -0.21067178981E+04  0.21106487738E+04  0.12305515113E+03 0.  0.
         13    1    3    3    0    0 -0.46679639687E+02 -0.52084540425E+02 -0.18173929338E+04  0.18187382616E+04  0.00000000000E+00 0. -1.
        -13    1    3    3    0    0  0.11983636157E+02  0.36867393595E+02 -0.28932496425E+03  0.29191051228E+03  0.00000000000E+00 0.  1.
         22    1    1    2    0    0  0.34696003530E+02  0.15217146831E+02 -0.41719883274E+02  0.56355326980E+02  0.00000000000E+00 0.  1.
<mgrwt>
<rscale>  0 0.94829759E+02</rscale>
<asrwt>0</asrwt>
<pdfrwt beam="1">  1        2 0.33195706E+00 0.12875537E+03</pdfrwt>
<pdfrwt beam="2">  1       -2 0.14281785E-02 0.12875537E+03</pdfrwt>
<totfact> 0.76810712E+03</totfact>
</mgrwt>
</event>
<event>
 6    1  0.2866116E-002  0.2597716E+03  0.7546771E-02  0.1108977E+00
         -2   -1    0    0    0  501 -0.00000000000E+00  0.00000000000E+00  0.19370554857E+03  0.19370554857E+03  0.00000000000E+00 0.  1.
          2   -1    0    0  501    0  0.00000000000E+00 -0.00000000000E+00 -0.67561385276E+03  0.67561385276E+03  0.00000000000E+00 0. -1.
         23    2    1    2    0    0 -0.24866874856E+03 -0.63698087199E+01  0.65622536401E+02  0.26793205329E+03  0.74863521986E+02 0.  0.
         13    1    3    3    0    0 -0.11266154398E+03  0.34236769537E+02  0.26382069421E+02  0.12066811289E+03  0.00000000000E+00 0. -1.
        -13    1    3    3    0    0 -0.13600720458E+03 -0.40606578257E+02  0.39240466980E+02  0.14726394041E+03  0.00000000000E+00 0.  1.
         22    1    1    2    0    0  0.24866874856E+03  0.63698087199E+01 -0.54753084059E+03  0.60138734803E+03  0.00000000000E+00 0. -1.
<mgrwt>
<rscale>  0 0.25697130E+03</rscale>
<asrwt>0</asrwt>
<pdfrwt beam="1">  1        2 0.10394059E+00 0.25977157E+03</pdfrwt>
<pdfrwt beam="2">  1       -2 0.29800854E-01 0.25977157E+03</pdfrwt>
<totfact> 0.45641612E+02</totfact>
</mgrwt>
</event>
<event>
 6    1  0.2866116E-002  0.9377096E+02  0.7546771E-02  0.1379389E+00
          3   -1    0    0  501    0  0.00000000000E+00  0.00000000000E+00  0.21780845463E+03  0.21780845463E+03  0.00000000000E+00 0. -1.
         -3   -1    0    0    0  501 -0.00000000000E+00 -0.00000000000E+00 -0.16316553713E+02  0.16316553713E+02  0.00000000000E+00 0.  1.
         23    2    1    2    0    0 -0.99592287622E+00  0.21130327953E+02  0.18461229050E+03  0.20706204713E+03  0.91353768047E+02 0.  0.
         13    1    3    3    0    0 -0.56197174470E+01  0.17982303272E+02 -0.32485130892E+01  0.19117983482E+02  0.00000000000E+00 0.  1.
        -13    1    3    3    0    0  0.46237945707E+01  0.31480246816E+01  0.18786080359E+03  0.18794406365E+03  0.00000000000E+00 0. -1.
         22    1    1    2    0    0  0.99592287622E+00 -0.21130327953E+02  0.16879610418E+02  0.27062961213E+02  0.00000000000E+00 0.  1.
<mgrwt>
<rscale>  0 0.64624665E+02</rscale>
<asrwt>0</asrwt>
<pdfrwt beam="1">  1        3 0.33508991E-01 0.93770963E+02</pdfrwt>
<pdfrwt beam="2">  1       -3 0.25102392E-02 0.93770963E+02</pdfrwt>
<totfact> 0.12170065E+04</totfact>
</mgrwt>
</event>
<event>
 6    1  0.2866116E-002  0.9195284E+02  0.7546771E-02  0.1413424E+00
         -2   -1    0    0    0  501 -0.00000000000E+00  0.00000000000E+00  0.41372986751E+01  0.41372986751E+01  0.00000000000E+00 0.  1.
          2   -1    0    0  501    0  0.00000000000E+00 -0.00000000000E+00 -0.76010064734E+03  0.76010064734E+03  0.00000000000E+00 0. -1.
         23    2    1    2    0    0  0.65175387194E+01 -0.11303868500E+02 -0.72237901908E+03  0.72820791760E+03  0.91022350510E+02 0.  0.
         11    1    3    3    0    0  0.35830542620E+02 -0.11999297676E+02 -0.63332079466E+03  0.63444703473E+03  0.00000000000E+00 0. -1.
        -11    1    3    3    0    0 -0.29313003901E+02  0.69542917621E+00 -0.89058224419E+02  0.93760882868E+02  0.00000000000E+00 0.  1.
         22    1    1    2    0    0 -0.65175387194E+01  0.11303868500E+02 -0.33584329585E+02  0.36030028417E+02  0.00000000000E+00 0.  1.
<mgrwt>
<rscale>  0 0.56436695E+02</rscale>
<asrwt>0</asrwt>
<pdfrwt beam="1">  1        2 0.11693860E+00 0.91952836E+02</pdfrwt>
<pdfrwt beam="2">  1       -2 0.63650727E-03 0.91952836E+02</pdfrwt>
<totfact> 0.13523696E+05</totfact>
</mgrwt>
</event>
<event>
 6    1  0.2866116E-002  0.9103100E+02  0.7546771E-02  0.1412287E+00
          2   -1    0    0  501    0  0.00000000000E+00  0.00000000000E+00  0.48867357027E+03  0.48867357027E+03  0.00000000000E+00 0. -1.
         -2   -1    0    0    0  501 -0.00000000000E+00 -0.00000000000E+00 -0.69927615727E+01  0.69927615727E+01  0.00000000000E+00 0.  1.
         23    2    1    2    0    0  0.13136240167E+02  0.38485871322E+01  0.46618872447E+03  0.47499323091E+03  0.89995945209E+02 0.  0.
         13    1    3    3    0    0 -0.62504337712E+01  0.37505587005E+02  0.35856048860E+03  0.36057088203E+03  0.00000000000E+00 0. -1.
        -13    1    3    3    0    0  0.19386673939E+02 -0.33656999873E+02  0.10762823587E+03  0.11442234888E+03  0.00000000000E+00 0.  1.
         22    1    1    2    0    0 -0.13136240167E+02 -0.38485871322E+01  0.15492084225E+02  0.20673100936E+02  0.00000000000E+00 0.  1.
<mgrwt>
<rscale>  0 0.56686571E+02</rscale>
<asrwt>0</asrwt>
<pdfrwt beam="1">  1        2 0.75180523E-01 0.91030998E+02</pdfrwt>
<pdfrwt beam="2">  1       -2 0.10758099E-02 0.91030998E+02</pdfrwt>
<totfact> 0.10598038E+05</totfact>
</mgrwt>
</event>
<event>
 6    1  0.2866116E-002  0.9281188E+02  0.7546771E-02  0.1400206E+00
          1   -1    0    0  501    0  0.00000000000E+00  0.00000000000E+00  0.12939719111E+03  0.12939719111E+03  0.00000000000E+00 0. -1.
         -1   -1    0    0    0  501 -0.00000000000E+00 -0.00000000000E+00 -0.32408272587E+02  0.32408272587E+02  0.00000000000E+00 0.  1.
         23    2    1    2    0    0  0.15606214678E+02 -0.40383777145E+00  0.10822442453E+03  0.14257128535E+03  0.91489498420E+02 0.  0.
         11    1    3    3    0    0  0.38174892734E+02  0.33068772092E+02  0.74294032283E+02  0.89835791062E+02  0.00000000000E+00 0. -1.
        -11    1    3    3    0    0 -0.22568678055E+02 -0.33472609863E+02  0.33930392245E+02  0.52735494291E+02  0.00000000000E+00 0.  1.
         22    1    1    2    0    0 -0.15606214678E+02  0.40383777145E+00 -0.11235506003E+02  0.19234178347E+02  0.00000000000E+00 0.  1.
<mgrwt>
<rscale>  0 0.59437894E+02</rscale>
<asrwt>0</asrwt>
<pdfrwt beam="1">  1        1 0.19907260E-01 0.92811881E+02</pdfrwt>
<pdfrwt beam="2">  1       -1 0.49858882E-02 0.92811881E+02</pdfrwt>
<totfact> 0.39617470E+04</totfact>
</mgrwt>
</event>
<event>
 6    1  0.2866116E-002  0.8809528E+02  0.7546771E-02  0.1419708E+00
          2   -1    0    0  501    0  0.00000000000E+00  0.00000000000E+00  0.97370504443E+02  0.97370504443E+02  0.00000000000E+00 0. -1.
         -2   -1    0    0    0  501 -0.00000000000E+00 -0.00000000000E+00 -0.27327552178E+02  0.27327552178E+02  0.00000000000E+00 0.  1.
         23    2    1    2    0    0 -0.10303341033E+02 -0.86686832735E+01  0.67530606796E+02  0.11100072893E+03  0.87060174951E+02 0.  0.
         11    1    3    3    0    0 -0.14692458507E+02 -0.11304189991E+02 -0.17691472391E+02  0.25625012072E+02  0.00000000000E+00 0.  1.
        -11    1    3    3    0    0  0.43891174743E+01  0.26355067177E+01  0.85222079187E+02  0.85375716857E+02  0.00000000000E+00 0. -1.
         22    1    1    2    0    0  0.10303341033E+02  0.86686832735E+01  0.25123454689E+01  0.13697327692E+02  0.00000000000E+00 0. -1.
<mgrwt>
<rscale>  0 0.55082759E+02</rscale>
<asrwt>0</asrwt>
<pdfrwt beam="1">  1        2 0.14980077E-01 0.88095283E+02</pdfrwt>
<pdfrwt beam="2">  1       -2 0.42042388E-02 0.88095283E+02</pdfrwt>
<totfact> 0.84258766E+04</totfact>
</mgrwt>
</event>
<event>
 6    1  0.2866116E-002  0.9255783E+02  0.7546771E-02  0.1409358E+00
          2   -1    0    0  501    0  0.00000000000E+00  0.00000000000E+00  0.16830553224E+04  0.16830553224E+04  0.00000000000E+00 0. -1.
         -2   -1    0    0    0  501 -0.00000000000E+00 -0.00000000000E+00 -0.20188859688E+01  0.20188859688E+01  0.00000000000E+00 0.  1.
         23    2    1    2    0    0  0.13619518001E+02  0.54353865433E+00  0.16147682879E+04  0.16174188005E+04  0.91548707700E+02 0.  0.
         13    1    3    3    0    0 -0.36063684292E+02  0.48491302761E+01  0.98792845257E+03  0.98859836677E+03  0.00000000000E+00 0. -1.
        -13    1    3    3    0    0  0.49683202293E+02 -0.43055916217E+01  0.62683983530E+03  0.62882043369E+03  0.00000000000E+00 0.  1.
         22    1    1    2    0    0 -0.13619518001E+02 -0.54353865433E+00  0.66268148530E+02  0.67655407873E+02  0.00000000000E+00 0. -1.
<mgrwt>
<rscale>  0 0.57337231E+02</rscale>
<asrwt>0</asrwt>
<pdfrwt beam="1">  1        2 0.25893047E+00 0.92557834E+02</pdfrwt>
<pdfrwt beam="2">  1       -2 0.31059919E-03 0.92557834E+02</pdfrwt>
<totfact> 0.11313370E+05</totfact>
</mgrwt>
</event>
<event>
 6    1  0.2866116E-002  0.8870209E+02  0.7546771E-02  0.1436195E+00
          2   -1    0    0  501    0  0.00000000000E+00  0.00000000000E+00  0.31781851393E+02  0.31781851393E+02  0.00000000000E+00 0. -1.
         -2   -1    0    0    0  501 -0.00000000000E+00 -0.00000000000E+00 -0.77238054094E+02  0.77238054094E+02  0.00000000000E+00 0.  1.
         23    2    1    2    0    0  0.11329278356E+01 -0.10202809060E+02 -0.39032882672E+02  0.96910410107E+02  0.88106077084E+02 0.  0.
         13    1    3    3    0    0  0.18604082741E+02 -0.21990447361E+02  0.19443069211E+02  0.34752332441E+02  0.00000000000E+00 0. -1.
        -13    1    3    3    0    0 -0.17471154905E+02  0.11787638302E+02 -0.58475951882E+02  0.62158077665E+02  0.00000000000E+00 0.  1.
         22    1    1    2    0    0 -0.11329278356E+01  0.10202809060E+02 -0.64233200287E+01  0.12109495381E+02  0.00000000000E+00 0.  1.
<mgrwt>
<rscale>  0 0.51736330E+02</rscale>
<asrwt>0</asrwt>
<pdfrwt beam="1">  1        2 0.48895156E-02 0.88702095E+02</pdfrwt>
<pdfrwt beam="2">  1       -2 0.11882778E-01 0.88702095E+02</pdfrwt>
<totfact> 0.68904306E+04</totfact>
</mgrwt>
</event>
<event>
 6    1  0.2866116E-002  0.9491211E+02  0.7546771E-02  0.1391786E+00
          4   -1    0    0  501    0  0.00000000000E+00  0.00000000000E+00  0.24629984360E+02  0.24629984360E+02  0.00000000000E+00 0. -1.
         -4   -1    0    0    0  501 -0.00000000000E+00 -0.00000000000E+00 -0.13761387288E+03  0.13761387288E+03  0.00000000000E+00 0.  1.
         23    2    1    2    0    0  0.16511828757E+02 -0.24542225703E+01 -0.75734454701E+02  0.12142493985E+03  0.93432567611E+02 0.  0.
         11    1    3    3    0    0 -0.31795098192E+02 -0.16537780924E+02 -0.57794152948E+02  0.68004342375E+02  0.00000000000E+00 0.  1.
        -11    1    3    3    0    0  0.48306926949E+02  0.14083558353E+02 -0.17940301753E+02  0.53420597471E+02  0.00000000000E+00 0. -1.
         22    1    1    2    0    0 -0.16511828757E+02  0.24542225703E+01 -0.37249433820E+02  0.40818917394E+02  0.00000000000E+00 0.  1.
<mgrwt>
<rscale>  0 0.61464771E+02</rscale>
<asrwt>0</asrwt>
<pdfrwt beam="1">  1        4 0.37892284E-02 0.94912109E+02</pdfrwt>
<pdfrwt beam="2">  1       -4 0.21171365E-01 0.94912109E+02</pdfrwt>
<totfact> 0.11146052E+04</totfact>
</mgrwt>
</event>
<event>
 6    1  0.2866116E-002  0.8987737E+02  0.7546771E-02  0.1412900E+00
          4   -1    0    0  501    0  0.00000000000E+00  0.00000000000E+00  0.10323649589E+04  0.10323649589E+04  0.00000000000E+00 0.  1.
         -4   -1    0    0    0  501 -0.00000000000E+00 -0.00000000000E+00 -0.30993862151E+01  0.30993862151E+01  0.00000000000E+00 0. -1.
         23    2    1    2    0    0  0.34089642810E+01 -0.13668717858E+02  0.98303312063E+03  0.98713325255E+03  0.88766475401E+02 0.  0.
         11    1    3    3    0    0  0.19731426845E+01  0.37094998540E+02  0.51952256595E+03  0.52084895003E+03  0.00000000000E+00 0.  1.
        -11    1    3    3    0    0  0.14358215965E+01 -0.50763716398E+02  0.46351055468E+03  0.46628430253E+03  0.00000000000E+00 0. -1.
         22    1    1    2    0    0 -0.34089642810E+01  0.13668717858E+02  0.46232452086E+02  0.48331092593E+02  0.00000000000E+00 0.  1.
<mgrwt>
<rscale>  0 0.56551678E+02</rscale>
<asrwt>0</asrwt>
<pdfrwt beam="1">  1        4 0.15882510E+00 0.89877372E+02</pdfrwt>
<pdfrwt beam="2">  1       -4 0.47682947E-03 0.89877372E+02</pdfrwt>
<totfact> 0.36416817E+03</totfact>
</mgrwt>
</event>
<event>
 6    1  0.2866116E-002  0.9196204E+02  0.7546771E-02  0.1384855E+00
          2   -1    0    0  501    0  0.00000000000E+00  0.00000000000E+00  0.15713586235E+04  0.15713586235E+04  0.00000000000E+00 0. -1.
         -2   -1    0    0    0  501 -0.00000000000E+00 -0.00000000000E+00 -0.26758050971E+01  0.26758050971E+01  0.00000000000E+00 0.  1.
         23    2    1    2    0    0 -0.19878045588E+02  0.50914253984E+01  0.14860209304E+04  0.14888637351E+04  0.89643497762E+02 0.  0.
         13    1    3    3    0    0 -0.34552016940E+02 -0.32738999704E+02  0.58662398690E+03  0.58855193992E+03  0.00000000000E+00 0.  1.
        -13    1    3    3    0    0  0.14673971351E+02  0.37830425102E+02  0.89939694349E+03  0.90031179513E+03  0.00000000000E+00 0. -1.
         22    1    1    2    0    0  0.19878045588E+02 -0.50914253984E+01  0.82661888040E+02  0.85170693570E+02  0.00000000000E+00 0.  1.
<mgrwt>
<rscale>  0 0.63204695E+02</rscale>
<asrwt>0</asrwt>
<pdfrwt beam="1">  1        2 0.24174674E+00 0.91962036E+02</pdfrwt>
<pdfrwt beam="2">  1       -2 0.41166358E-03 0.91962036E+02</pdfrwt>
<totfact> 0.86881805E+04</totfact>
</mgrwt>
</event>
<event>
 6    1  0.2866116E-002  0.1134625E+03  0.7546771E-02  0.1310387E+00
          2   -1    0    0  501    0  0.00000000000E+00  0.00000000000E+00  0.40063536840E+02  0.40063536840E+02  0.00000000000E+00 0. -1.
         -2   -1    0    0    0  501 -0.00000000000E+00 -0.00000000000E+00 -0.14839884472E+03  0.14839884472E+03  0.00000000000E+00 0.  1.
         23    2    1    2    0    0 -0.39036732370E+02  0.29428237425E+01 -0.91872486078E+02  0.14599414416E+03  0.10649511607E+03 0.  0.
         13    1    3    3    0    0  0.14902786283E+01  0.39816905008E+02 -0.97123435952E+00  0.39856619914E+02  0.00000000000E+00 0. -1.
        -13    1    3    3    0    0 -0.40527010998E+02 -0.36874081266E+02 -0.90901251718E+02  0.10613752425E+03  0.00000000000E+00 0.  1.
         22    1    1    2    0    0  0.39036732370E+02 -0.29428237425E+01 -0.16462821797E+02  0.42468237393E+02  0.00000000000E+00 0. -1.
<mgrwt>
<rscale>  0 0.86959140E+02</rscale>
<asrwt>0</asrwt>
<pdfrwt beam="1">  1        2 0.61636210E-02 0.11346249E+03</pdfrwt>
<pdfrwt beam="2">  1       -2 0.22830592E-01 0.11346249E+03</pdfrwt>
<totfact> 0.18088533E+04</totfact>
</mgrwt>
</event>
<event>
 6    1  0.2866116E-002  0.9342786E+02  0.7546771E-02  0.1379195E+00
          2   -1    0    0  501    0  0.00000000000E+00  0.00000000000E+00  0.19820961348E+04  0.19820961348E+04  0.00000000000E+00 0. -1.
         -2   -1    0    0    0  501 -0.00000000000E+00 -0.00000000000E+00 -0.27728074181E+01  0.27728074181E+01  0.00000000000E+00 0.  1.
         23    2    1    2    0    0  0.46293049581E+01 -0.20950214478E+02  0.19104028525E+04  0.19126860231E+04  0.90930865348E+02 0.  0.
         11    1    3    3    0    0  0.24605181823E+02 -0.48150220110E+01  0.14890298357E+03  0.15099899975E+03  0.00000000000E+00 0.  1.
        -11    1    3    3    0    0 -0.19975876865E+02 -0.16135192467E+02  0.17614998689E+04  0.17616870233E+04  0.00000000000E+00 0. -1.
         22    1    1    2    0    0 -0.46293049581E+01  0.20950214478E+02  0.68920474956E+02  0.72182919165E+02  0.00000000000E+00 0.  1.
<mgrwt>
<rscale>  0 0.64675881E+02</rscale>
<asrwt>0</asrwt>
<pdfrwt beam="1">  1        2 0.30493673E+00 0.93427856E+02</pdfrwt>
<pdfrwt beam="2">  1       -2 0.42658734E-03 0.93427856E+02</pdfrwt>
<totfact> 0.51444015E+04</totfact>
</mgrwt>
</event>
<event>
 6    1  0.2866116E-002  0.9979977E+02  0.7546771E-02  0.1373186E+00
         -2   -1    0    0    0  501 -0.00000000000E+00  0.00000000000E+00  0.24681276050E+01  0.24681276050E+01  0.00000000000E+00 0.  1.
          2   -1    0    0  501    0  0.00000000000E+00 -0.00000000000E+00 -0.25979895673E+04  0.25979895673E+04  0.00000000000E+00 0. -1.
         23    2    1    2    0    0 -0.94015328293E+00  0.19403275248E+02 -0.25335057846E+04  0.25354706773E+04  0.97890877653E+02 0.  0.
         13    1    3    3    0    0  0.38923850983E+02  0.33572134063E+02 -0.18094300099E+04  0.18101599694E+04  0.00000000000E+00 0. -1.
        -13    1    3    3    0    0 -0.39864004266E+02 -0.14168858816E+02 -0.72407577474E+03  0.72531070788E+03  0.00000000000E+00 0.  1.
         22    1    1    2    0    0  0.94015328293E+00 -0.19403275248E+02 -0.62015655049E+02  0.64987017547E+02  0.00000000000E+00 0.  1.
<mgrwt>
<rscale>  0 0.66289269E+02</rscale>
<asrwt>0</asrwt>
<pdfrwt beam="1">  1        2 0.39969220E+00 0.99799774E+02</pdfrwt>
<pdfrwt beam="2">  1       -2 0.37971052E-03 0.99799774E+02</pdfrwt>
<totfact> 0.29279442E+04</totfact>
</mgrwt>
</event>
<event>
 6    1  0.2866116E-002  0.1117850E+03  0.7546771E-02  0.1285589E+00
         -1   -1    0    0    0  501 -0.00000000000E+00  0.00000000000E+00  0.23020512175E+02  0.23020512175E+02  0.00000000000E+00 0. -1.
          1   -1    0    0  501    0  0.00000000000E+00 -0.00000000000E+00 -0.35278630191E+03  0.35278630191E+03  0.00000000000E+00 0.  1.
         23    2    1    2    0    0  0.24988445412E+02 -0.59744776692E+02 -0.17049502299E+03  0.20387357737E+03  0.91115431959E+02 0.  0.
         13    1    3    3    0    0  0.50689068900E+02 -0.64640701302E+02 -0.14844713520E+03  0.16965952351E+03  0.00000000000E+00 0.  1.
        -13    1    3    3    0    0 -0.25700623488E+02  0.48959246106E+01 -0.22047887793E+02  0.34214053861E+02  0.00000000000E+00 0. -1.
         22    1    1    2    0    0 -0.24988445412E+02  0.59744776692E+02 -0.15927076674E+03  0.17193323671E+03  0.00000000000E+00 0. -1.
<mgrwt>
<rscale>  0 0.97524639E+02</rscale>
<asrwt>0</asrwt>
<pdfrwt beam="1">  1        1 0.54274809E-01 0.11178498E+03</pdfrwt>
<pdfrwt beam="2">  1       -1 0.35416177E-02 0.11178498E+03</pdfrwt>
<totfact> 0.19314173E+04</totfact>
</mgrwt>
</event>
<event>
 6    1  0.2866116E-002  0.9004169E+02  0.7546771E-02  0.1405645E+00
          2   -1    0    0  501    0  0.00000000000E+00  0.00000000000E+00  0.84279058597E+03  0.84279058597E+03  0.00000000000E+00 0. -1.
         -2   -1    0    0    0  501 -0.00000000000E+00 -0.00000000000E+00 -0.59458943733E+01  0.59458943733E+01  0.00000000000E+00 0.  1.
         23    2    1    2    0    0  0.12147659276E+02  0.99334515268E+01  0.82269287522E+03  0.82760562632E+03  0.88663784551E+02 0.  0.
         13    1    3    3    0    0  0.76723879555E+01 -0.23814509491E+02  0.69507201325E+03  0.69552217794E+03  0.00000000000E+00 0. -1.
        -13    1    3    3    0    0  0.44752713207E+01  0.33747961018E+02  0.12762086197E+03  0.13208344838E+03  0.00000000000E+00 0.  1.
         22    1    1    2    0    0 -0.12147659276E+02 -0.99334515268E+01  0.14151816381E+02  0.21130854030E+02  0.00000000000E+00 0.  1.
<mgrwt>
<rscale>  0 0.58177137E+02</rscale>
<asrwt>0</asrwt>
<pdfrwt beam="1">  1        2 0.12966000E+00 0.90041689E+02</pdfrwt>
<pdfrwt beam="2">  1       -2 0.91475365E-03 0.90041689E+02</pdfrwt>
<totfact> 0.71294493E+04</totfact>
</mgrwt>
</event>
<event>
 6    1  0.2866116E-002  0.1024029E+03  0.7546771E-02  0.1319593E+00
         -2   -1    0    0    0  501 -0.00000000000E+00  0.00000000000E+00  0.78147643380E+02  0.78147643380E+02  0.00000000000E+00 0. -1.
          2   -1    0    0  501    0  0.00000000000E+00 -0.00000000000E+00 -0.30081448291E+03  0.30081448291E+03  0.00000000000E+00 0.  1.
         23    2    1    2    0    0 -0.43951854391E+02 -0.10180706333E+02 -0.28452933892E+03  0.30239593848E+03  0.91929030344E+02 0.  0.
         11    1    3    3    0    0 -0.29296658000E+02 -0.63802623946E+01 -0.28564557238E+03  0.28721489331E+03  0.00000000000E+00 0.  1.
        -11    1    3    3    0    0 -0.14655196391E+02 -0.38004439386E+01  0.11162334633E+01  0.15181045173E+02  0.00000000000E+00 0. -1.
         22    1    1    2    0    0  0.43951854391E+02  0.10180706333E+02  0.61862499384E+02  0.76566187811E+02  0.00000000000E+00 0. -1.
<mgrwt>
<rscale>  0 0.83428766E+02</rscale>
<asrwt>0</asrwt>
<pdfrwt beam="1">  1        2 0.46279152E-01 0.10240292E+03</pdfrwt>
<pdfrwt beam="2">  1       -2 0.12022714E-01 0.10240292E+03</pdfrwt>
<totfact> 0.50605270E+03</totfact>
</mgrwt>
</event>
<event>
 6    1  0.2866116E-002  0.1111557E+03  0.7546771E-02  0.1303413E+00
         -1   -1    0    0    0  501 -0.00000000000E+00  0.00000000000E+00  0.44015546094E+03  0.44015546094E+03  0.00000000000E+00 0.  1.
          1   -1    0    0  501    0  0.00000000000E+00 -0.00000000000E+00 -0.14596260763E+02  0.14596260763E+02  0.00000000000E+00 0. -1.
         23    2    1    2    0    0  0.16809442287E+02 -0.44194194703E+02  0.26482047602E+03  0.28720285827E+03  0.10059777871E+03 0.  0.
         11    1    3    3    0    0  0.19507960038E+02 -0.21763526924E+01  0.58900732205E+00  0.19637819265E+02  0.00000000000E+00 0. -1.
        -11    1    3    3    0    0 -0.26985177503E+01 -0.42017842010E+02  0.26423146870E+03  0.26756503900E+03  0.00000000000E+00 0.  1.
         22    1    1    2    0    0 -0.16809442287E+02  0.44194194703E+02  0.16073872416E+03  0.16754886344E+03  0.00000000000E+00 0.  1.
<mgrwt>
<rscale>  0 0.89768757E+02</rscale>
<asrwt>0</asrwt>
<pdfrwt beam="1">  1        1 0.22455789E-02 0.11115573E+03</pdfrwt>
<pdfrwt beam="2">  1       -1 0.67716215E-01 0.11115573E+03</pdfrwt>
<totfact> 0.10854406E+04</totfact>
</mgrwt>
</event>
<event>
 6    1  0.2866116E-002  0.1090105E+03  0.7546771E-02  0.1297740E+00
          2   -1    0    0  501    0  0.00000000000E+00  0.00000000000E+00  0.69881464842E+03  0.69881464842E+03  0.00000000000E+00 0. -1.
         -2   -1    0    0    0  501 -0.00000000000E+00 -0.00000000000E+00 -0.10184273876E+02  0.10184273876E+02  0.00000000000E+00 0.  1.
         23    2    1    2    0    0  0.55414110175E+02  0.51347484514E+01  0.52393114553E+03  0.53515150274E+03  0.93734712786E+02 0.  0.
         13    1    3    3    0    0  0.17868583450E+02  0.28783792779E+02  0.42928719961E+03  0.43062198359E+03  0.00000000000E+00 0. -1.
        -13    1    3    3    0    0  0.37545526725E+02 -0.23649044327E+02  0.94643945917E+02  0.10452951915E+03  0.00000000000E+00 0.  1.
         22    1    1    2    0    0 -0.55414110175E+02 -0.51347484514E+01  0.16469922902E+03  0.17384741956E+03  0.00000000000E+00 0.  1.
<mgrwt>
<rscale>  0 0.92144712E+02</rscale>
<asrwt>0</asrwt>
<pdfrwt beam="1">  1        2 0.10750991E+00 0.10901048E+03</pdfrwt>
<pdfrwt beam="2">  1       -2 0.15668119E-02 0.10901048E+03</pdfrwt>
<totfact> 0.42496589E+04</totfact>
</mgrwt>
</event>
<event>
 6    1  0.2866116E-002  0.9221778E+02  0.7546771E-02  0.1419833E+00
         -1   -1    0    0    0  501 -0.00000000000E+00  0.00000000000E+00  0.45399476401E+02  0.45399476401E+02  0.00000000000E+00 0. -1.
          1   -1    0    0  501    0  0.00000000000E+00 -0.00000000000E+00 -0.86118147080E+02  0.86118147080E+02  0.00000000000E+00 0.  1.
         23    2    1    2    0    0 -0.10734078166E+02  0.46954327748E+01 -0.59236834437E+02  0.10960438748E+03  0.91470496215E+02 0.  0.
         13    1    3    3    0    0  0.11292311145E+02 -0.37162900083E+02 -0.46563128741E+02  0.60635982649E+02  0.00000000000E+00 0. -1.
        -13    1    3    3    0    0 -0.22026389311E+02  0.41858332858E+02 -0.12673705696E+02  0.48968404832E+02  0.00000000000E+00 0.  1.
         22    1    1    2    0    0  0.10734078166E+02 -0.46954327748E+01  0.18518163759E+02  0.21913236001E+02  0.00000000000E+00 0. -1.
<mgrwt>
<rscale>  0 0.55056294E+02</rscale>
<asrwt>0</asrwt>
<pdfrwt beam="1">  1        1 0.13248946E-01 0.92217781E+02</pdfrwt>
<pdfrwt beam="2">  1       -1 0.69845349E-02 0.92217781E+02</pdfrwt>
<totfact> 0.40449984E+04</totfact>
</mgrwt>
</event>
<event>
 6    1  0.2866116E-002  0.8950288E+02  0.7546771E-02  0.1380686E+00
         -2   -1    0    0    0  501 -0.00000000000E+00  0.00000000000E+00  0.31095780390E+02  0.31095780390E+02  0.00000000000E+00 0. -1.
          2   -1    0    0  501    0  0.00000000000E+00 -0.00000000000E+00 -0.11534699234E+03  0.11534699234E+03  0.00000000000E+00 0.  1.
         23    2    1    2    0    0  0.16292004131E+02  0.17373321935E+02 -0.83816951183E+02  0.12262155748E+03  0.86275740156E+02 0.  0.
         13    1    3    3    0    0  0.30734438209E+02 -0.22570249203E+02 -0.13459513846E+02  0.40437363342E+02  0.00000000000E+00 0. -1.
        -13    1    3    3    0    0 -0.14442434077E+02  0.39943571138E+02 -0.70357437337E+02  0.82184194137E+02  0.00000000000E+00 0.  1.
         22    1    1    2    0    0 -0.16292004131E+02 -0.17373321935E+02 -0.43426076878E+00  0.23821215252E+02  0.00000000000E+00 0.  1.
<mgrwt>
<rscale>  0 0.64283673E+02</rscale>
<asrwt>0</asrwt>
<pdfrwt beam="1">  1        2 0.17745691E-01 0.89502877E+02</pdfrwt>
<pdfrwt beam="2">  1       -2 0.47839662E-02 0.89502877E+02</pdfrwt>
<totfact> 0.57491642E+04</totfact>
</mgrwt>
</event>
<event>
 6    1  0.2866116E-002  0.9175417E+02  0.7546771E-02  0.1364742E+00
         -1   -1    0    0    0  501 -0.00000000000E+00  0.00000000000E+00  0.16384786230E+02  0.16384786230E+02  0.00000000000E+00 0.  1.
          1   -1    0    0  501    0  0.00000000000E+00 -0.00000000000E+00 -0.26466517270E+03  0.26466517270E+03  0.00000000000E+00 0. -1.
         23    2    1    2    0    0  0.11928267592E+02 -0.26163809287E+02 -0.22826312843E+03  0.24601399022E+03  0.87132078470E+02 0.  0.
         13    1    3    3    0    0 -0.37251261237E+02 -0.15159919462E+02 -0.82412461656E+02  0.91702199854E+02  0.00000000000E+00 0. -1.
        -13    1    3    3    0    0  0.49179528829E+02 -0.11003889825E+02 -0.14585066677E+03  0.15431179036E+03  0.00000000000E+00 0.  1.
         22    1    1    2    0    0 -0.11928267592E+02  0.26163809287E+02 -0.20017258043E+02  0.35035968714E+02  0.00000000000E+00 0.  1.
<mgrwt>
<rscale>  0 0.68650908E+02</rscale>
<asrwt>0</asrwt>
<pdfrwt beam="1">  1        1 0.40717720E-01 0.91754169E+02</pdfrwt>
<pdfrwt beam="2">  1       -1 0.25207363E-02 0.91754169E+02</pdfrwt>
<totfact> 0.43925895E+04</totfact>
</mgrwt>
</event>
<event>
 6    1  0.2866116E-002  0.9717103E+02  0.7546771E-02  0.1374864E+00
          2   -1    0    0  501    0  0.00000000000E+00  0.00000000000E+00  0.14423910716E+03  0.14423910716E+03  0.00000000000E+00 0. -1.
         -2   -1    0    0    0  501 -0.00000000000E+00 -0.00000000000E+00 -0.25204225061E+02  0.25204225061E+02  0.00000000000E+00 0.  1.
         23    2    1    2    0    0  0.99421184686E+01  0.17896588554E+02  0.11080870909E+03  0.14737970777E+03  0.94989866043E+02 0.  0.
         11    1    3    3    0    0  0.46971826052E+02  0.94437805760E+01  0.94684997993E+02  0.10611685200E+03  0.00000000000E+00 0. -1.
        -11    1    3    3    0    0 -0.37029707584E+02  0.84528079784E+01  0.16123711095E+02  0.41262855765E+02  0.00000000000E+00 0.  1.
         22    1    1    2    0    0 -0.99421184686E+01 -0.17896588554E+02  0.82261730117E+01  0.22063624452E+02  0.00000000000E+00 0.  1.
<mgrwt>
<rscale>  0 0.65833455E+02</rscale>
<asrwt>0</asrwt>
<pdfrwt beam="1">  1        2 0.22190631E-01 0.97171026E+02</pdfrwt>
<pdfrwt beam="2">  1       -2 0.38775732E-02 0.97171026E+02</pdfrwt>
<totfact> 0.61747562E+04</totfact>
</mgrwt>
</event>
<event>
 6    1  0.2866116E-002  0.9081147E+02  0.7546771E-02  0.1430376E+00
          2   -1    0    0  501    0  0.00000000000E+00  0.00000000000E+00  0.56793592346E+03  0.56793592346E+03  0.00000000000E+00 0. -1.
         -2   -1    0    0    0  501 -0.00000000000E+00 -0.00000000000E+00 -0.48417412638E+01  0.48417412638E+01  0.00000000000E+00 0.  1.
         23    2    1    2    0    0  0.10258091912E+02  0.19654995561E+01  0.53777820314E+03  0.54539171150E+03  0.90208822002E+02 0.  0.
         13    1    3    3    0    0  0.27641847744E+02 -0.17739059537E+02  0.75100848185E+02  0.81968795149E+02  0.00000000000E+00 0.  1.
        -13    1    3    3    0    0 -0.17383755831E+02  0.19704559093E+02  0.46267735495E+03  0.46342291635E+03  0.00000000000E+00 0. -1.
         22    1    1    2    0    0 -0.10258091912E+02 -0.19654995561E+01  0.25315979063E+02  0.27385953226E+02  0.00000000000E+00 0.  1.
<mgrwt>
<rscale>  0 0.52884629E+02</rscale>
<asrwt>0</asrwt>
<pdfrwt beam="1">  1        2 0.87374705E-01 0.90811471E+02</pdfrwt>
<pdfrwt beam="2">  1       -2 0.74488372E-03 0.90811471E+02</pdfrwt>
<totfact> 0.15116759E+05</totfact>
</mgrwt>
</event>
<event>
 6    1  0.2866116E-002  0.1036181E+03  0.7546771E-02  0.1316507E+00
          2   -1    0    0  501    0  0.00000000000E+00  0.00000000000E+00  0.12091185244E+04  0.12091185244E+04  0.00000000000E+00 0.  1.
         -2   -1    0    0    0  501 -0.00000000000E+00 -0.00000000000E+00 -0.60939434616E+01  0.60939434616E+01  0.00000000000E+00 0. -1.
         23    2    1    2    0    0  0.45644900670E+02  0.58935653323E+01  0.10579578738E+04  0.10630200220E+04  0.92835948215E+02 0.  0.
         11    1    3    3    0    0 -0.22804495625E+01  0.39308497688E+02  0.26457102980E+03  0.26748493088E+03  0.00000000000E+00 0. -1.
        -11    1    3    3    0    0  0.47925350232E+02 -0.33414932356E+02  0.79338684401E+03  0.79553509108E+03  0.00000000000E+00 0.  1.
         22    1    1    2    0    0 -0.45644900670E+02 -0.58935653323E+01  0.14506670711E+03  0.15219244588E+03  0.00000000000E+00 0. -1.
<mgrwt>
<rscale>  0 0.84590631E+02</rscale>
<asrwt>0</asrwt>
<pdfrwt beam="1">  1        2 0.18601804E+00 0.10361807E+03</pdfrwt>
<pdfrwt beam="2">  1       -2 0.93753073E-03 0.10361807E+03</pdfrwt>
<totfact> 0.42687138E+04</totfact>
</mgrwt>
</event>
<event>
 6    1  0.2866116E-002  0.9173182E+02  0.7546771E-02  0.1385737E+00
         -4   -1    0    0    0  501 -0.00000000000E+00  0.00000000000E+00  0.52018101175E+02  0.52018101175E+02  0.00000000000E+00 0.  1.
          4   -1    0    0  501    0  0.00000000000E+00 -0.00000000000E+00 -0.63840972792E+02  0.63840972792E+02  0.00000000000E+00 0. -1.
         23    2    1    2    0    0 -0.31281001059E+01  0.20140147773E+02 -0.20019660912E+02  0.93890962592E+02  0.89438892384E+02 0.  0.
         11    1    3    3    0    0  0.84954937929E+01  0.45786967429E+02  0.15027920892E+02  0.48933201484E+02  0.00000000000E+00 0.  1.
        -11    1    3    3    0    0 -0.11623593899E+02 -0.25646819656E+02 -0.35047581804E+02  0.44957761108E+02  0.00000000000E+00 0. -1.
         22    1    1    2    0    0  0.31281001059E+01 -0.20140147773E+02  0.81967892955E+01  0.21968111374E+02  0.00000000000E+00 0.  1.
<mgrwt>
<rscale>  0 0.62979569E+02</rscale>
<asrwt>0</asrwt>
<pdfrwt beam="1">  1        4 0.98216881E-02 0.91731816E+02</pdfrwt>
<pdfrwt beam="2">  1       -4 0.80027848E-02 0.91731816E+02</pdfrwt>
<totfact> 0.12528420E+04</totfact>
</mgrwt>
</event>
<event>
 6    1  0.2866116E-002  0.9290094E+02  0.7546771E-02  0.1419264E+00
         -2   -1    0    0    0  501 -0.00000000000E+00  0.00000000000E+00  0.47823145755E+02  0.47823145755E+02  0.00000000000E+00 0.  1.
          2   -1    0    0  501    0  0.00000000000E+00 -0.00000000000E+00 -0.58135314916E+02  0.58135314916E+02  0.00000000000E+00 0. -1.
         23    2    1    2    0    0 -0.46388152739E+01 -0.10588759068E+02 -0.13714746540E+02  0.93907819255E+02  0.92178868613E+02 0.  0.
         13    1    3    3    0    0  0.26680327173E+02  0.25858264670E+02  0.12457801741E+02  0.39187836557E+02  0.00000000000E+00 0.  1.
        -13    1    3    3    0    0 -0.31319142447E+02 -0.36447023738E+02 -0.26172548280E+02  0.54719982698E+02  0.00000000000E+00 0. -1.
         22    1    1    2    0    0  0.46388152739E+01  0.10588759068E+02  0.34025773783E+01  0.12050641417E+02  0.00000000000E+00 0. -1.
<mgrwt>
<rscale>  0 0.55176901E+02</rscale>
<asrwt>0</asrwt>
<pdfrwt beam="1">  1        2 0.89438946E-02 0.92900938E+02</pdfrwt>
<pdfrwt beam="2">  1       -2 0.73574071E-02 0.92900938E+02</pdfrwt>
<totfact> 0.68046549E+04</totfact>
</mgrwt>
</event>
<event>
 6    1  0.2866116E-002  0.9833145E+02  0.7546771E-02  0.1353942E+00
         -4   -1    0    0    0  501 -0.00000000000E+00  0.00000000000E+00  0.15578550204E+02  0.15578550204E+02  0.00000000000E+00 0.  1.
          4   -1    0    0  501    0  0.00000000000E+00 -0.00000000000E+00 -0.26383457239E+03  0.26383457239E+03  0.00000000000E+00 0. -1.
         23    2    1    2    0    0 -0.12524702675E+02  0.25060807345E+02 -0.21110111934E+03  0.23287927419E+03  0.94255830156E+02 0.  0.
         13    1    3    3    0    0  0.30375722034E+02 -0.18797313937E+02 -0.96320263049E+02  0.10273079662E+03  0.00000000000E+00 0. -1.
        -13    1    3    3    0    0 -0.42900424709E+02  0.43858121282E+02 -0.11478085629E+03  0.13014847757E+03  0.00000000000E+00 0.  1.
         22    1    1    2    0    0  0.12524702675E+02 -0.25060807345E+02 -0.37154902848E+02  0.46533848407E+02  0.00000000000E+00 0. -1.
<mgrwt>
<rscale>  0 0.71840933E+02</rscale>
<asrwt>0</asrwt>
<pdfrwt beam="1">  1        4 0.40589931E-01 0.98331448E+02</pdfrwt>
<pdfrwt beam="2">  1       -4 0.23967002E-02 0.98331448E+02</pdfrwt>
<totfact> 0.67878158E+03</totfact>
</mgrwt>
</event>
<event>
 6    1  0.2866116E-002  0.9171115E+02  0.7546771E-02  0.1424834E+00
         -2   -1    0    0    0  501 -0.00000000000E+00  0.00000000000E+00  0.28043339671E+01  0.28043339671E+01  0.00000000000E+00 0.  1.
          2   -1    0    0  501    0  0.00000000000E+00 -0.00000000000E+00 -0.99503079141E+03  0.99503079141E+03  0.00000000000E+00 0. -1.
         23    2    1    2    0    0  0.68179954935E+01 -0.86734135369E+01 -0.93957078536E+03  0.94403612011E+03  0.91045165772E+02 0.  0.
         11    1    3    3    0    0 -0.53889269528E+01 -0.71720032480E+01 -0.92467751301E+03  0.92472102887E+03  0.00000000000E+00 0. -1.
        -11    1    3    3    0    0  0.12206922446E+02 -0.15014102889E+01 -0.14893272346E+02  0.19315091241E+02  0.00000000000E+00 0.  1.
         22    1    1    2    0    0 -0.68179954935E+01  0.86734135369E+01 -0.52655672082E+02  0.53799005264E+02  0.00000000000E+00 0.  1.
<mgrwt>
<rscale>  0 0.54011197E+02</rscale>
<asrwt>0</asrwt>
<pdfrwt beam="1">  1        2 0.15308203E+00 0.91711152E+02</pdfrwt>
<pdfrwt beam="2">  1       -2 0.43143494E-03 0.91711152E+02</pdfrwt>
<totfact> 0.16579466E+05</totfact>
</mgrwt>
</event>
<event>
 6    1  0.2866116E-002  0.9172707E+02  0.7546771E-02  0.1400039E+00
          1   -1    0    0  501    0  0.00000000000E+00  0.00000000000E+00  0.15664961230E+04  0.15664961230E+04  0.00000000000E+00 0. -1.
         -1   -1    0    0    0  501 -0.00000000000E+00 -0.00000000000E+00 -0.23757986500E+01  0.23757986500E+01  0.00000000000E+00 0.  1.
         23    2    1    2    0    0 -0.10538239339E+02  0.12323151040E+02  0.14975031703E+04  0.15003098348E+04  0.90282560842E+02 0.  0.
         13    1    3    3    0    0 -0.23080055182E+02  0.26640252206E+02  0.14222573401E+04  0.14226940407E+04  0.00000000000E+00 0. -1.
        -13    1    3    3    0    0  0.12541815843E+02 -0.14317101166E+02  0.75245830211E+02  0.77615794105E+02  0.00000000000E+00 0.  1.
         22    1    1    2    0    0  0.10538239339E+02 -0.12323151040E+02  0.66617154072E+02  0.68562086875E+02  0.00000000000E+00 0.  1.
<mgrwt>
<rscale>  0 0.59477125E+02</rscale>
<asrwt>0</asrwt>
<pdfrwt beam="1">  1        1 0.24099858E+00 0.91727070E+02</pdfrwt>
<pdfrwt beam="2">  1       -1 0.36550874E-03 0.91727070E+02</pdfrwt>
<totfact> 0.47401962E+04</totfact>
</mgrwt>
</event>
<event>
 6    1  0.2866116E-002  0.9576465E+02  0.7546771E-02  0.1401181E+00
          2   -1    0    0  501    0  0.00000000000E+00  0.00000000000E+00  0.24014166864E+03  0.24014166864E+03  0.00000000000E+00 0. -1.
         -2   -1    0    0    0  501 -0.00000000000E+00 -0.00000000000E+00 -0.12855989815E+02  0.12855989815E+02  0.00000000000E+00 0.  1.
         23    2    1    2    0    0  0.12403205646E+02 -0.64797438869E+01  0.20963449624E+03  0.23047232077E+03  0.94736698468E+02 0.  0.
         13    1    3    3    0    0  0.72999784721E+01 -0.53463581844E+01  0.21929846974E+03  0.21948506113E+03  0.00000000000E+00 0. -1.
        -13    1    3    3    0    0  0.51032271740E+01 -0.11333857024E+01 -0.96639734935E+01  0.10987259641E+02  0.00000000000E+00 0.  1.
         22    1    1    2    0    0 -0.12403205646E+02  0.64797438869E+01  0.17651182581E+02  0.22525337681E+02  0.00000000000E+00 0. -1.
<mgrwt>
<rscale>  0 0.59209022E+02</rscale>
<asrwt>0</asrwt>
<pdfrwt beam="1">  1        2 0.36944869E-01 0.95764652E+02</pdfrwt>
<pdfrwt beam="2">  1       -2 0.19778448E-02 0.95764652E+02</pdfrwt>
<totfact> 0.94621796E+04</totfact>
</mgrwt>
</event>
<event>
 6    1  0.2866116E-002  0.9080060E+02  0.7546771E-02  0.1411389E+00
         -3   -1    0    0    0  501 -0.00000000000E+00  0.00000000000E+00  0.19856858375E+02  0.19856858375E+02  0.00000000000E+00 0.  1.
          3   -1    0    0  501    0  0.00000000000E+00 -0.00000000000E+00 -0.20632896584E+03  0.20632896584E+03  0.00000000000E+00 0. -1.
         23    2    1    2    0    0  0.49099003531E+00  0.13978361664E+02 -0.19099965236E+03  0.21148431651E+03  0.89716850497E+02 0.  0.
         11    1    3    3    0    0  0.19984578027E+02  0.41150473868E+02 -0.55522804743E+02  0.71941133609E+02  0.00000000000E+00 0.  1.
        -11    1    3    3    0    0 -0.19493587992E+02 -0.27172112204E+02 -0.13547684762E+03  0.13954318290E+03  0.00000000000E+00 0. -1.
         22    1    1    2    0    0 -0.49099003531E+00 -0.13978361664E+02  0.45275448935E+01  0.14701507705E+02  0.00000000000E+00 0.  1.
<mgrwt>
<rscale>  0 0.56884971E+02</rscale>
<asrwt>0</asrwt>
<pdfrwt beam="1">  1        3 0.31742919E-01 0.90800600E+02</pdfrwt>
<pdfrwt beam="2">  1       -3 0.30549012E-02 0.90800600E+02</pdfrwt>
<totfact> 0.98919476E+03</totfact>
</mgrwt>
</event>
<event>
 6    1  0.2866116E-002  0.9539971E+02  0.7546771E-02  0.1382549E+00
         -2   -1    0    0    0  501 -0.00000000000E+00  0.00000000000E+00  0.15192559020E+01  0.15192559020E+01  0.00000000000E+00 0.  1.
          2   -1    0    0  501    0  0.00000000000E+00 -0.00000000000E+00 -0.32810831155E+04  0.32810831155E+04  0.00000000000E+00 0. -1.
         23    2    1    2    0    0  0.17039237346E+00 -0.19080160079E+02 -0.31667203952E+04  0.31681570613E+04  0.93472040111E+02 0.  0.
         11    1    3    3    0    0 -0.11167904838E+02  0.27949798912E+02 -0.44975003573E+03  0.45075604044E+03  0.00000000000E+00 0.  1.
        -11    1    3    3    0    0  0.11338297212E+02 -0.47029958990E+02 -0.27169703595E+04  0.27174010209E+04  0.00000000000E+00 0. -1.
         22    1    1    2    0    0 -0.17039237346E+00  0.19080160079E+02 -0.11284346442E+03  0.11444531010E+03  0.00000000000E+00 0.  1.
<mgrwt>
<rscale>  0 0.63798447E+02</rscale>
<asrwt>0</asrwt>
<pdfrwt beam="1">  1        2 0.50478523E+00 0.95399706E+02</pdfrwt>
<pdfrwt beam="2">  1       -2 0.23373019E-03 0.95399706E+02</pdfrwt>
<totfact> 0.23595218E+04</totfact>
</mgrwt>
</event>
<event>
 6    1  0.2866116E-002  0.9218049E+02  0.7546771E-02  0.1399561E+00
         -2   -1    0    0    0  501 -0.00000000000E+00  0.00000000000E+00  0.10090582405E+03  0.10090582405E+03  0.00000000000E+00 0. -1.
          2   -1    0    0  501    0  0.00000000000E+00 -0.00000000000E+00 -0.29061005488E+02  0.29061005488E+02  0.00000000000E+00 0.  1.
         23    2    1    2    0    0  0.15419344984E+02 -0.46246604920E+01  0.62151489102E+02  0.11117575930E+03  0.90763969585E+02 0.  0.
         11    1    3    3    0    0 -0.34626794941E+02 -0.29664392727E+01  0.48697496489E+01  0.35093149637E+02  0.00000000000E+00 0.  1.
        -11    1    3    3    0    0  0.50046139925E+02 -0.16582212192E+01  0.57281739454E+02  0.76082609667E+02  0.00000000000E+00 0. -1.
         22    1    1    2    0    0 -0.15419344984E+02  0.46246604920E+01  0.96933294553E+01  0.18791070228E+02  0.00000000000E+00 0.  1.
<mgrwt>
<rscale>  0 0.59589785E+02</rscale>
<asrwt>0</asrwt>
<pdfrwt beam="1">  1        2 0.44709240E-02 0.92180485E+02</pdfrwt>
<pdfrwt beam="2">  1       -2 0.15523973E-01 0.92180485E+02</pdfrwt>
<totfact> 0.50732854E+04</totfact>
</mgrwt>
</event>
<event>
 6    1  0.2866116E-002  0.1123108E+03  0.7546771E-02  0.1344398E+00
         -2   -1    0    0    0  501 -0.00000000000E+00  0.00000000000E+00  0.97505854109E+01  0.97505854109E+01  0.00000000000E+00 0.  1.
          2   -1    0    0  501    0  0.00000000000E+00 -0.00000000000E+00 -0.10994841913E+04  0.10994841913E+04  0.00000000000E+00 0. -1.
         23    2    1    2    0    0 -0.20307784172E+02  0.88010357029E+01 -0.10786510061E+04  0.10844822345E+04  0.11010839963E+03 0.  0.
         11    1    3    3    0    0  0.44384308821E+02  0.10643035508E+02 -0.35016938729E+03  0.35313147816E+03  0.00000000000E+00 0.  1.
        -11    1    3    3    0    0 -0.64692092993E+02 -0.18419998050E+01 -0.72848161880E+03  0.73135075634E+03  0.00000000000E+00 0. -1.
         22    1    1    2    0    0  0.20307784172E+02 -0.88010357029E+01 -0.11082599784E+02  0.24752542201E+02  0.00000000000E+00 0.  1.
<mgrwt>
<rscale>  0 0.74829996E+02</rscale>
<asrwt>0</asrwt>
<pdfrwt beam="1">  1        2 0.16915139E+00 0.11231084E+03</pdfrwt>
<pdfrwt beam="2">  1       -2 0.15000903E-02 0.11231084E+03</pdfrwt>
<totfact> 0.25299742E+04</totfact>
</mgrwt>
</event>
<event>
 6    1  0.2866116E-002  0.9096070E+02  0.7546771E-02  0.1425071E+00
          1   -1    0    0  501    0  0.00000000000E+00  0.00000000000E+00  0.14740518954E+04  0.14740518954E+04  0.00000000000E+00 0. -1.
         -1   -1    0    0    0  501 -0.00000000000E+00 -0.00000000000E+00 -0.31424614491E+01  0.31424614491E+01  0.00000000000E+00 0.  1.
         23    2    1    2    0    0  0.29359947844E+01 -0.10877442378E+02  0.14541959045E+04  0.14570379463E+04  0.90260232526E+02 0.  0.
         13    1    3    3    0    0  0.58617523908E+01  0.11284255857E+01  0.49927190948E+01  0.77820774446E+01  0.00000000000E+00 0.  1.
        -13    1    3    3    0    0 -0.29257576064E+01 -0.12005867963E+02  0.14492031854E+04  0.14492558689E+04  0.00000000000E+00 0. -1.
         22    1    1    2    0    0 -0.29359947844E+01  0.10877442378E+02  0.16713529440E+02  0.20156410504E+02  0.00000000000E+00 0.  1.
<mgrwt>
<rscale>  0 0.53962199E+02</rscale>
<asrwt>0</asrwt>
<pdfrwt beam="1">  1        1 0.22677666E+00 0.90960697E+02</pdfrwt>
<pdfrwt beam="2">  1       -1 0.48345678E-03 0.90960697E+02</pdfrwt>
<totfact> 0.36705136E+04</totfact>
</mgrwt>
</event>
