<event>
 6    1  0.1535970E-002  0.9153257E+02  0.7546771E-02  0.1413137E+00
         -2   -1    0    0    0  501 -0.00000000000E+00  0.00000000000E+00  0.78230918676E+02  0.78230918676E+02  0.00000000000E+00 0.  1.
          2   -1    0    0  501    0  0.00000000000E+00 -0.00000000000E+00 -0.84494603099E+02  0.84494603099E+02  0.00000000000E+00 0. -1.
         23    2    1    2    0    0 -0.10415827886E+02  0.82510971443E+01 -0.58629737028E+02  0.10869984695E+03  0.90562909564E+02 0.  0.
         11    1    3    3    0    0 -0.15746194031E+02 -0.30990117835E+02 -0.59701228864E+02  0.69083766239E+02  0.00000000000E+00 0. -1.
        -11    1    3    3    0    0  0.53303661456E+01  0.39241214979E+02  0.10714918355E+01  0.39616080713E+02  0.00000000000E+00 0.  1.
         22    1    1    2    0    0  0.10415827886E+02 -0.82510971443E+01  0.52366052605E+02  0.54025674823E+02  0.00000000000E+00 0. -1.
<mgrwt>
<rscale>  0 0.56499729E+02</rscale>
<asrwt>0</asrwt>
<pdfrwt beam="1">  1        2 0.12999170E-01 0.91532566E+02</pdfrwt>
<pdfrwt beam="2">  1       -2 0.12035526E-01 0.91532566E+02</pdfrwt>
<totfact> 0.20214938E+04</totfact>
</mgrwt>
</event>
<event>
 6    1  0.1535970E-002  0.9354154E+02  0.7546771E-02  0.1374916E+00
          4   -1    0    0  501    0  0.00000000000E+00  0.00000000000E+00  0.45898182789E+02  0.45898182789E+02  0.00000000000E+00 0. -1.
         -4   -1    0    0    0  501 -0.00000000000E+00 -0.00000000000E+00 -0.10037107904E+03  0.10037107904E+03  0.00000000000E+00 0.  1.
         23    2    1    2    0    0 -0.10108269678E+02 -0.20581310382E+02 -0.73086963300E+01  0.93826634062E+02  0.90687665999E+02 0.  0.
         11    1    3    3    0    0  0.96535907218E+01 -0.39324820851E+02  0.28002214940E+02  0.49231670603E+02  0.00000000000E+00 0. -1.
        -11    1    3    3    0    0 -0.19761860400E+02  0.18743510469E+02 -0.35310911270E+02  0.44594963459E+02  0.00000000000E+00 0.  1.
         22    1    1    2    0    0  0.10108269678E+02  0.20581310382E+02 -0.47164199918E+02  0.52442627765E+02  0.00000000000E+00 0. -1.
<mgrwt>
<rscale>  0 0.65819201E+02</rscale>
<asrwt>0</asrwt>
<pdfrwt beam="1">  1        4 0.70612589E-02 0.93541543E+02</pdfrwt>
<pdfrwt beam="2">  1       -4 0.15441704E-01 0.93541543E+02</pdfrwt>
<totfact> 0.71624181E+03</totfact>
</mgrwt>
</event>
<event>
 6    1  0.1535970E-002  0.1238587E+03  0.7546771E-02  0.1253308E+00
          2   -1    0    0  501    0  0.00000000000E+00  0.00000000000E+00  0.12050481370E+04  0.12050481370E+04  0.00000000000E+00 0. -1.
         -2   -1    0    0    0  501 -0.00000000000E+00 -0.00000000000E+00 -0.95186540216E+01  0.95186540216E+01  0.00000000000E+00 0.  1.
         23    2    1    2    0    0 -0.43893639425E+02 -0.77351253211E+02  0.76307112047E+03  0.77305789727E+03  0.86203884408E+02 0.  0.
         11    1    3    3    0    0  0.74925066471E+01  0.15737307196E+02  0.11866933297E+03  0.11994253241E+03  0.00000000000E+00 0. -1.
        -11    1    3    3    0    0 -0.51386146072E+02 -0.93088560407E+02  0.64440178750E+03  0.65311536486E+03  0.00000000000E+00 0.  1.
         22    1    1    2    0    0  0.43893639425E+02  0.77351253211E+02  0.43245836254E+03  0.44150889378E+03  0.00000000000E+00 0. -1.
<mgrwt>
<rscale>  0 0.11401606E+03</rscale>
<asrwt>0</asrwt>
<pdfrwt beam="1">  1        2 0.18539190E+00 0.12385870E+03</pdfrwt>
<pdfrwt beam="2">  1       -2 0.14644093E-02 0.12385870E+03</pdfrwt>
<totfact> 0.23040193E+04</totfact>
</mgrwt>
</event>
<event>
 6    1  0.1535970E-002  0.9075161E+02  0.7546771E-02  0.1428828E+00
          2   -1    0    0  501    0  0.00000000000E+00  0.00000000000E+00  0.64829861014E+03  0.64829861014E+03  0.00000000000E+00 0. -1.
         -2   -1    0    0    0  501 -0.00000000000E+00 -0.00000000000E+00 -0.48612217399E+01  0.48612217399E+01  0.00000000000E+00 0.  1.
         23    2    1    2    0    0  0.10204342215E+02  0.32649551249E+01  0.62703544370E+03  0.63356870323E+03  0.90116954661E+02 0.  0.
         11    1    3    3    0    0 -0.88317569133E+01  0.26078782109E+02  0.55450498607E+03  0.55518815043E+03  0.00000000000E+00 0. -1.
        -11    1    3    3    0    0  0.19036099129E+02 -0.22813826984E+02  0.72530457637E+02  0.78380552796E+02  0.00000000000E+00 0.  1.
         22    1    1    2    0    0 -0.10204342215E+02 -0.32649551249E+01  0.16401944695E+02  0.19591128650E+02  0.00000000000E+00 0.  1.
<mgrwt>
<rscale>  0 0.53195887E+02</rscale>
<asrwt>0</asrwt>
<pdfrwt beam="1">  1        2 0.99738179E-01 0.90751606E+02</pdfrwt>
<pdfrwt beam="2">  1       -2 0.74788078E-03 0.90751606E+02</pdfrwt>
<totfact> 0.12955430E+05</totfact>
</mgrwt>
</event>
<event>
 6    1  0.1535970E-002  0.9157062E+02  0.7546771E-02  0.1415492E+00
         -2   -1    0    0    0  501 -0.00000000000E+00  0.00000000000E+00  0.41149040331E+01  0.41149040331E+01  0.00000000000E+00 0.  1.
          2   -1    0    0  501    0  0.00000000000E+00 -0.00000000000E+00 -0.68319879578E+03  0.68319879578E+03  0.00000000000E+00 0. -1.
         23    2    1    2    0    0  0.89078324030E+01  0.91855212855E+01 -0.62854020445E+03  0.63517554100E+03  0.90672244864E+02 0.  0.
         13    1    3    3    0    0 -0.22021098027E+02 -0.21736880837E+02 -0.46045790895E+03  0.46149637773E+03  0.00000000000E+00 0. -1.
        -13    1    3    3    0    0  0.30928930430E+02  0.30922402123E+02 -0.16808229551E+03  0.17367916327E+03  0.00000000000E+00 0.  1.
         22    1    1    2    0    0 -0.89078324030E+01 -0.91855212855E+01 -0.50543687297E+02  0.52138158819E+02  0.00000000000E+00 0.  1.
<mgrwt>
<rscale>  0 0.55986193E+02</rscale>
<asrwt>0</asrwt>
<pdfrwt beam="1">  1        2 0.10510741E+00 0.91570624E+02</pdfrwt>
<pdfrwt beam="2">  1       -2 0.63306274E-03 0.91570624E+02</pdfrwt>
<totfact> 0.15442822E+05</totfact>
</mgrwt>
</event>
<event>
 6    1  0.1535970E-002  0.9093634E+02  0.7546771E-02  0.1402878E+00
         -2   -1    0    0    0  501 -0.00000000000E+00  0.00000000000E+00  0.20851772656E+02  0.20851772656E+02  0.00000000000E+00 0.  1.
          2   -1    0    0  501    0  0.00000000000E+00 -0.00000000000E+00 -0.11234780670E+04  0.11234780670E+04  0.00000000000E+00 0. -1.
         23    2    1    2    0    0 -0.15001784922E+02 -0.53024649244E+01 -0.11183023588E+04  0.11219935758E+04  0.89533506536E+02 0.  0.
         13    1    3    3    0    0  0.25870211685E+02 -0.32416752893E+02 -0.45950253243E+03  0.46137044880E+03  0.00000000000E+00 0. -1.
        -13    1    3    3    0    0 -0.40871996608E+02  0.27114287968E+02 -0.65879982637E+03  0.66062312701E+03  0.00000000000E+00 0.  1.
         22    1    1    2    0    0  0.15001784922E+02  0.53024649244E+01  0.15676064460E+02  0.22336263834E+02  0.00000000000E+00 0.  1.
<mgrwt>
<rscale>  0 0.58813846E+02</rscale>
<asrwt>0</asrwt>
<pdfrwt beam="1">  1        2 0.17284282E+00 0.90936343E+02</pdfrwt>
<pdfrwt beam="2">  1       -2 0.32079642E-02 0.90936343E+02</pdfrwt>
<totfact> 0.80600751E+03</totfact>
</mgrwt>
</event>
<event>
 6    1  0.1535970E-002  0.9057734E+02  0.7546771E-02  0.1416336E+00
          2   -1    0    0  501    0  0.00000000000E+00  0.00000000000E+00  0.13884959384E+03  0.13884959384E+03  0.00000000000E+00 0.  1.
         -2   -1    0    0    0  501 -0.00000000000E+00 -0.00000000000E+00 -0.19913781829E+02  0.19913781829E+02  0.00000000000E+00 0. -1.
         23    2    1    2    0    0 -0.74262903429E+01 -0.10730244875E+02  0.11181085542E+03  0.14389552613E+03  0.89632399879E+02 0.  0.
         11    1    3    3    0    0  0.10049036847E+02  0.31893057193E+02  0.83197383117E+02  0.89665795018E+02  0.00000000000E+00 0.  1.
        -11    1    3    3    0    0 -0.17475327190E+02 -0.42623302068E+02  0.28613472301E+02  0.54229731114E+02  0.00000000000E+00 0. -1.
         22    1    1    2    0    0  0.74262903429E+01  0.10730244875E+02  0.71249565892E+01  0.14867849533E+02  0.00000000000E+00 0. -1.
<mgrwt>
<rscale>  0 0.55803658E+02</rscale>
<asrwt>0</asrwt>
<pdfrwt beam="1">  1        2 0.21361475E-01 0.90577343E+02</pdfrwt>
<pdfrwt beam="2">  1       -2 0.30636588E-02 0.90577343E+02</pdfrwt>
<totfact> 0.89993396E+04</totfact>
</mgrwt>
</event>
<event>
 6    1  0.1535970E-002  0.9809982E+02  0.7546771E-02  0.1351922E+00
          2   -1    0    0  501    0  0.00000000000E+00  0.00000000000E+00  0.68754400399E+03  0.68754400399E+03  0.00000000000E+00 0. -1.
         -2   -1    0    0    0  501 -0.00000000000E+00 -0.00000000000E+00 -0.60961771988E+01  0.60961771988E+01  0.00000000000E+00 0.  1.
         23    2    1    2    0    0  0.25922514907E+02 -0.13441660946E+02  0.57265257023E+03  0.58099444058E+03  0.93653183398E+02 0.  0.
         13    1    3    3    0    0  0.48478896603E+02  0.11811615812E+02  0.47549000487E+03  0.47810089146E+03  0.00000000000E+00 0. -1.
        -13    1    3    3    0    0 -0.22556381696E+02 -0.25253276758E+02  0.97162565362E+02  0.10289354912E+03  0.00000000000E+00 0.  1.
         22    1    1    2    0    0 -0.25922514907E+02  0.13441660946E+02  0.10879525656E+03  0.11264574062E+03  0.00000000000E+00 0. -1.
<mgrwt>
<rscale>  0 0.72459914E+02</rscale>
<asrwt>0</asrwt>
<pdfrwt beam="1">  1        2 0.10577594E+00 0.98099815E+02</pdfrwt>
<pdfrwt beam="2">  1       -2 0.93787396E-03 0.98099815E+02</pdfrwt>
<totfact> 0.88885996E+04</totfact>
</mgrwt>
</event>
<event>
 6    1  0.1535970E-002  0.9392225E+02  0.7546771E-02  0.1382468E+00
         -2   -1    0    0    0  501 -0.00000000000E+00  0.00000000000E+00  0.61217547736E+01  0.61217547736E+01  0.00000000000E+00 0.  1.
          2   -1    0    0  501    0  0.00000000000E+00 -0.00000000000E+00 -0.53034682257E+03  0.53034682257E+03  0.00000000000E+00 0. -1.
         23    2    1    2    0    0 -0.18435246737E+02 -0.78115833659E+01 -0.43533534890E+03  0.44535183200E+03  0.91763332028E+02 0.  0.
         11    1    3    3    0    0 -0.20017751983E+02 -0.66388388353E+01 -0.43988700047E+03  0.44039227713E+03  0.00000000000E+00 0. -1.
        -11    1    3    3    0    0  0.15825052463E+01 -0.11727445306E+01  0.45516515624E+01  0.49595548726E+01  0.00000000000E+00 0.  1.
         22    1    1    2    0    0  0.18435246737E+02  0.78115833659E+01 -0.88889718890E+02  0.91116745340E+02  0.00000000000E+00 0.  1.
<mgrwt>
<rscale>  0 0.63819447E+02</rscale>
<asrwt>0</asrwt>
<pdfrwt beam="1">  1        2 0.81591854E-01 0.93922246E+02</pdfrwt>
<pdfrwt beam="2">  1       -2 0.94180803E-03 0.93922246E+02</pdfrwt>
<totfact> 0.11761547E+05</totfact>
</mgrwt>
</event>
<event>
 6    1  0.1535970E-002  0.9450919E+02  0.7546771E-02  0.1369480E+00
         -1   -1    0    0    0  501 -0.00000000000E+00  0.00000000000E+00  0.14403907873E+02  0.14403907873E+02  0.00000000000E+00 0.  1.
          1   -1    0    0  501    0  0.00000000000E+00 -0.00000000000E+00 -0.24560894124E+03  0.24560894124E+03  0.00000000000E+00 0. -1.
         23    2    1    2    0    0 -0.15470810323E+01 -0.24269664826E+02 -0.17884248806E+03  0.20227857644E+03  0.91326758723E+02 0.  0.
         13    1    3    3    0    0  0.22560564027E+02  0.26613901131E+02 -0.44010791974E+02  0.56162519466E+02  0.00000000000E+00 0.  1.
        -13    1    3    3    0    0 -0.24107645060E+02 -0.50883565957E+02 -0.13483169609E+03  0.14611605697E+03  0.00000000000E+00 0. -1.
         22    1    1    2    0    0  0.15470810323E+01  0.24269664826E+02 -0.52362545306E+02  0.57734272676E+02  0.00000000000E+00 0.  1.
<mgrwt>
<rscale>  0 0.67311865E+02</rscale>
<asrwt>0</asrwt>
<pdfrwt beam="1">  1        1 0.37785987E-01 0.94509190E+02</pdfrwt>
<pdfrwt beam="2">  1       -1 0.22159861E-02 0.94509190E+02</pdfrwt>
<totfact> 0.58106660E+04</totfact>
</mgrwt>
</event>
<event>
 6    1  0.1535970E-002  0.1030697E+03  0.7546771E-02  0.1386468E+00
         -2   -1    0    0    0  501 -0.00000000000E+00  0.00000000000E+00  0.30780668825E+03  0.30780668825E+03  0.00000000000E+00 0.  1.
          2   -1    0    0  501    0  0.00000000000E+00 -0.00000000000E+00 -0.11171736521E+02  0.11171736521E+02  0.00000000000E+00 0. -1.
         23    2    1    2    0    0  0.10878166757E+02 -0.91263472878E+01  0.26219984801E+03  0.28173059134E+03  0.10208692901E+03 0.  0.
         13    1    3    3    0    0 -0.39100119765E+02 -0.22441758254E-01  0.49668355774E+02  0.63212067159E+02  0.00000000000E+00 0. -1.
        -13    1    3    3    0    0  0.49978286522E+02 -0.91039055295E+01  0.21253149224E+03  0.21851852418E+03  0.00000000000E+00 0.  1.
         22    1    1    2    0    0 -0.10878166757E+02  0.91263472878E+01  0.34435103716E+02  0.37247833423E+02  0.00000000000E+00 0. -1.
<mgrwt>
<rscale>  0 0.62793729E+02</rscale>
<asrwt>0</asrwt>
<pdfrwt beam="1">  1        2 0.17187289E-02 0.10306971E+03</pdfrwt>
<pdfrwt beam="2">  1       -2 0.47354869E-01 0.10306971E+03</pdfrwt>
<totfact> 0.25742576E+04</totfact>
</mgrwt>
</event>
<event>
 6    1  0.1535970E-002  0.9227723E+02  0.7546771E-02  0.1398374E+00
         -4   -1    0    0    0  501 -0.00000000000E+00  0.00000000000E+00  0.11411074442E+03  0.11411074442E+03  0.00000000000E+00 0.  1.
          4   -1    0    0  501    0  0.00000000000E+00 -0.00000000000E+00 -0.74123972403E+02  0.74123972403E+02  0.00000000000E+00 0. -1.
         23    2    1    2    0    0  0.12262068600E+02 -0.10818533441E+02 -0.44311532510E+02  0.10236502986E+03  0.90816784977E+02 0.  0.
         11    1    3    3    0    0  0.27115529290E+02 -0.45618106879E+02 -0.17086579765E+02  0.55751366010E+02  0.00000000000E+00 0. -1.
        -11    1    3    3    0    0 -0.14853460689E+02  0.34799573438E+02 -0.27224952745E+02  0.46613663854E+02  0.00000000000E+00 0.  1.
         22    1    1    2    0    0 -0.12262068600E+02  0.10818533441E+02  0.84298304525E+02  0.85869686956E+02  0.00000000000E+00 0.  1.
<mgrwt>
<rscale>  0 0.59870914E+02</rscale>
<asrwt>0</asrwt>
<pdfrwt beam="1">  1        4 0.11403688E-01 0.92277231E+02</pdfrwt>
<pdfrwt beam="2">  1       -4 0.17555499E-01 0.92277231E+02</pdfrwt>
<totfact> 0.25766079E+03</totfact>
</mgrwt>
</event>
<event>
 6    1  0.1535970E-002  0.9925282E+02  0.7546771E-02  0.1337128E+00
          2   -1    0    0  501    0  0.00000000000E+00  0.00000000000E+00  0.23473480216E+03  0.23473480216E+03  0.00000000000E+00 0. -1.
         -2   -1    0    0    0  501 -0.00000000000E+00 -0.00000000000E+00 -0.35432632712E+02  0.35432632712E+02  0.00000000000E+00 0.  1.
         23    2    1    2    0    0  0.15327720978E+02 -0.32979436103E+02  0.20998777656E+03  0.23226275923E+03  0.92350099009E+02 0.  0.
         11    1    3    3    0    0  0.12384777338E+02 -0.14536784748E+02  0.21255498486E+03  0.21341115811E+03  0.00000000000E+00 0. -1.
        -11    1    3    3    0    0  0.29429436408E+01 -0.18442651354E+02 -0.25672082998E+01  0.18851601118E+02  0.00000000000E+00 0.  1.
         22    1    1    2    0    0 -0.15327720978E+02  0.32979436103E+02 -0.10685607108E+02  0.37904675639E+02  0.00000000000E+00 0.  1.
<mgrwt>
<rscale>  0 0.77220923E+02</rscale>
<asrwt>0</asrwt>
<pdfrwt beam="1">  1        2 0.36113045E-01 0.99252824E+02</pdfrwt>
<pdfrwt beam="2">  1       -2 0.54511744E-02 0.99252824E+02</pdfrwt>
<totfact> 0.22084870E+04</totfact>
</mgrwt>
</event>
<event>
 6    1  0.1535970E-002  0.9358969E+02  0.7546771E-02  0.1400285E+00
          2   -1    0    0  501    0  0.00000000000E+00  0.00000000000E+00  0.10137766746E+04  0.10137766746E+04  0.00000000000E+00 0. -1.
         -2   -1    0    0    0  501 -0.00000000000E+00 -0.00000000000E+00 -0.40366757395E+01  0.40366757395E+01  0.00000000000E+00 0.  1.
         23    2    1    2    0    0  0.14845346740E+02  0.32944119742E+01  0.97954127976E+03  0.98400210804E+03  0.92346047100E+02 0.  0.
         11    1    3    3    0    0  0.30296485328E+02  0.37569318300E+02  0.73549683713E+03  0.73707864447E+03  0.00000000000E+00 0.  1.
        -11    1    3    3    0    0 -0.15451138588E+02 -0.34274906326E+02  0.24404444262E+03  0.24692346357E+03  0.00000000000E+00 0. -1.
         22    1    1    2    0    0 -0.14845346740E+02 -0.32944119742E+01  0.30198719096E+02  0.33811242289E+02  0.00000000000E+00 0. -1.
<mgrwt>
<rscale>  0 0.59419402E+02</rscale>
<asrwt>0</asrwt>
<pdfrwt beam="1">  1        2 0.15596544E+00 0.93589689E+02</pdfrwt>
<pdfrwt beam="2">  1       -2 0.62102784E-03 0.93589689E+02</pdfrwt>
<totfact> 0.97251021E+04</totfact>
</mgrwt>
</event>
<event>
 6    1  0.1535970E-002  0.1094222E+03  0.7546771E-02  0.1291672E+00
         -1   -1    0    0    0  501 -0.00000000000E+00  0.00000000000E+00  0.58680231185E+03  0.58680231185E+03  0.00000000000E+00 0.  1.
          1   -1    0    0  501    0  0.00000000000E+00 -0.00000000000E+00 -0.12461585862E+02  0.12461585862E+02  0.00000000000E+00 0. -1.
         23    2    1    2    0    0 -0.86857788701E+01 -0.60980331166E+02  0.37027582569E+03  0.38610544239E+03  0.90438830183E+02 0.  0.
         13    1    3    3    0    0 -0.40790585053E+01 -0.15515377360E+02  0.34056295140E+01  0.16400120893E+02  0.00000000000E+00 0. -1.
        -13    1    3    3    0    0 -0.46067203648E+01 -0.45464953807E+02  0.36687019618E+03  0.36970532149E+03  0.00000000000E+00 0.  1.
         22    1    1    2    0    0  0.86857788701E+01  0.60980331166E+02  0.20406490029E+03  0.21315845532E+03  0.00000000000E+00 0. -1.
<mgrwt>
<rscale>  0 0.94780059E+02</rscale>
<asrwt>0</asrwt>
<pdfrwt beam="1">  1        1 0.19171675E-02 0.10942224E+03</pdfrwt>
<pdfrwt beam="2">  1       -1 0.90277257E-01 0.10942224E+03</pdfrwt>
<totfact> 0.75373001E+03</totfact>
</mgrwt>
</event>
<event>
 6    1  0.1535970E-002  0.9295549E+02  0.7546771E-02  0.1378367E+00
          2   -1    0    0  501    0  0.00000000000E+00  0.00000000000E+00  0.10462851075E+03  0.10462851075E+03  0.00000000000E+00 0.  1.
         -2   -1    0    0    0  501 -0.00000000000E+00 -0.00000000000E+00 -0.32900481492E+02  0.32900481492E+02  0.00000000000E+00 0. -1.
         23    2    1    2    0    0  0.98049591673E+01  0.19784522129E+02  0.67912386614E+02  0.11512087610E+03  0.90294846580E+02 0.  0.
         11    1    3    3    0    0 -0.16534238543E+02  0.21639827773E+02 -0.12878187137E+02  0.30124921480E+02  0.00000000000E+00 0. -1.
        -11    1    3    3    0    0  0.26339197710E+02 -0.18553056443E+01  0.80790573751E+02  0.84995954622E+02  0.00000000000E+00 0.  1.
         22    1    1    2    0    0 -0.98049591673E+01 -0.19784522129E+02  0.38156426438E+01  0.22408116140E+02  0.00000000000E+00 0. -1.
<mgrwt>
<rscale>  0 0.64894862E+02</rscale>
<asrwt>0</asrwt>
<pdfrwt beam="1">  1        2 0.16096694E-01 0.92955494E+02</pdfrwt>
<pdfrwt beam="2">  1       -2 0.50616126E-02 0.92955494E+02</pdfrwt>
<totfact> 0.59406787E+04</totfact>
</mgrwt>
</event>
<event>
 6    1  0.1535970E-002  0.9153852E+02  0.7546771E-02  0.1430495E+00
          2   -1    0    0  501    0  0.00000000000E+00  0.00000000000E+00  0.23979587173E+02  0.23979587173E+02  0.00000000000E+00 0. -1.
         -2   -1    0    0    0  501 -0.00000000000E+00 -0.00000000000E+00 -0.10787620077E+03  0.10787620077E+03  0.00000000000E+00 0.  1.
         23    2    1    2    0    0  0.91701981889E+01  0.44191749410E+01 -0.75836804581E+02  0.11887186853E+03  0.90970756602E+02 0.  0.
         11    1    3    3    0    0  0.64449031273E+01 -0.84588711566E+01  0.19724302449E+02  0.22408422182E+02  0.00000000000E+00 0. -1.
        -11    1    3    3    0    0  0.27252950616E+01  0.12878046098E+02 -0.95561107030E+02  0.96463446348E+02  0.00000000000E+00 0.  1.
         22    1    1    2    0    0 -0.91701981889E+01 -0.44191749410E+01 -0.80598090184E+01  0.12983919416E+02  0.00000000000E+00 0. -1.
<mgrwt>
<rscale>  0 0.52860859E+02</rscale>
<asrwt>0</asrwt>
<pdfrwt beam="1">  1        2 0.36891673E-02 0.91538518E+02</pdfrwt>
<pdfrwt beam="2">  1       -2 0.16596339E-01 0.91538518E+02</pdfrwt>
<totfact> 0.58434224E+04</totfact>
</mgrwt>
</event>
<event>
 6    1  0.1535970E-002  0.9745952E+02  0.7546771E-02  0.1408496E+00
          1   -1    0    0  501    0  0.00000000000E+00  0.00000000000E+00  0.44697458494E+03  0.44697458494E+03  0.00000000000E+00 0. -1.
         -1   -1    0    0    0  501 -0.00000000000E+00 -0.00000000000E+00 -0.15002433454E+02  0.15002433454E+02  0.00000000000E+00 0.  1.
         23    2    1    2    0    0  0.11103070172E+02 -0.40940921778E+01  0.43798917009E+03  0.44870131613E+03  0.96738400952E+02 0.  0.
         11    1    3    3    0    0 -0.21327924816E+02 -0.37795697664E+01  0.39103827108E+03  0.39163770883E+03  0.00000000000E+00 0. -1.
        -11    1    3    3    0    0  0.32430994988E+02 -0.31452241134E+00  0.46950899008E+02  0.57063607299E+02  0.00000000000E+00 0.  1.
         22    1    1    2    0    0 -0.11103070172E+02  0.40940921778E+01 -0.60170186000E+01  0.13275702273E+02  0.00000000000E+00 0.  1.
<mgrwt>
<rscale>  0 0.57530695E+02</rscale>
<asrwt>0</asrwt>
<pdfrwt beam="1">  1        1 0.68765311E-01 0.97459520E+02</pdfrwt>
<pdfrwt beam="2">  1       -1 0.23080670E-02 0.97459520E+02</pdfrwt>
<totfact> 0.26297935E+04</totfact>
</mgrwt>
</event>
<event>
 6    1  0.1535970E-002  0.9127423E+02  0.7546771E-02  0.1397633E+00
         -1   -1    0    0    0  501 -0.00000000000E+00  0.00000000000E+00  0.73604469941E+01  0.73604469941E+01  0.00000000000E+00 0.  1.
          1   -1    0    0  501    0  0.00000000000E+00 -0.00000000000E+00 -0.10603618317E+04  0.10603618317E+04  0.00000000000E+00 0. -1.
         23    2    1    2    0    0 -0.47925218373E+01  0.16412054896E+02 -0.10447648454E+04  0.10487442811E+04  0.89658581370E+02 0.  0.
         11    1    3    3    0    0 -0.40029034878E+02  0.44430670956E+01 -0.26030787775E+03  0.26340511706E+03  0.00000000000E+00 0.  1.
        -11    1    3    3    0    0  0.35236513041E+02  0.11968987800E+02 -0.78445696766E+03  0.78533916407E+03  0.00000000000E+00 0. -1.
         22    1    1    2    0    0  0.47925218373E+01 -0.16412054896E+02 -0.82365392949E+01  0.18977997550E+02  0.00000000000E+00 0.  1.
<mgrwt>
<rscale>  0 0.60047393E+02</rscale>
<asrwt>0</asrwt>
<pdfrwt beam="1">  1        1 0.16313250E+00 0.91274230E+02</pdfrwt>
<pdfrwt beam="2">  1       -1 0.11323771E-02 0.91274230E+02</pdfrwt>
<totfact> 0.20924685E+04</totfact>
</mgrwt>
</event>
<event>
 6    1  0.1535970E-002  0.9144193E+02  0.7546771E-02  0.1420778E+00
          2   -1    0    0  501    0  0.00000000000E+00  0.00000000000E+00  0.53750030052E+02  0.53750030052E+02  0.00000000000E+00 0. -1.
         -2   -1    0    0    0  501 -0.00000000000E+00 -0.00000000000E+00 -0.98841117761E+02  0.98841117761E+02  0.00000000000E+00 0.  1.
         23    2    1    2    0    0 -0.40648114473E+01 -0.11124228284E+02  0.13838538096E+02  0.92483145479E+02  0.90671693014E+02 0.  0.
         11    1    3    3    0    0  0.28287044468E+01 -0.12979596416E+02  0.51994709148E+02  0.53664897944E+02  0.00000000000E+00 0. -1.
        -11    1    3    3    0    0 -0.68935158941E+01  0.18553681325E+01 -0.38156171052E+02  0.38818247535E+02  0.00000000000E+00 0.  1.
         22    1    1    2    0    0  0.40648114473E+01  0.11124228284E+02 -0.58929625805E+02  0.60108002333E+02  0.00000000000E+00 0.  1.
<mgrwt>
<rscale>  0 0.54856752E+02</rscale>
<asrwt>0</asrwt>
<pdfrwt beam="1">  1        2 0.82692355E-02 0.91441933E+02</pdfrwt>
<pdfrwt beam="2">  1       -2 0.15206326E-01 0.91441933E+02</pdfrwt>
<totfact> 0.24000487E+04</totfact>
</mgrwt>
</event>
<event>
 6    1  0.1535970E-002  0.9656964E+02  0.7546771E-02  0.1356558E+00
          2   -1    0    0  501    0  0.00000000000E+00  0.00000000000E+00  0.29590212442E+03  0.29590212442E+03  0.00000000000E+00 0. -1.
         -2   -1    0    0    0  501 -0.00000000000E+00 -0.00000000000E+00 -0.14043334740E+02  0.14043334740E+02  0.00000000000E+00 0.  1.
         23    2    1    2    0    0  0.11233704745E+02 -0.25971198786E+02  0.24593729667E+03  0.26421742674E+03  0.92330901718E+02 0.  0.
         13    1    3    3    0    0  0.60202880436E+01 -0.60206491106E+02  0.13358590111E+03  0.14665012245E+03  0.00000000000E+00 0.  1.
        -13    1    3    3    0    0  0.52134167015E+01  0.34235292321E+02  0.11235139556E+03  0.11756730429E+03  0.00000000000E+00 0. -1.
         22    1    1    2    0    0 -0.11233704745E+02  0.25971198786E+02  0.35921493008E+02  0.45728032415E+02  0.00000000000E+00 0.  1.
<mgrwt>
<rscale>  0 0.71050007E+02</rscale>
<asrwt>0</asrwt>
<pdfrwt beam="1">  1        2 0.45523399E-01 0.96569637E+02</pdfrwt>
<pdfrwt beam="2">  1       -2 0.21605133E-02 0.96569637E+02</pdfrwt>
<totfact> 0.66994222E+04</totfact>
</mgrwt>
</event>
<event>
 6    1  0.1535970E-002  0.9460725E+02  0.7546771E-02  0.1390616E+00
         -2   -1    0    0    0  501 -0.00000000000E+00  0.00000000000E+00  0.39146560624E+02  0.39146560624E+02  0.00000000000E+00 0.  1.
          2   -1    0    0  501    0  0.00000000000E+00 -0.00000000000E+00 -0.96824757640E+02  0.96824757640E+02  0.00000000000E+00 0. -1.
         23    2    1    2    0    0  0.14942488025E+02 -0.84662009986E+01 -0.67470498790E+02  0.11620155140E+03  0.93035357976E+02 0.  0.
         13    1    3    3    0    0  0.16202942380E+02 -0.16579266381E+02 -0.89625027863E+02  0.92574580934E+02  0.00000000000E+00 0. -1.
        -13    1    3    3    0    0 -0.12604543550E+01  0.81130653829E+01  0.22154529074E+02  0.23626970469E+02  0.00000000000E+00 0.  1.
         22    1    1    2    0    0 -0.14942488025E+02  0.84662009986E+01  0.97923017734E+01  0.19769766861E+02  0.00000000000E+00 0.  1.
<mgrwt>
<rscale>  0 0.61753660E+02</rscale>
<asrwt>0</asrwt>
<pdfrwt beam="1">  1        2 0.14896117E-01 0.94607253E+02</pdfrwt>
<pdfrwt beam="2">  1       -2 0.60225478E-02 0.94607253E+02</pdfrwt>
<totfact> 0.50218974E+04</totfact>
</mgrwt>
</event>
<event>
 6    1  0.1535970E-002  0.9126581E+02  0.7546771E-02  0.1427277E+00
         -2   -1    0    0    0  501 -0.00000000000E+00  0.00000000000E+00  0.96981815682E+01  0.96981815682E+01  0.00000000000E+00 0.  1.
          2   -1    0    0  501    0  0.00000000000E+00 -0.00000000000E+00 -0.41831647987E+03  0.41831647987E+03  0.00000000000E+00 0. -1.
         23    2    1    2    0    0 -0.20633761323E+01  0.10586056883E+02 -0.40700171151E+03  0.41710890726E+03  0.90626294303E+02 0.  0.
         13    1    3    3    0    0  0.29303826923E+02 -0.16770334964E+02 -0.30615480612E+03  0.30801091493E+03  0.00000000000E+00 0. -1.
        -13    1    3    3    0    0 -0.31367203055E+02  0.27356391847E+02 -0.10084690539E+03  0.10909799233E+03  0.00000000000E+00 0.  1.
         22    1    1    2    0    0  0.20633761323E+01 -0.10586056883E+02 -0.16165867900E+01  0.10905754180E+02  0.00000000000E+00 0.  1.
<mgrwt>
<rscale>  0 0.53510482E+02</rscale>
<asrwt>0</asrwt>
<pdfrwt beam="1">  1        2 0.64356383E-01 0.91265806E+02</pdfrwt>
<pdfrwt beam="2">  1       -2 0.14920279E-02 0.91265806E+02</pdfrwt>
<totfact> 0.78600500E+04</totfact>
</mgrwt>
</event>
<event>
 6    1  0.1535970E-002  0.9251319E+02  0.7546771E-02  0.1421336E+00
          2   -1    0    0  501    0  0.00000000000E+00  0.00000000000E+00  0.15746004082E+04  0.15746004082E+04  0.00000000000E+00 0. -1.
         -2   -1    0    0    0  501 -0.00000000000E+00 -0.00000000000E+00 -0.50509508310E+01  0.50509508310E+01  0.00000000000E+00 0.  1.
         23    2    1    2    0    0 -0.10797640486E+02 -0.34624341526E+01  0.15645097855E+04  0.15672426612E+04  0.91815643869E+02 0.  0.
         11    1    3    3    0    0 -0.33847458967E+02 -0.37681428740E+02  0.95008796187E+03  0.95143716337E+03  0.00000000000E+00 0. -1.
        -11    1    3    3    0    0  0.23049818481E+02  0.34218994588E+02  0.61442182367E+03  0.61580549780E+03  0.00000000000E+00 0.  1.
         22    1    1    2    0    0  0.10797640486E+02  0.34624341526E+01  0.50396718243E+01  0.12408697854E+02  0.00000000000E+00 0.  1.
<mgrwt>
<rscale>  0 0.54739188E+02</rscale>
<asrwt>0</asrwt>
<pdfrwt beam="1">  1        2 0.24224582E+00 0.92513188E+02</pdfrwt>
<pdfrwt beam="2">  1       -2 0.77707062E-03 0.92513188E+02</pdfrwt>
<totfact> 0.35489878E+04</totfact>
</mgrwt>
</event>
<event>
 6    1  0.1535970E-002  0.9483520E+02  0.7546771E-02  0.1381348E+00
          2   -1    0    0  501    0  0.00000000000E+00  0.00000000000E+00  0.42065686263E+03  0.42065686263E+03  0.00000000000E+00 0. -1.
         -2   -1    0    0    0  501 -0.00000000000E+00 -0.00000000000E+00 -0.14623095942E+02  0.14623095942E+02  0.00000000000E+00 0.  1.
         23    2    1    2    0    0 -0.72197570132E+01 -0.18444039474E+02  0.40443914347E+03  0.41540911796E+03  0.92743770833E+02 0.  0.
         13    1    3    3    0    0  0.41899681745E+02 -0.18261367029E+02  0.19782844722E+03  0.20303978769E+03  0.00000000000E+00 0. -1.
        -13    1    3    3    0    0 -0.49119438758E+02 -0.18267244538E+00  0.20661069625E+03  0.21236933027E+03  0.00000000000E+00 0.  1.
         22    1    1    2    0    0  0.72197570132E+01  0.18444039474E+02  0.15946232171E+01  0.19870840613E+02  0.00000000000E+00 0.  1.
<mgrwt>
<rscale>  0 0.64110695E+02</rscale>
<asrwt>0</asrwt>
<pdfrwt beam="1">  1        2 0.64716431E-01 0.94835197E+02</pdfrwt>
<pdfrwt beam="2">  1       -2 0.22497074E-02 0.94835197E+02</pdfrwt>
<totfact> 0.43573277E+04</totfact>
</mgrwt>
</event>
<event>
 6    1  0.1535970E-002  0.1007908E+03  0.7546771E-02  0.1342025E+00
         -2   -1    0    0    0  501 -0.00000000000E+00  0.00000000000E+00  0.60911995921E+02  0.60911995921E+02  0.00000000000E+00 0. -1.
          2   -1    0    0  501    0  0.00000000000E+00 -0.00000000000E+00 -0.72700737360E+02  0.72700737360E+02  0.00000000000E+00 0.  1.
         23    2    1    2    0    0 -0.13364536140E+02 -0.28967072887E+02 -0.45111231725E+01  0.10089170235E+03  0.95609012295E+02 0.  0.
         13    1    3    3    0    0  0.39122657655E+02 -0.10491081211E+02 -0.16893329662E+02  0.43886555048E+02  0.00000000000E+00 0.  1.
        -13    1    3    3    0    0 -0.52487193795E+02 -0.18475991676E+02  0.12382206490E+02  0.57005147297E+02  0.00000000000E+00 0. -1.
         22    1    1    2    0    0  0.13364536140E+02  0.28967072887E+02 -0.72776182664E+01  0.32721030935E+02  0.00000000000E+00 0.  1.
<mgrwt>
<rscale>  0 0.75599384E+02</rscale>
<asrwt>0</asrwt>
<pdfrwt beam="1">  1        2 0.11184729E-01 0.10079080E+03</pdfrwt>
<pdfrwt beam="2">  1       -2 0.93710764E-02 0.10079080E+03</pdfrwt>
<totfact> 0.36176102E+04</totfact>
</mgrwt>
</event>
<event>
 6    1  0.1535970E-002  0.8382179E+02  0.7546771E-02  0.1415162E+00
         -2   -1    0    0    0  501 -0.00000000000E+00  0.00000000000E+00  0.65322761072E+01  0.65322761072E+01  0.00000000000E+00 0.  1.
          2   -1    0    0  501    0  0.00000000000E+00 -0.00000000000E+00 -0.62972708020E+03  0.62972708020E+03  0.00000000000E+00 0. -1.
         23    2    1    2    0    0 -0.32270543970E+01  0.16454027907E+02 -0.60761983609E+03  0.61337424012E+03  0.82127610001E+02 0.  0.
         11    1    3    3    0    0  0.10408515765E+02 -0.30668357702E+02 -0.31621847053E+03  0.31787262617E+03  0.00000000000E+00 0.  1.
        -11    1    3    3    0    0 -0.13635570162E+02  0.47122385609E+02 -0.29140136556E+03  0.29550161396E+03  0.00000000000E+00 0. -1.
         22    1    1    2    0    0  0.32270543970E+01 -0.16454027907E+02 -0.15574968008E+02  0.22885116187E+02  0.00000000000E+00 0.  1.
<mgrwt>
<rscale>  0 0.56057634E+02</rscale>
<asrwt>0</asrwt>
<pdfrwt beam="1">  1        2 0.96881113E-01 0.83821795E+02</pdfrwt>
<pdfrwt beam="2">  1       -2 0.10049653E-02 0.83821795E+02</pdfrwt>
<totfact> 0.87256058E+04</totfact>
</mgrwt>
</event>
<event>
 6    1  0.1535970E-002  0.8239449E+02  0.7546771E-02  0.1420922E+00
          2   -1    0    0  501    0  0.00000000000E+00  0.00000000000E+00  0.11468486858E+04  0.11468486858E+04  0.00000000000E+00 0. -1.
         -2   -1    0    0    0  501 -0.00000000000E+00 -0.00000000000E+00 -0.25195187043E+01  0.25195187043E+01  0.00000000000E+00 0.  1.
         23    2    1    2    0    0 -0.80225328749E+01  0.14020357022E+02  0.10762318682E+04  0.10793812517E+04  0.80795550396E+02 0.  0.
         13    1    3    3    0    0 -0.40117441950E+02  0.25587308074E+02  0.69438846683E+03  0.69601685494E+03  0.00000000000E+00 0. -1.
        -13    1    3    3    0    0  0.32094909075E+02 -0.11566951052E+02  0.38184340137E+03  0.38336439678E+03  0.00000000000E+00 0.  1.
         22    1    1    2    0    0  0.80225328749E+01 -0.14020357022E+02  0.68097298858E+02  0.69986952759E+02  0.00000000000E+00 0.  1.
<mgrwt>
<rscale>  0 0.54826363E+02</rscale>
<asrwt>0</asrwt>
<pdfrwt beam="1">  1        2 0.17643784E+00 0.82394493E+02</pdfrwt>
<pdfrwt beam="2">  1       -2 0.38761918E-03 0.82394493E+02</pdfrwt>
<totfact> 0.15549433E+05</totfact>
</mgrwt>
</event>
<event>
 6    1  0.1535970E-002  0.9480546E+02  0.7546771E-02  0.1382184E+00
          1   -1    0    0  501    0  0.00000000000E+00  0.00000000000E+00  0.97470153153E+03  0.97470153153E+03  0.00000000000E+00 0. -1.
         -1   -1    0    0    0  501 -0.00000000000E+00 -0.00000000000E+00 -0.52062459979E+01  0.52062459979E+01  0.00000000000E+00 0.  1.
         23    2    1    2    0    0 -0.86194060506E+01  0.17555706556E+02  0.93837657560E+03  0.94315357912E+03  0.92766260906E+02 0.  0.
         13    1    3    3    0    0 -0.91469378431E+01 -0.80166529974E+01  0.14511664037E+02  0.18934666364E+02  0.00000000000E+00 0.  1.
        -13    1    3    3    0    0  0.52753179256E+00  0.25572359554E+02  0.92386491157E+03  0.92421891275E+03  0.00000000000E+00 0. -1.
         22    1    1    2    0    0  0.86194060506E+01 -0.17555706556E+02  0.31118709928E+02  0.36754198412E+02  0.00000000000E+00 0.  1.
<mgrwt>
<rscale>  0 0.63893037E+02</rscale>
<asrwt>0</asrwt>
<pdfrwt beam="1">  1        1 0.14995394E+00 0.94805465E+02</pdfrwt>
<pdfrwt beam="2">  1       -1 0.80096170E-03 0.94805465E+02</pdfrwt>
<totfact> 0.39416574E+04</totfact>
</mgrwt>
</event>
<event>
 6    1  0.1535970E-002  0.9376286E+02  0.7546771E-02  0.1385459E+00
         -2   -1    0    0    0  501 -0.00000000000E+00  0.00000000000E+00  0.29286477995E+01  0.29286477995E+01  0.00000000000E+00 0.  1.
          2   -1    0    0  501    0  0.00000000000E+00 -0.00000000000E+00 -0.19478149677E+04  0.19478149677E+04  0.00000000000E+00 0. -1.
         23    2    1    2    0    0  0.81034452208E+01  0.17374790994E+02 -0.18947232567E+04  0.18970418269E+04  0.91781939637E+02 0.  0.
         11    1    3    3    0    0  0.25304676543E+02 -0.13056757223E+02 -0.20620168424E+03  0.20815844962E+03  0.00000000000E+00 0. -1.
        -11    1    3    3    0    0 -0.17201231322E+02  0.30431548217E+02 -0.16885215724E+04  0.16888833773E+04  0.00000000000E+00 0.  1.
         22    1    1    2    0    0 -0.81034452208E+01 -0.17374790994E+02 -0.50163063241E+02  0.53701788613E+02  0.00000000000E+00 0.  1.
<mgrwt>
<rscale>  0 0.63050359E+02</rscale>
<asrwt>0</asrwt>
<pdfrwt beam="1">  1        2 0.29966325E+00 0.93762858E+02</pdfrwt>
<pdfrwt beam="2">  1       -2 0.45056209E-03 0.93762858E+02</pdfrwt>
<totfact> 0.49597205E+04</totfact>
</mgrwt>
</event>
<event>
 6    1  0.1535970E-002  0.9097769E+02  0.7546771E-02  0.1428264E+00
          2   -1    0    0  501    0  0.00000000000E+00  0.00000000000E+00  0.66177953021E+03  0.66177953021E+03  0.00000000000E+00 0. -1.
         -2   -1    0    0    0  501 -0.00000000000E+00 -0.00000000000E+00 -0.39551615829E+01  0.39551615829E+01  0.00000000000E+00 0.  1.
         23    2    1    2    0    0  0.47335295949E+00  0.10715413301E+02  0.60799002919E+03  0.61475915323E+03  0.90343216310E+02 0.  0.
         13    1    3    3    0    0  0.22501727192E+02  0.30208752319E+02  0.53110886999E+03  0.53244298120E+03  0.00000000000E+00 0. -1.
        -13    1    3    3    0    0 -0.22028374232E+02 -0.19493339018E+02  0.76881159200E+02  0.82316172027E+02  0.00000000000E+00 0.  1.
         22    1    1    2    0    0 -0.47335295949E+00 -0.10715413301E+02  0.49834339433E+02  0.50975538565E+02  0.00000000000E+00 0.  1.
<mgrwt>
<rscale>  0 0.53310071E+02</rscale>
<asrwt>0</asrwt>
<pdfrwt beam="1">  1        2 0.10181215E+00 0.90977694E+02</pdfrwt>
<pdfrwt beam="2">  1       -2 0.60848692E-03 0.90977694E+02</pdfrwt>
<totfact> 0.16920639E+05</totfact>
</mgrwt>
</event>
<event>
 6    1  0.1535970E-002  0.9465620E+02  0.7546771E-02  0.1357454E+00
         -2   -1    0    0    0  501 -0.00000000000E+00  0.00000000000E+00  0.90080837135E+02  0.90080837135E+02  0.00000000000E+00 0.  1.
          2   -1    0    0  501    0  0.00000000000E+00 -0.00000000000E+00 -0.82208854300E+02  0.82208854300E+02  0.00000000000E+00 0. -1.
         23    2    1    2    0    0 -0.19769588210E+00 -0.29596153179E+02 -0.50175358026E+02  0.10713245739E+03  0.89910096807E+02 0.  0.
         11    1    3    3    0    0  0.24569349558E+02 -0.11499443911E+02 -0.66903196066E+02  0.72193682493E+02  0.00000000000E+00 0. -1.
        -11    1    3    3    0    0 -0.24767045440E+02 -0.18096709268E+02  0.16727838040E+02  0.34938774902E+02  0.00000000000E+00 0.  1.
         22    1    1    2    0    0  0.19769588210E+00  0.29596153179E+02  0.58047340862E+02  0.65157234040E+02  0.00000000000E+00 0.  1.
<mgrwt>
<rscale>  0 0.70782036E+02</rscale>
<asrwt>0</asrwt>
<pdfrwt beam="1">  1        2 0.12647516E-01 0.94656204E+02</pdfrwt>
<pdfrwt beam="2">  1       -2 0.13858590E-01 0.94656204E+02</pdfrwt>
<totfact> 0.16738027E+04</totfact>
</mgrwt>
</event>
<event>
 6    1  0.1535970E-002  0.9001021E+02  0.7546771E-02  0.1388164E+00
         -2   -1    0    0    0  501 -0.00000000000E+00  0.00000000000E+00  0.11568435117E+03  0.11568435117E+03  0.00000000000E+00 0.  1.
          2   -1    0    0  501    0  0.00000000000E+00 -0.00000000000E+00 -0.26508850750E+02  0.26508850750E+02  0.00000000000E+00 0. -1.
         23    2    1    2    0    0  0.57433694914E+01  0.19933735441E+02  0.72482058967E+02  0.11556593977E+03  0.87587085019E+02 0.  0.
         13    1    3    3    0    0  0.30547512925E+02 -0.14025845388E+02  0.22282406339E+01  0.33687385489E+02  0.00000000000E+00 0. -1.
        -13    1    3    3    0    0 -0.24804143434E+02  0.33959580829E+02  0.70253818333E+02  0.81878554286E+02  0.00000000000E+00 0.  1.
         22    1    1    2    0    0 -0.57433694914E+01 -0.19933735441E+02  0.16693441448E+02  0.26627262141E+02  0.00000000000E+00 0.  1.
<mgrwt>
<rscale>  0 0.62365628E+02</rscale>
<asrwt>0</asrwt>
<pdfrwt beam="1">  1        2 0.40782848E-02 0.90010208E+02</pdfrwt>
<pdfrwt beam="2">  1       -2 0.17797592E-01 0.90010208E+02</pdfrwt>
<totfact> 0.45566229E+04</totfact>
</mgrwt>
</event>
<event>
 6    1  0.1535970E-002  0.9486729E+02  0.7546771E-02  0.1408854E+00
         -4   -1    0    0    0  501 -0.00000000000E+00  0.00000000000E+00  0.12501105906E+03  0.12501105906E+03  0.00000000000E+00 0.  1.
          4   -1    0    0  501    0  0.00000000000E+00 -0.00000000000E+00 -0.24648397514E+02  0.24648397514E+02  0.00000000000E+00 0. -1.
         23    2    1    2    0    0  0.12028247589E+01  0.12702400761E+02  0.73804296258E+02  0.12019516396E+03  0.94005348361E+02 0.  0.
         13    1    3    3    0    0  0.26805030410E+02 -0.36906356253E+01 -0.11676147707E+02  0.29469694125E+02  0.00000000000E+00 0. -1.
        -13    1    3    3    0    0 -0.25602205651E+02  0.16393036386E+02  0.85480443965E+02  0.90725469834E+02  0.00000000000E+00 0.  1.
         22    1    1    2    0    0 -0.12028247589E+01 -0.12702400761E+02  0.26558365287E+02  0.29464292613E+02  0.00000000000E+00 0.  1.
<mgrwt>
<rscale>  0 0.57450451E+02</rscale>
<asrwt>0</asrwt>
<pdfrwt beam="1">  1        4 0.37920612E-02 0.94867293E+02</pdfrwt>
<pdfrwt beam="2">  1       -4 0.19232470E-01 0.94867293E+02</pdfrwt>
<totfact> 0.13215466E+04</totfact>
</mgrwt>
</event>
<event>
 6    1  0.1535970E-002  0.9115430E+02  0.7546771E-02  0.1424058E+00
         -2   -1    0    0    0  501 -0.00000000000E+00  0.00000000000E+00  0.11625565847E+03  0.11625565847E+03  0.00000000000E+00 0.  1.
          2   -1    0    0  501    0  0.00000000000E+00 -0.00000000000E+00 -0.30535983481E+02  0.30535983481E+02  0.00000000000E+00 0. -1.
         23    2    1    2    0    0  0.18766755846E+00  0.11368302857E+02  0.39763207372E+02  0.99449584066E+02  0.90442432416E+02 0.  0.
         13    1    3    3    0    0 -0.25197218259E+02 -0.31099176313E+02  0.27232320534E+02  0.48411340170E+02  0.00000000000E+00 0. -1.
        -13    1    3    3    0    0  0.25384885817E+02  0.42467479170E+02  0.12530886838E+02  0.51038243896E+02  0.00000000000E+00 0.  1.
         22    1    1    2    0    0 -0.18766755846E+00 -0.11368302857E+02  0.45956467612E+02  0.47342057880E+02  0.00000000000E+00 0. -1.
<mgrwt>
<rscale>  0 0.54171590E+02</rscale>
<asrwt>0</asrwt>
<pdfrwt beam="1">  1        2 0.46978437E-02 0.91154304E+02</pdfrwt>
<pdfrwt beam="2">  1       -2 0.17885486E-01 0.91154304E+02</pdfrwt>
<totfact> 0.37669911E+04</totfact>
</mgrwt>
</event>
<event>
 6    1  0.1535970E-002  0.9220884E+02  0.7546771E-02  0.1427189E+00
         -4   -1    0    0    0  501 -0.00000000000E+00  0.00000000000E+00  0.11369452086E+02  0.11369452086E+02  0.00000000000E+00 0. -1.
          4   -1    0    0  501    0  0.00000000000E+00 -0.00000000000E+00 -0.54351645686E+03  0.54351645686E+03  0.00000000000E+00 0.  1.
         23    2    1    2    0    0  0.95386893895E+01  0.43209495245E+01 -0.53589012193E+03  0.54376529178E+03  0.91612294845E+02 0.  0.
         13    1    3    3    0    0 -0.40405231856E+02 -0.47160929932E+01 -0.20396205569E+03  0.20797919236E+03  0.00000000000E+00 0. -1.
        -13    1    3    3    0    0  0.49943921246E+02  0.90370425177E+01 -0.33192806624E+03  0.33578609942E+03  0.00000000000E+00 0.  1.
         22    1    1    2    0    0 -0.95386893895E+01 -0.43209495245E+01  0.37431171551E+01  0.11120617164E+02  0.00000000000E+00 0. -1.
<mgrwt>
<rscale>  0 0.53528374E+02</rscale>
<asrwt>0</asrwt>
<pdfrwt beam="1">  1        4 0.83617904E-01 0.92208838E+02</pdfrwt>
<pdfrwt beam="2">  1       -4 0.17491467E-02 0.92208838E+02</pdfrwt>
<totfact> 0.24082926E+03</totfact>
</mgrwt>
</event>
<event>
 6    1  0.1535970E-002  0.9439093E+02  0.7546771E-02  0.1385434E+00
          1   -1    0    0  501    0  0.00000000000E+00  0.00000000000E+00  0.13491566881E+04  0.13491566881E+04  0.00000000000E+00 0. -1.
         -1   -1    0    0    0  501 -0.00000000000E+00 -0.00000000000E+00 -0.49788654508E+01  0.49788654508E+01  0.00000000000E+00 0.  1.
         23    2    1    2    0    0  0.12059464267E+02  0.14421389317E+02  0.13206535875E+04  0.13240224868E+04  0.92499947546E+02 0.  0.
         13    1    3    3    0    0 -0.24687286887E+02  0.36092242465E+02  0.93389900631E+03  0.93492217114E+03  0.00000000000E+00 0. -1.
        -13    1    3    3    0    0  0.36746751154E+02 -0.21670853148E+02  0.38675458121E+03  0.38910031571E+03  0.00000000000E+00 0.  1.
         22    1    1    2    0    0 -0.12059464267E+02 -0.14421389317E+02  0.23524235151E+02  0.30113066727E+02  0.00000000000E+00 0.  1.
<mgrwt>
<rscale>  0 0.63056827E+02</rscale>
<asrwt>0</asrwt>
<pdfrwt beam="1">  1        1 0.20756228E+00 0.94390929E+02</pdfrwt>
<pdfrwt beam="2">  1       -1 0.76598038E-03 0.94390929E+02</pdfrwt>
<totfact> 0.23254916E+04</totfact>
</mgrwt>
</event>
<event>
 6    1  0.1535970E-002  0.9181377E+02  0.7546771E-02  0.1417814E+00
          1   -1    0    0  501    0  0.00000000000E+00  0.00000000000E+00  0.28540314182E+03  0.28540314182E+03  0.00000000000E+00 0. -1.
         -1   -1    0    0    0  501 -0.00000000000E+00 -0.00000000000E+00 -0.96127256807E+01  0.96127256807E+01  0.00000000000E+00 0.  1.
         23    2    1    2    0    0  0.12213971111E+02  0.89313612639E+00  0.23088972850E+03  0.24847501950E+03  0.90993350331E+02 0.  0.
         13    1    3    3    0    0 -0.37738542188E+02  0.13008089879E+02  0.11387432955E+03  0.12066801937E+03  0.00000000000E+00 0. -1.
        -13    1    3    3    0    0  0.49952513299E+02 -0.12114953753E+02  0.11701539895E+03  0.12780700012E+03  0.00000000000E+00 0.  1.
         22    1    1    2    0    0 -0.12213971111E+02 -0.89313612639E+00  0.44900687636E+02  0.46540848001E+02  0.00000000000E+00 0. -1.
<mgrwt>
<rscale>  0 0.55486151E+02</rscale>
<asrwt>0</asrwt>
<pdfrwt beam="1">  1        1 0.43908169E-01 0.91813771E+02</pdfrwt>
<pdfrwt beam="2">  1       -1 0.14788811E-02 0.91813771E+02</pdfrwt>
<totfact> 0.85735772E+04</totfact>
</mgrwt>
</event>
<event>
 6    1  0.1535970E-002  0.9143928E+02  0.7546771E-02  0.1429328E+00
          1   -1    0    0  501    0  0.00000000000E+00  0.00000000000E+00  0.55112403809E+02  0.55112403809E+02  0.00000000000E+00 0. -1.
         -1   -1    0    0    0  501 -0.00000000000E+00 -0.00000000000E+00 -0.48014864054E+02  0.48014864054E+02  0.00000000000E+00 0.  1.
         23    2    1    2    0    0 -0.85612576334E+01  0.58957673344E+01  0.17925037870E+01  0.91456851789E+02  0.90846504966E+02 0.  0.
         11    1    3    3    0    0  0.78670938310E+01  0.30487386703E+02 -0.33122585373E+02  0.45699864060E+02  0.00000000000E+00 0.  1.
        -11    1    3    3    0    0 -0.16428351464E+02 -0.24591619368E+02  0.34915089160E+02  0.45756987729E+02  0.00000000000E+00 0. -1.
         22    1    1    2    0    0  0.85612576334E+01 -0.58957673344E+01  0.53050359675E+01  0.11670416074E+02  0.00000000000E+00 0. -1.
<mgrwt>
<rscale>  0 0.53095208E+02</rscale>
<asrwt>0</asrwt>
<pdfrwt beam="1">  1        1 0.84788313E-02 0.91439284E+02</pdfrwt>
<pdfrwt beam="2">  1       -1 0.73869022E-02 0.91439284E+02</pdfrwt>
<totfact> 0.66586838E+04</totfact>
</mgrwt>
</event>
<event>
 6    1  0.1535970E-002  0.9076445E+02  0.7546771E-02  0.1395879E+00
          2   -1    0    0  501    0  0.00000000000E+00  0.00000000000E+00  0.31570766101E+02  0.31570766101E+02  0.00000000000E+00 0.  1.
         -2   -1    0    0    0  501 -0.00000000000E+00 -0.00000000000E+00 -0.13920399482E+03  0.13920399482E+03  0.00000000000E+00 0. -1.
         23    2    1    2    0    0  0.17314157104E+02 -0.44597318406E+01 -0.37173357600E+02  0.98081826723E+02  0.88986049321E+02 0.  0.
         11    1    3    3    0    0 -0.28025799324E+02  0.12509132066E+02 -0.39009984696E+02  0.49635700043E+02  0.00000000000E+00 0. -1.
        -11    1    3    3    0    0  0.45339956428E+02 -0.16968863907E+02  0.18366270955E+01  0.48446126680E+02  0.00000000000E+00 0.  1.
         22    1    1    2    0    0 -0.17314157104E+02  0.44597318406E+01 -0.70459871122E+02  0.72692934201E+02  0.00000000000E+00 0. -1.
<mgrwt>
<rscale>  0 0.60467840E+02</rscale>
<asrwt>0</asrwt>
<pdfrwt beam="1">  1        2 0.48570410E-02 0.90764455E+02</pdfrwt>
<pdfrwt beam="2">  1       -2 0.21415999E-01 0.90764455E+02</pdfrwt>
<totfact> 0.26684197E+04</totfact>
</mgrwt>
</event>
<event>
 6    1  0.1535970E-002  0.9213693E+02  0.7546771E-02  0.1410237E+00
          2   -1    0    0  501    0  0.00000000000E+00  0.00000000000E+00  0.44820268884E+03  0.44820268884E+03  0.00000000000E+00 0. -1.
         -2   -1    0    0    0  501 -0.00000000000E+00 -0.00000000000E+00 -0.11745008014E+02  0.11745008014E+02  0.00000000000E+00 0.  1.
         23    2    1    2    0    0  0.91470578649E+01 -0.10104515979E+02  0.43670189872E+03  0.44631576547E+03  0.91123236653E+02 0.  0.
         11    1    3    3    0    0 -0.90630799941E+01  0.33723556628E+02  0.29078844383E+03  0.29287768224E+03  0.00000000000E+00 0. -1.
        -11    1    3    3    0    0  0.18210137859E+02 -0.43828072606E+02  0.14591345489E+03  0.15343808324E+03  0.00000000000E+00 0.  1.
         22    1    1    2    0    0 -0.91470578649E+01  0.10104515979E+02 -0.24421789072E+00  0.13631931379E+02  0.00000000000E+00 0.  1.
<mgrwt>
<rscale>  0 0.57140920E+02</rscale>
<asrwt>0</asrwt>
<pdfrwt beam="1">  1        2 0.68954247E-01 0.92136932E+02</pdfrwt>
<pdfrwt beam="2">  1       -2 0.18069247E-02 0.92136932E+02</pdfrwt>
<totfact> 0.55624908E+04</totfact>
</mgrwt>
</event>
<event>
 6    1  0.1535970E-002  0.1030285E+03  0.7546771E-02  0.1313006E+00
          2   -1    0    0  501    0  0.00000000000E+00  0.00000000000E+00  0.29304861560E+03  0.29304861560E+03  0.00000000000E+00 0. -1.
         -2   -1    0    0    0  501 -0.00000000000E+00 -0.00000000000E+00 -0.25781581707E+02  0.25781581707E+02  0.00000000000E+00 0.  1.
         23    2    1    2    0    0 -0.38797494922E+02 -0.31326492217E+02  0.24180620746E+03  0.26284048031E+03  0.90156981960E+02 0.  0.
         13    1    3    3    0    0 -0.13265247899E+02 -0.12354048250E+02  0.22705424213E+03  0.22777668489E+03  0.00000000000E+00 0. -1.
        -13    1    3    3    0    0 -0.25532247023E+02 -0.18972443967E+02  0.14751965329E+02  0.35063795419E+02  0.00000000000E+00 0.  1.
         22    1    1    2    0    0  0.38797494922E+02  0.31326492217E+02  0.25460826433E+02  0.55989716998E+02  0.00000000000E+00 0.  1.
<mgrwt>
<rscale>  0 0.85934732E+02</rscale>
<asrwt>0</asrwt>
<pdfrwt beam="1">  1        2 0.45084400E-01 0.10302852E+03</pdfrwt>
<pdfrwt beam="2">  1       -2 0.39663974E-02 0.10302852E+03</pdfrwt>
<totfact> 0.28149235E+04</totfact>
</mgrwt>
</event>
<event>
 6    1  0.1535970E-002  0.9152231E+02  0.7546771E-02  0.1361110E+00
         -2   -1    0    0    0  501 -0.00000000000E+00  0.00000000000E+00  0.36036578150E+02  0.36036578150E+02  0.00000000000E+00 0.  1.
          2   -1    0    0  501    0  0.00000000000E+00 -0.00000000000E+00 -0.24792891324E+03  0.24792891324E+03  0.00000000000E+00 0. -1.
         23    2    1    2    0    0 -0.30753805788E+02 -0.14712993481E+01 -0.23048976913E+03  0.24799570067E+03  0.86188007206E+02 0.  0.
         11    1    3    3    0    0 -0.33704284681E+02  0.18820453412E+02 -0.37162198072E+02  0.53583740426E+02  0.00000000000E+00 0.  1.
        -11    1    3    3    0    0  0.29504788932E+01 -0.20291752760E+02 -0.19332757105E+03  0.19441196024E+03  0.00000000000E+00 0. -1.
         22    1    1    2    0    0  0.30753805788E+02  0.14712993481E+01  0.18597434032E+02  0.35969790725E+02  0.00000000000E+00 0.  1.
<mgrwt>
<rscale>  0 0.69701812E+02</rscale>
<asrwt>0</asrwt>
<pdfrwt beam="1">  1        2 0.38142911E-01 0.91522314E+02</pdfrwt>
<pdfrwt beam="2">  1       -2 0.55440888E-02 0.91522314E+02</pdfrwt>
<totfact> 0.20153181E+04</totfact>
</mgrwt>
</event>
<event>
 6    1  0.1535970E-002  0.9454490E+02  0.7546771E-02  0.1350948E+00
         -4   -1    0    0    0  501 -0.00000000000E+00  0.00000000000E+00  0.14675395892E+03  0.14675395892E+03  0.00000000000E+00 0. -1.
          4   -1    0    0  501    0  0.00000000000E+00 -0.00000000000E+00 -0.28593563635E+02  0.28593563635E+02  0.00000000000E+00 0.  1.
         23    2    1    2    0    0 -0.17591437627E+02 -0.28114973514E+02  0.73682012879E+02  0.11986566142E+03  0.88537152384E+02 0.  0.
         11    1    3    3    0    0 -0.78077615208E+01 -0.44674173640E+02  0.17267320906E+01  0.45384188151E+02  0.00000000000E+00 0.  1.
        -11    1    3    3    0    0 -0.97836761066E+01  0.16559200126E+02  0.71955280788E+02  0.74481473269E+02  0.00000000000E+00 0. -1.
         22    1    1    2    0    0  0.17591437627E+02  0.28114973514E+02  0.44478382407E+02  0.55481861135E+02  0.00000000000E+00 0.  1.
<mgrwt>
<rscale>  0 0.72760929E+02</rscale>
<asrwt>0</asrwt>
<pdfrwt beam="1">  1        4 0.43990099E-02 0.94544898E+02</pdfrwt>
<pdfrwt beam="2">  1       -4 0.22577532E-01 0.94544898E+02</pdfrwt>
<totfact> 0.78351691E+03</totfact>
</mgrwt>
</event>
<event>
 6    1  0.1535970E-002  0.9528464E+02  0.7546771E-02  0.1355293E+00
          1   -1    0    0  501    0  0.00000000000E+00  0.00000000000E+00  0.44274331418E+02  0.44274331418E+02  0.00000000000E+00 0. -1.
         -1   -1    0    0    0  501 -0.00000000000E+00 -0.00000000000E+00 -0.88775580950E+02  0.88775580950E+02  0.00000000000E+00 0.  1.
         23    2    1    2    0    0 -0.22485423404E+02 -0.20001660058E+02 -0.33166938213E+02  0.10089206288E+03  0.90407421658E+02 0.  0.
         13    1    3    3    0    0 -0.15948201982E+01 -0.54519861433E+02 -0.14512688510E+02  0.56440914857E+02  0.00000000000E+00 0. -1.
        -13    1    3    3    0    0 -0.20890603205E+02  0.34518201375E+02 -0.18654249704E+02  0.44451148022E+02  0.00000000000E+00 0.  1.
         22    1    1    2    0    0  0.22485423404E+02  0.20001660058E+02 -0.11334311319E+02  0.32157849489E+02  0.00000000000E+00 0.  1.
<mgrwt>
<rscale>  0 0.71431186E+02</rscale>
<asrwt>0</asrwt>
<pdfrwt beam="1">  1        1 0.68114357E-02 0.95284640E+02</pdfrwt>
<pdfrwt beam="2">  1       -1 0.13657781E-01 0.95284640E+02</pdfrwt>
<totfact> 0.35367240E+04</totfact>
</mgrwt>
</event>
<event>
 6    1  0.1535970E-002  0.9175417E+02  0.7546771E-02  0.1414969E+00
          1   -1    0    0  501    0  0.00000000000E+00  0.00000000000E+00  0.21979293298E+02  0.21979293298E+02  0.00000000000E+00 0. -1.
         -1   -1    0    0    0  501 -0.00000000000E+00 -0.00000000000E+00 -0.15232737489E+03  0.15232737489E+03  0.00000000000E+00 0.  1.
         23    2    1    2    0    0  0.76408171629E+01  0.10297012564E+02 -0.78051279245E+02  0.12046090614E+03  0.90853823046E+02 0.  0.
         13    1    3    3    0    0  0.18540403467E+02  0.24377146897E+02 -0.92558101338E+02  0.97493558632E+02  0.00000000000E+00 0.  1.
        -13    1    3    3    0    0 -0.10899586304E+02 -0.14080134333E+02  0.14506822092E+02  0.22967347510E+02  0.00000000000E+00 0. -1.
         22    1    1    2    0    0 -0.76408171629E+01 -0.10297012564E+02 -0.52296802345E+02  0.53845762045E+02  0.00000000000E+00 0.  1.
<mgrwt>
<rscale>  0 0.56099704E+02</rscale>
<asrwt>0</asrwt>
<pdfrwt beam="1">  1        1 0.33814298E-02 0.91754170E+02</pdfrwt>
<pdfrwt beam="2">  1       -1 0.23434980E-01 0.91754170E+02</pdfrwt>
<totfact> 0.38770109E+04</totfact>
</mgrwt>
</event>
<event>
 6    1  0.1535970E-002  0.9225734E+02  0.7546771E-02  0.1400547E+00
          2   -1    0    0  501    0  0.00000000000E+00  0.00000000000E+00  0.99769049523E+03  0.99769049523E+03  0.00000000000E+00 0. -1.
         -2   -1    0    0    0  501 -0.00000000000E+00 -0.00000000000E+00 -0.30610826513E+01  0.30610826513E+01  0.00000000000E+00 0.  1.
         23    2    1    2    0    0  0.15632088505E+02  0.23586439413E+01  0.90945679535E+03  0.91412421432E+03  0.90892745601E+02 0.  0.
         11    1    3    3    0    0 -0.28649588978E+02  0.77998591433E+01  0.66281568997E+03  0.66348042595E+03  0.00000000000E+00 0.  1.
        -11    1    3    3    0    0  0.44281677483E+02 -0.54412152019E+01  0.24664110538E+03  0.25064378836E+03  0.00000000000E+00 0. -1.
         22    1    1    2    0    0 -0.15632088505E+02 -0.23586439413E+01  0.85172617231E+02  0.86627363565E+02  0.00000000000E+00 0.  1.
<mgrwt>
<rscale>  0 0.59357690E+02</rscale>
<asrwt>0</asrwt>
<pdfrwt beam="1">  1        2 0.15349059E+00 0.92257339E+02</pdfrwt>
<pdfrwt beam="2">  1       -2 0.47093659E-03 0.92257339E+02</pdfrwt>
<totfact> 0.14625585E+05</totfact>
</mgrwt>
</event>
<event>
 6    1  0.1535970E-002  0.9145908E+02  0.7546771E-02  0.1426078E+00
         -2   -1    0    0    0  501 -0.00000000000E+00  0.00000000000E+00  0.39368148154E+01  0.39368148154E+01  0.00000000000E+00 0.  1.
          2   -1    0    0  501    0  0.00000000000E+00 -0.00000000000E+00 -0.23382671597E+04  0.23382671597E+04  0.00000000000E+00 0. -1.
         23    2    1    2    0    0 -0.49057358332E+01  0.97500788306E+01 -0.23275680267E+04  0.23293642226E+04  0.90805464913E+02 0.  0.
         11    1    3    3    0    0  0.31029831084E+02 -0.26081032681E+02 -0.11061678894E+04  0.11069103262E+04  0.00000000000E+00 0. -1.
        -11    1    3    3    0    0 -0.35935566918E+02  0.35831111512E+02 -0.12214001372E+04  0.12224538964E+04  0.00000000000E+00 0.  1.
         22    1    1    2    0    0  0.49057358332E+01 -0.97500788306E+01 -0.67623181804E+01  0.12839751884E+02  0.00000000000E+00 0.  1.
<mgrwt>
<rscale>  0 0.53755497E+02</rscale>
<asrwt>0</asrwt>
<pdfrwt beam="1">  1        2 0.35973410E+00 0.91459077E+02</pdfrwt>
<pdfrwt beam="2">  1       -2 0.60566265E-03 0.91459077E+02</pdfrwt>
<totfact> 0.20713521E+04</totfact>
</mgrwt>
</event>
<event>
 6    1  0.1535970E-002  0.9173646E+02  0.7546771E-02  0.1405065E+00
          2   -1    0    0  501    0  0.00000000000E+00  0.00000000000E+00  0.30665327120E+03  0.30665327120E+03  0.00000000000E+00 0. -1.
         -2   -1    0    0    0  501 -0.00000000000E+00 -0.00000000000E+00 -0.16031413526E+02  0.16031413526E+02  0.00000000000E+00 0.  1.
         23    2    1    2    0    0  0.14852215404E+02  0.19063643538E+01  0.29344214344E+03  0.30744734443E+03  0.90506107637E+02 0.  0.
         11    1    3    3    0    0 -0.19145974180E+02  0.36607390007E+02  0.16590369665E+03  0.17096989762E+03  0.00000000000E+00 0. -1.
        -11    1    3    3    0    0  0.33998189585E+02 -0.34701025653E+02  0.12753844679E+03  0.13647744681E+03  0.00000000000E+00 0.  1.
         22    1    1    2    0    0 -0.14852215404E+02 -0.19063643538E+01 -0.28202857723E+01  0.15237340296E+02  0.00000000000E+00 0.  1.
<mgrwt>
<rscale>  0 0.58309778E+02</rscale>
<asrwt>0</asrwt>
<pdfrwt beam="1">  1        2 0.47177422E-01 0.91736460E+02</pdfrwt>
<pdfrwt beam="2">  1       -2 0.24663715E-02 0.91736460E+02</pdfrwt>
<totfact> 0.52949994E+04</totfact>
</mgrwt>
</event>
<event>
 6    1  0.1535970E-002  0.9061677E+02  0.7546771E-02  0.1427797E+00
         -1   -1    0    0    0  501 -0.00000000000E+00  0.00000000000E+00  0.24734215384E+02  0.24734215384E+02  0.00000000000E+00 0.  1.
          1   -1    0    0  501    0  0.00000000000E+00 -0.00000000000E+00 -0.74309423123E+03  0.74309423123E+03  0.00000000000E+00 0. -1.
         23    2    1    2    0    0 -0.67008543171E+01 -0.86373429347E+01 -0.73896651698E+03  0.74450178739E+03  0.89954950184E+02 0.  0.
         13    1    3    3    0    0  0.36651060249E+02 -0.15194561265E+02 -0.49806521301E+03  0.49964300388E+03  0.00000000000E+00 0. -1.
        -13    1    3    3    0    0 -0.43351914566E+02  0.65572183304E+01 -0.24090130397E+03  0.24485878351E+03  0.00000000000E+00 0.  1.
         22    1    1    2    0    0  0.67008543171E+01  0.86373429347E+01  0.20606501136E+02  0.23326659225E+02  0.00000000000E+00 0.  1.
<mgrwt>
<rscale>  0 0.53404732E+02</rscale>
<asrwt>0</asrwt>
<pdfrwt beam="1">  1        1 0.11432219E+00 0.90616766E+02</pdfrwt>
<pdfrwt beam="2">  1       -1 0.38052637E-02 0.90616766E+02</pdfrwt>
<totfact> 0.64483953E+03</totfact>
</mgrwt>
</event>
<event>
 6    1  0.1535970E-002  0.1190956E+03  0.7546771E-02  0.1266705E+00
         -2   -1    0    0    0  501 -0.00000000000E+00  0.00000000000E+00  0.94446780141E+01  0.94446780141E+01  0.00000000000E+00 0.  1.
          2   -1    0    0  501    0  0.00000000000E+00 -0.00000000000E+00 -0.27442131099E+04  0.27442131099E+04  0.00000000000E+00 0. -1.
         23    2    1    2    0    0  0.87083416828E+01 -0.76386621720E+02 -0.25594929168E+04  0.25622622357E+04  0.90956157009E+02 0.  0.
         11    1    3    3    0    0  0.28159187373E+02 -0.12206264924E+02 -0.16557808117E+04  0.16560652249E+04  0.00000000000E+00 0. -1.
        -11    1    3    3    0    0 -0.19450845690E+02 -0.64180356796E+02 -0.90371210507E+03  0.90619701084E+03  0.00000000000E+00 0.  1.
         22    1    1    2    0    0 -0.87083416828E+01  0.76386621720E+02 -0.17527551508E+03  0.19139555214E+03  0.00000000000E+00 0.  1.
<mgrwt>
<rscale>  0 0.10675230E+03</rscale>
<asrwt>0</asrwt>
<pdfrwt beam="1">  1        2 0.42218627E+00 0.11909565E+03</pdfrwt>
<pdfrwt beam="2">  1       -2 0.14530286E-02 0.11909565E+03</pdfrwt>
<totfact> 0.36608462E+03</totfact>
</mgrwt>
</event>
<event>
 6    1  0.1535970E-002  0.8543236E+02  0.7546771E-02  0.1402756E+00
          2   -1    0    0  501    0  0.00000000000E+00  0.00000000000E+00  0.13534174989E+04  0.13534174989E+04  0.00000000000E+00 0.  1.
         -2   -1    0    0    0  501 -0.00000000000E+00 -0.00000000000E+00 -0.66148161063E+01  0.66148161063E+01  0.00000000000E+00 0. -1.
         23    2    1    2    0    0  0.19126528874E+02  0.19511362258E+01  0.13344462054E+04  0.13371781343E+04  0.83240956550E+02 0.  0.
         11    1    3    3    0    0  0.39183961488E+02  0.69404433992E+01  0.12332964764E+04  0.12339383093E+04  0.00000000000E+00 0.  1.
        -11    1    3    3    0    0 -0.20057432614E+02 -0.49893071733E+01  0.10114972903E+03  0.10323982503E+03  0.00000000000E+00 0. -1.
         22    1    1    2    0    0 -0.19126528874E+02 -0.19511362258E+01  0.12356477375E+02  0.22854180634E+02  0.00000000000E+00 0. -1.
<mgrwt>
<rscale>  0 0.58842058E+02</rscale>
<asrwt>0</asrwt>
<pdfrwt beam="1">  1        2 0.20821786E+00 0.85432359E+02</pdfrwt>
<pdfrwt beam="2">  1       -2 0.10176651E-02 0.85432359E+02</pdfrwt>
<totfact> 0.31277571E+04</totfact>
</mgrwt>
</event>
<event>
 6    1  0.1535970E-002  0.1019452E+03  0.7546771E-02  0.1313318E+00
          2   -1    0    0  501    0  0.00000000000E+00  0.00000000000E+00  0.15163539143E+03  0.15163539143E+03  0.00000000000E+00 0. -1.
         -2   -1    0    0    0  501 -0.00000000000E+00 -0.00000000000E+00 -0.39741075066E+02  0.39741075066E+02  0.00000000000E+00 0.  1.
         23    2    1    2    0    0  0.45603566143E+02 -0.23238908809E+02  0.59067462059E+02  0.11782098632E+03  0.88165115644E+02 0.  0.
         13    1    3    3    0    0 -0.11421032468E+02 -0.11945095755E+02  0.57328166658E+02  0.59662752095E+02  0.00000000000E+00 0. -1.
        -13    1    3    3    0    0  0.57024598611E+02 -0.11293813054E+02  0.17392954009E+01  0.58158234228E+02  0.00000000000E+00 0.  1.
         22    1    1    2    0    0 -0.45603566143E+02  0.23238908809E+02  0.52826854301E+02  0.73555480169E+02  0.00000000000E+00 0. -1.
<mgrwt>
<rscale>  0 0.85813800E+02</rscale>
<asrwt>0</asrwt>
<pdfrwt beam="1">  1        2 0.23328521E-01 0.10194518E+03</pdfrwt>
<pdfrwt beam="2">  1       -2 0.61140116E-02 0.10194518E+03</pdfrwt>
<totfact> 0.29858296E+04</totfact>
</mgrwt>
</event>
<event>
 6    1  0.1535970E-002  0.9907958E+02  0.7546771E-02  0.1327123E+00
          4   -1    0    0  501    0  0.00000000000E+00  0.00000000000E+00  0.18661609872E+03  0.18661609872E+03  0.00000000000E+00 0. -1.
         -4   -1    0    0    0  501 -0.00000000000E+00 -0.00000000000E+00 -0.29505156190E+02  0.29505156190E+02  0.00000000000E+00 0.  1.
         23    2    1    2    0    0  0.41095941903E+02 -0.14471644959E+02  0.13444204279E+03  0.16700726542E+03  0.88985722923E+02 0.  0.
         11    1    3    3    0    0  0.35035496840E+02 -0.19423422913E+02  0.14691705685E+03  0.15228058639E+03  0.00000000000E+00 0. -1.
        -11    1    3    3    0    0  0.60604450633E+01  0.49517779542E+01 -0.12475014065E+02  0.14726679028E+02  0.00000000000E+00 0.  1.
         22    1    1    2    0    0 -0.41095941903E+02  0.14471644959E+02  0.22668899747E+02  0.49113989499E+02  0.00000000000E+00 0.  1.
<mgrwt>
<rscale>  0 0.80683341E+02</rscale>
<asrwt>0</asrwt>
<pdfrwt beam="1">  1        4 0.28710168E-01 0.99079583E+02</pdfrwt>
<pdfrwt beam="2">  1       -4 0.45392549E-02 0.99079583E+02</pdfrwt>
<totfact> 0.48574319E+03</totfact>
</mgrwt>
</event>
<event>
 6    1  0.1535970E-002  0.9279437E+02  0.7546771E-02  0.1388859E+00
         -2   -1    0    0    0  501 -0.00000000000E+00  0.00000000000E+00  0.52977843710E+01  0.52977843710E+01  0.00000000000E+00 0.  1.
          2   -1    0    0  501    0  0.00000000000E+00 -0.00000000000E+00 -0.58912189223E+03  0.58912189223E+03  0.00000000000E+00 0. -1.
         23    2    1    2    0    0 -0.63748513998E+01 -0.17603397256E+02 -0.47122809640E+03  0.48027774688E+03  0.90886065931E+02 0.  0.
         13    1    3    3    0    0  0.47094505665E+00 -0.61891401538E+00 -0.45722358186E+03  0.45722424329E+03  0.00000000000E+00 0. -1.
        -13    1    3    3    0    0 -0.68457964564E+01 -0.16984483240E+02 -0.14004514545E+02  0.23053503589E+02  0.00000000000E+00 0.  1.
         22    1    1    2    0    0  0.63748513998E+01  0.17603397256E+02 -0.11259601146E+03  0.11414192973E+03  0.00000000000E+00 0. -1.
<mgrwt>
<rscale>  0 0.62191362E+02</rscale>
<asrwt>0</asrwt>
<pdfrwt beam="1">  1        2 0.90634179E-01 0.92794371E+02</pdfrwt>
<pdfrwt beam="2">  1       -2 0.81504337E-03 0.92794371E+02</pdfrwt>
<totfact> 0.12825565E+05</totfact>
</mgrwt>
</event>
<event>
 6    1  0.1535970E-002  0.9065646E+02  0.7546771E-02  0.1397233E+00
         -1   -1    0    0    0  501 -0.00000000000E+00  0.00000000000E+00  0.16571563802E+03  0.16571563802E+03  0.00000000000E+00 0.  1.
          1   -1    0    0  501    0  0.00000000000E+00 -0.00000000000E+00 -0.18342241984E+02  0.18342241984E+02  0.00000000000E+00 0. -1.
         23    2    1    2    0    0 -0.44411931665E+01 -0.16989677952E+02  0.10840893239E+03  0.14131910626E+03  0.88939416568E+02 0.  0.
         13    1    3    3    0    0  0.15146032139E+02 -0.20898184360E+02  0.11682718571E+03  0.11964417128E+03  0.00000000000E+00 0.  1.
        -13    1    3    3    0    0 -0.19587225306E+02  0.39085064082E+01 -0.84182533251E+01  0.21674934984E+02  0.00000000000E+00 0. -1.
         22    1    1    2    0    0  0.44411931665E+01  0.16989677952E+02  0.38964463652E+02  0.42738773747E+02  0.00000000000E+00 0.  1.
<mgrwt>
<rscale>  0 0.60142803E+02</rscale>
<asrwt>0</asrwt>
<pdfrwt beam="1">  1        1 0.28218835E-02 0.90656457E+02</pdfrwt>
<pdfrwt beam="2">  1       -1 0.25494713E-01 0.90656457E+02</pdfrwt>
<totfact> 0.43246391E+04</totfact>
</mgrwt>
</event>
<event>
 6    1  0.1535970E-002  0.9257403E+02  0.7546771E-02  0.1421240E+00
          2   -1    0    0  501    0  0.00000000000E+00  0.00000000000E+00  0.11957253590E+04  0.11957253590E+04  0.00000000000E+00 0. -1.
         -2   -1    0    0    0  501 -0.00000000000E+00 -0.00000000000E+00 -0.59680554085E+01  0.59680554085E+01  0.00000000000E+00 0.  1.
         23    2    1    2    0    0 -0.10960910057E+02 -0.28827034072E+01  0.11862110915E+04  0.11898179292E+04  0.91877633370E+02 0.  0.
         13    1    3    3    0    0  0.30929932511E+02  0.21217591251E+02  0.75009724862E+03  0.75103443949E+03  0.00000000000E+00 0. -1.
        -13    1    3    3    0    0 -0.41890842568E+02 -0.24100294658E+02  0.43611384291E+03  0.43878348975E+03  0.00000000000E+00 0.  1.
         22    1    1    2    0    0  0.10960910057E+02  0.28827034072E+01  0.35462120563E+01  0.11875485176E+02  0.00000000000E+00 0. -1.
<mgrwt>
<rscale>  0 0.54759476E+02</rscale>
<asrwt>0</asrwt>
<pdfrwt beam="1">  1        2 0.18395756E+00 0.92574030E+02</pdfrwt>
<pdfrwt beam="2">  1       -2 0.91816332E-03 0.92574030E+02</pdfrwt>
<totfact> 0.44220710E+04</totfact>
</mgrwt>
</event>
<event>
 6    1  0.1535970E-002  0.9436161E+02  0.7546771E-02  0.1394587E+00
         -2   -1    0    0    0  501 -0.00000000000E+00  0.00000000000E+00  0.64474925481E+01  0.64474925481E+01  0.00000000000E+00 0. -1.
          2   -1    0    0  501    0  0.00000000000E+00 -0.00000000000E+00 -0.48685700888E+03  0.48685700888E+03  0.00000000000E+00 0.  1.
         23    2    1    2    0    0 -0.25790662044E+01  0.16036628647E+02 -0.43384804870E+03  0.44399126478E+03  0.92953153781E+02 0.  0.
         13    1    3    3    0    0 -0.47393703782E+02  0.13200857305E+02 -0.24320325063E+03  0.24812949625E+03  0.00000000000E+00 0.  1.
        -13    1    3    3    0    0  0.44814637577E+02  0.28357713413E+01 -0.19064479807E+03  0.19586176853E+03  0.00000000000E+00 0. -1.
         22    1    1    2    0    0  0.25790662044E+01 -0.16036628647E+02 -0.46561467631E+02  0.49313236649E+02  0.00000000000E+00 0. -1.
<mgrwt>
<rscale>  0 0.60780045E+02</rscale>
<asrwt>0</asrwt>
<pdfrwt beam="1">  1        2 0.74901075E-01 0.94361612E+02</pdfrwt>
<pdfrwt beam="2">  1       -2 0.99192198E-03 0.94361612E+02</pdfrwt>
<totfact> 0.12000689E+05</totfact>
</mgrwt>
</event>
<event>
 6    1  0.1535970E-002  0.9160031E+02  0.7546771E-02  0.1392302E+00
          2   -1    0    0  501    0  0.00000000000E+00  0.00000000000E+00  0.49938289707E+03  0.49938289707E+03  0.00000000000E+00 0. -1.
         -2   -1    0    0    0  501 -0.00000000000E+00 -0.00000000000E+00 -0.60596770286E+01  0.60596770286E+01  0.00000000000E+00 0.  1.
         23    2    1    2    0    0 -0.16208044539E+02 -0.87456825984E+01  0.41203596554E+03  0.42209507614E+03  0.89729753871E+02 0.  0.
         13    1    3    3    0    0 -0.12865510799E+01  0.40288150657E+02  0.18741951932E+03  0.19170515517E+03  0.00000000000E+00 0.  1.
        -13    1    3    3    0    0 -0.14921493459E+02 -0.49033833255E+02  0.22461644623E+03  0.23038992098E+03  0.00000000000E+00 0. -1.
         22    1    1    2    0    0  0.16208044539E+02  0.87456825984E+01  0.81287254502E+02  0.83347497961E+02  0.00000000000E+00 0.  1.
<mgrwt>
<rscale>  0 0.61337731E+02</rscale>
<asrwt>0</asrwt>
<pdfrwt beam="1">  1        2 0.76828105E-01 0.91600308E+02</pdfrwt>
<pdfrwt beam="2">  1       -2 0.93225840E-03 0.91600308E+02</pdfrwt>
<totfact> 0.12691726E+05</totfact>
</mgrwt>
</event>
<event>
 6    1  0.1535970E-002  0.9371729E+02  0.7546771E-02  0.1376547E+00
          4   -1    0    0  501    0  0.00000000000E+00  0.00000000000E+00  0.31680333460E+03  0.31680333460E+03  0.00000000000E+00 0. -1.
         -4   -1    0    0    0  501 -0.00000000000E+00 -0.00000000000E+00 -0.11096920225E+02  0.11096920225E+02  0.00000000000E+00 0.  1.
         23    2    1    2    0    0  0.60342325340E+01  0.21362716445E+02  0.27055098659E+03  0.28632283645E+03  0.91050275728E+02 0.  0.
         11    1    3    3    0    0  0.13786423288E+02  0.41664091545E+02  0.58347488453E+02  0.73009529516E+02  0.00000000000E+00 0.  1.
        -11    1    3    3    0    0 -0.77521907536E+01 -0.20301375100E+02  0.21220349814E+03  0.21331330693E+03  0.00000000000E+00 0. -1.
         22    1    1    2    0    0 -0.60342325340E+01 -0.21362716445E+02  0.35155427788E+02  0.41577418381E+02  0.00000000000E+00 0. -1.
<mgrwt>
<rscale>  0 0.65380187E+02</rscale>
<asrwt>0</asrwt>
<pdfrwt beam="1">  1        4 0.48738968E-01 0.93717289E+02</pdfrwt>
<pdfrwt beam="2">  1       -4 0.17072187E-02 0.93717289E+02</pdfrwt>
<totfact> 0.78250489E+03</totfact>
</mgrwt>
</event>
<event>
 6    1  0.1535970E-002  0.9036154E+02  0.7546771E-02  0.1409885E+00
          2   -1    0    0  501    0  0.00000000000E+00  0.00000000000E+00  0.20594776185E+04  0.20594776185E+04  0.00000000000E+00 0. -1.
         -2   -1    0    0    0  501 -0.00000000000E+00 -0.00000000000E+00 -0.18123911594E+01  0.18123911594E+01  0.00000000000E+00 0.  1.
         23    2    1    2    0    0  0.10364612292E+02  0.10181290968E+02  0.19914762835E+04  0.19935252684E+04  0.89185896059E+02 0.  0.
         13    1    3    3    0    0  0.13017937841E+02 -0.55894351432E+01  0.49612329586E+02  0.51595462376E+02  0.00000000000E+00 0.  1.
        -13    1    3    3    0    0 -0.26533255493E+01  0.15770726111E+02  0.19418639539E+04  0.19419298060E+04  0.00000000000E+00 0. -1.
         22    1    1    2    0    0 -0.10364612292E+02 -0.10181290968E+02  0.66188943814E+02  0.67764741252E+02  0.00000000000E+00 0.  1.
<mgrwt>
<rscale>  0 0.57219571E+02</rscale>
<asrwt>0</asrwt>
<pdfrwt beam="1">  1        2 0.31684084E+00 0.90361540E+02</pdfrwt>
<pdfrwt beam="2">  1       -2 0.27883106E-03 0.90361540E+02</pdfrwt>
<totfact> 0.84859841E+04</totfact>
</mgrwt>
</event>
<event>
 6    1  0.1535970E-002  0.9246279E+02  0.7546771E-02  0.1367442E+00
         -2   -1    0    0    0  501 -0.00000000000E+00  0.00000000000E+00  0.95521297182E+02  0.95521297182E+02  0.00000000000E+00 0.  1.
          2   -1    0    0  501    0  0.00000000000E+00 -0.00000000000E+00 -0.65810377683E+02  0.65810377683E+02  0.00000000000E+00 0. -1.
         23    2    1    2    0    0 -0.24129450499E+02  0.11806876321E+02 -0.28886607117E+02  0.96870036386E+02  0.88474488803E+02 0.  0.
         11    1    3    3    0    0  0.48583374936E+01 -0.25437009889E+02  0.17053364223E+02  0.31007453082E+02  0.00000000000E+00 0.  1.
        -11    1    3    3    0    0 -0.28987787993E+02  0.37243886210E+02 -0.45939971340E+02  0.65862583304E+02  0.00000000000E+00 0. -1.
         22    1    1    2    0    0  0.24129450499E+02 -0.11806876321E+02  0.58597526616E+02  0.64461638479E+02  0.00000000000E+00 0.  1.
<mgrwt>
<rscale>  0 0.67883586E+02</rscale>
<asrwt>0</asrwt>
<pdfrwt beam="1">  1        2 0.10124674E-01 0.92462792E+02</pdfrwt>
<pdfrwt beam="2">  1       -2 0.14695584E-01 0.92462792E+02</pdfrwt>
<totfact> 0.19824198E+04</totfact>
</mgrwt>
</event>
<event>
 6    1  0.1535970E-002  0.9175235E+02  0.7546771E-02  0.1400259E+00
          1   -1    0    0  501    0  0.00000000000E+00  0.00000000000E+00  0.12631309231E+03  0.12631309231E+03  0.00000000000E+00 0. -1.
         -1   -1    0    0    0  501 -0.00000000000E+00 -0.00000000000E+00 -0.24606845456E+02  0.24606845456E+02  0.00000000000E+00 0.  1.
         23    2    1    2    0    0  0.14703825330E+02  0.66677474610E+01  0.98208931452E+02  0.13440047801E+03  0.90320722637E+02 0.  0.
         13    1    3    3    0    0 -0.23039118581E+02  0.40851353320E+01 -0.54749016416E+01  0.24030477807E+02  0.00000000000E+00 0.  1.
        -13    1    3    3    0    0  0.37742943911E+02  0.25826121290E+01  0.10368383309E+03  0.11037000021E+03  0.00000000000E+00 0. -1.
         22    1    1    2    0    0 -0.14703825330E+02 -0.66677474610E+01  0.34973154025E+01  0.16519459754E+02  0.00000000000E+00 0.  1.
<mgrwt>
<rscale>  0 0.59425451E+02</rscale>
<asrwt>0</asrwt>
<pdfrwt beam="1">  1        1 0.19432783E-01 0.91752353E+02</pdfrwt>
<pdfrwt beam="2">  1       -1 0.37856686E-02 0.91752353E+02</pdfrwt>
<totfact> 0.60902718E+04</totfact>
</mgrwt>
</event>
<event>
 6    1  0.1535970E-002  0.9936708E+02  0.7546771E-02  0.1345369E+00
          4   -1    0    0  501    0  0.00000000000E+00  0.00000000000E+00  0.44311626220E+02  0.44311626220E+02  0.00000000000E+00 0.  1.
         -4   -1    0    0    0  501 -0.00000000000E+00 -0.00000000000E+00 -0.10041922025E+03  0.10041922025E+03  0.00000000000E+00 0. -1.
         23    2    1    2    0    0  0.47462833002E+01  0.31068210381E+02 -0.54334575634E+02  0.11325221093E+03  0.94265880730E+02 0.  0.
         13    1    3    3    0    0 -0.16658595609E+02 -0.27296894144E+02 -0.36607010475E+02  0.48607637810E+02  0.00000000000E+00 0.  1.
        -13    1    3    3    0    0  0.21404878909E+02  0.58365104526E+02 -0.17727565159E+02  0.64644573120E+02  0.00000000000E+00 0. -1.
         22    1    1    2    0    0 -0.47462833002E+01 -0.31068210381E+02 -0.17730184010E+01  0.31478635544E+02  0.00000000000E+00 0.  1.
<mgrwt>
<rscale>  0 0.74518376E+02</rscale>
<asrwt>0</asrwt>
<pdfrwt beam="1">  1        4 0.68171734E-02 0.99367083E+02</pdfrwt>
<pdfrwt beam="2">  1       -4 0.15449111E-01 0.99367083E+02</pdfrwt>
<totfact> 0.77095429E+03</totfact>
</mgrwt>
</event>
<event>
 6    1  0.1535970E-002  0.9323528E+02  0.7546771E-02  0.1399869E+00
         -2   -1    0    0    0  501 -0.00000000000E+00  0.00000000000E+00  0.14816851589E+03  0.14816851589E+03  0.00000000000E+00 0.  1.
          2   -1    0    0  501    0  0.00000000000E+00 -0.00000000000E+00 -0.21309012298E+02  0.21309012298E+02  0.00000000000E+00 0. -1.
         23    2    1    2    0    0 -0.10628036080E+02 -0.11257850053E+02  0.90391875761E+02  0.12985957496E+03  0.91940870483E+02 0.  0.
         11    1    3    3    0    0 -0.17887353557E+02 -0.21002336964E+02 -0.95411014316E+01  0.29190549699E+02  0.00000000000E+00 0. -1.
        -11    1    3    3    0    0  0.72593174769E+01  0.97444869106E+01  0.99932977193E+02  0.10066902526E+03  0.00000000000E+00 0.  1.
         22    1    1    2    0    0  0.10628036080E+02  0.11257850053E+02  0.36467627828E+02  0.39617953230E+02  0.00000000000E+00 0.  1.
<mgrwt>
<rscale>  0 0.59517193E+02</rscale>
<asrwt>0</asrwt>
<pdfrwt beam="1">  1        2 0.32783097E-02 0.93235283E+02</pdfrwt>
<pdfrwt beam="2">  1       -2 0.22795156E-01 0.93235283E+02</pdfrwt>
<totfact> 0.40283729E+04</totfact>
</mgrwt>
</event>
<event>
 6    1  0.1535970E-002  0.9304085E+02  0.7546771E-02  0.1424893E+00
         -2   -1    0    0    0  501 -0.00000000000E+00  0.00000000000E+00  0.49850951797E+01  0.49850951797E+01  0.00000000000E+00 0.  1.
          2   -1    0    0  501    0  0.00000000000E+00 -0.00000000000E+00 -0.67978886053E+03  0.67978886053E+03  0.00000000000E+00 0. -1.
         23    2    1    2    0    0  0.11546072721E+01  0.10493137678E+02 -0.66036792481E+03  0.66689009292E+03  0.92440039243E+02 0.  0.
         13    1    3    3    0    0  0.40371642631E+02  0.28507147320E+02 -0.38543760284E+03  0.38859319688E+03  0.00000000000E+00 0.  1.
        -13    1    3    3    0    0 -0.39217035359E+02 -0.18014009642E+02 -0.27493032197E+03  0.27829689604E+03  0.00000000000E+00 0. -1.
         22    1    1    2    0    0 -0.11546072721E+01 -0.10493137678E+02 -0.14435840535E+02  0.17883862788E+02  0.00000000000E+00 0. -1.
<mgrwt>
<rscale>  0 0.53998902E+02</rscale>
<asrwt>0</asrwt>
<pdfrwt beam="1">  1        2 0.10458289E+00 0.93040851E+02</pdfrwt>
<pdfrwt beam="2">  1       -2 0.76693778E-03 0.93040851E+02</pdfrwt>
<totfact> 0.11883189E+05</totfact>
</mgrwt>
</event>
<event>
 6    1  0.1535970E-002  0.1176717E+03  0.7546771E-02  0.1269074E+00
         -2   -1    0    0    0  501 -0.00000000000E+00  0.00000000000E+00  0.59910300297E+02  0.59910300297E+02  0.00000000000E+00 0.  1.
          2   -1    0    0  501    0  0.00000000000E+00 -0.00000000000E+00 -0.18114592418E+03  0.18114592418E+03  0.00000000000E+00 0. -1.
         23    2    1    2    0    0  0.59304563581E+02  0.47728573944E+02 -0.11522843682E+03  0.16469436012E+03  0.89730661262E+02 0.  0.
         13    1    3    3    0    0  0.43467412815E+02  0.69389384696E+02 -0.54659323687E+02  0.98447673164E+02  0.00000000000E+00 0.  1.
        -13    1    3    3    0    0  0.15837150766E+02 -0.21660810752E+02 -0.60569113130E+02  0.66246686952E+02  0.00000000000E+00 0. -1.
         22    1    1    2    0    0 -0.59304563581E+02 -0.47728573944E+02 -0.60071870654E+01  0.76361864361E+02  0.00000000000E+00 0.  1.
<mgrwt>
<rscale>  0 0.10553251E+03</rscale>
<asrwt>0</asrwt>
<pdfrwt beam="1">  1        2 0.27868604E-01 0.11767175E+03</pdfrwt>
<pdfrwt beam="2">  1       -2 0.92169693E-02 0.11767175E+03</pdfrwt>
<totfact> 0.13314521E+04</totfact>
</mgrwt>
</event>
<event>
 6    1  0.1535970E-002  0.9269968E+02  0.7546771E-02  0.1384223E+00
         -1   -1    0    0    0  501 -0.00000000000E+00  0.00000000000E+00  0.36888417908E+01  0.36888417908E+01  0.00000000000E+00 0.  1.
          1   -1    0    0  501    0  0.00000000000E+00 -0.00000000000E+00 -0.93079976556E+03  0.93079976556E+03  0.00000000000E+00 0. -1.
         23    2    1    2    0    0  0.19135898654E+02  0.65932480362E+01 -0.83780729875E+03  0.84292010306E+03  0.90463123770E+02 0.  0.
         11    1    3    3    0    0  0.52057858667E+02  0.53777379609E+01 -0.33794385468E+03  0.34197220594E+03  0.00000000000E+00 0. -1.
        -11    1    3    3    0    0 -0.32921960013E+02  0.12155100753E+01 -0.49986344407E+03  0.50094789712E+03  0.00000000000E+00 0.  1.
         22    1    1    2    0    0 -0.19135898654E+02 -0.65932480362E+01 -0.89303625015E+02  0.91568504290E+02  0.00000000000E+00 0.  1.
<mgrwt>
<rscale>  0 0.63366651E+02</rscale>
<asrwt>0</asrwt>
<pdfrwt beam="1">  1        1 0.14320009E+00 0.92699678E+02</pdfrwt>
<pdfrwt beam="2">  1       -1 0.56751360E-03 0.92699678E+02</pdfrwt>
<totfact> 0.68723822E+04</totfact>
</mgrwt>
</event>
<event>
 6    1  0.1535970E-002  0.9551387E+02  0.7546771E-02  0.1415609E+00
         -2   -1    0    0    0  501 -0.00000000000E+00  0.00000000000E+00  0.16203077763E+02  0.16203077763E+02  0.00000000000E+00 0.  1.
          2   -1    0    0  501    0  0.00000000000E+00 -0.00000000000E+00 -0.29199988958E+03  0.29199988958E+03  0.00000000000E+00 0. -1.
         23    2    1    2    0    0 -0.10424171435E+02  0.42432107946E+01 -0.28026518702E+03  0.29609369135E+03  0.94848462362E+02 0.  0.
         11    1    3    3    0    0  0.81535657154E+01  0.43309002476E+02 -0.20118493338E+03  0.20595515956E+03  0.00000000000E+00 0. -1.
        -11    1    3    3    0    0 -0.18577737151E+02 -0.39065791682E+02 -0.79080253639E+02  0.90138531789E+02  0.00000000000E+00 0.  1.
         22    1    1    2    0    0  0.10424171435E+02 -0.42432107946E+01  0.44683752092E+01  0.12109275989E+02  0.00000000000E+00 0.  1.
<mgrwt>
<rscale>  0 0.55960717E+02</rscale>
<asrwt>0</asrwt>
<pdfrwt beam="1">  1        2 0.44923059E-01 0.95513868E+02</pdfrwt>
<pdfrwt beam="2">  1       -2 0.24927812E-02 0.95513868E+02</pdfrwt>
<totfact> 0.55169068E+04</totfact>
</mgrwt>
</event>
<event>
 6    1  0.1535970E-002  0.9900243E+02  0.7546771E-02  0.1382167E+00
          2   -1    0    0  501    0  0.00000000000E+00  0.00000000000E+00  0.53692249282E+03  0.53692249282E+03  0.00000000000E+00 0. -1.
         -2   -1    0    0    0  501 -0.00000000000E+00 -0.00000000000E+00 -0.62889830229E+01  0.62889830229E+01  0.00000000000E+00 0.  1.
         23    2    1    2    0    0  0.25982939578E+01  0.16981441301E+02  0.45693163275E+03  0.46753395501E+03  0.97500572272E+02 0.  0.
         11    1    3    3    0    0  0.47787749061E+02  0.17927100482E+02  0.29631773371E+03  0.30068130837E+03  0.00000000000E+00 0. -1.
        -11    1    3    3    0    0 -0.45189455103E+02 -0.94565918118E+00  0.16061389905E+03  0.16685264664E+03  0.00000000000E+00 0.  1.
         22    1    1    2    0    0 -0.25982939578E+01 -0.16981441301E+02  0.73701877045E+02  0.75677520838E+02  0.00000000000E+00 0.  1.
<mgrwt>
<rscale>  0 0.63897567E+02</rscale>
<asrwt>0</asrwt>
<pdfrwt beam="1">  1        2 0.82603424E-01 0.99002435E+02</pdfrwt>
<pdfrwt beam="2">  1       -2 0.96753627E-03 0.99002435E+02</pdfrwt>
<totfact> 0.11254149E+05</totfact>
</mgrwt>
</event>
<event>
 6    1  0.1535970E-002  0.9392904E+02  0.7546771E-02  0.1382757E+00
          2   -1    0    0  501    0  0.00000000000E+00  0.00000000000E+00  0.12452063062E+02  0.12452063062E+02  0.00000000000E+00 0. -1.
         -2   -1    0    0    0  501 -0.00000000000E+00 -0.00000000000E+00 -0.26520627978E+03  0.26520627978E+03  0.00000000000E+00 0.  1.
         23    2    1    2    0    0  0.64229142574E+01 -0.18860093189E+02 -0.19246257822E+03  0.21416000731E+03  0.91791654156E+02 0.  0.
         13    1    3    3    0    0  0.29105613496E+02  0.17429445527E+02 -0.15031052580E+03  0.15409145490E+03  0.00000000000E+00 0.  1.
        -13    1    3    3    0    0 -0.22682699238E+02 -0.36289538716E+02 -0.42152052428E+02  0.60068552411E+02  0.00000000000E+00 0. -1.
         22    1    1    2    0    0 -0.64229142574E+01  0.18860093189E+02 -0.60291638495E+02  0.63498335530E+02  0.00000000000E+00 0.  1.
<mgrwt>
<rscale>  0 0.63744518E+02</rscale>
<asrwt>0</asrwt>
<pdfrwt beam="1">  1        2 0.19157022E-02 0.93929041E+02</pdfrwt>
<pdfrwt beam="2">  1       -2 0.40800963E-01 0.93929041E+02</pdfrwt>
<totfact> 0.29183032E+04</totfact>
</mgrwt>
</event>
<event>
 6    1  0.1535970E-002  0.9472556E+02  0.7546771E-02  0.1390766E+00
          2   -1    0    0  501    0  0.00000000000E+00  0.00000000000E+00  0.80439133152E+03  0.80439133152E+03  0.00000000000E+00 0.  1.
         -2   -1    0    0    0  501 -0.00000000000E+00 -0.00000000000E+00 -0.40641055530E+01  0.40641055530E+01  0.00000000000E+00 0. -1.
         23    2    1    2    0    0  0.70643126826E+01 -0.15538475336E+02  0.72824567278E+03  0.73438048153E+03  0.93175012714E+02 0.  0.
         11    1    3    3    0    0  0.15060632461E+02 -0.88439660610E+01  0.72202745305E+03  0.72223865954E+03  0.00000000000E+00 0.  1.
        -11    1    3    3    0    0 -0.79963197787E+01 -0.66945092747E+01  0.62182197351E+01  0.12141821985E+02  0.00000000000E+00 0. -1.
         22    1    1    2    0    0 -0.70643126826E+01  0.15538475336E+02  0.72081553187E+02  0.74074955547E+02  0.00000000000E+00 0. -1.
<mgrwt>
<rscale>  0 0.61716605E+02</rscale>
<asrwt>0</asrwt>
<pdfrwt beam="1">  1        2 0.12375239E+00 0.94725560E+02</pdfrwt>
<pdfrwt beam="2">  1       -2 0.62524765E-03 0.94725560E+02</pdfrwt>
<totfact> 0.13001693E+05</totfact>
</mgrwt>
</event>
<event>
 6    1  0.1535970E-002  0.9710453E+02  0.7546771E-02  0.1402380E+00
         -2   -1    0    0    0  501 -0.00000000000E+00  0.00000000000E+00  0.35136103830E+02  0.35136103830E+02  0.00000000000E+00 0. -1.
          2   -1    0    0  501    0  0.00000000000E+00 -0.00000000000E+00 -0.39769449090E+03  0.39769449090E+03  0.00000000000E+00 0.  1.
         23    2    1    2    0    0 -0.10619179516E+02  0.77911746804E+01 -0.39025891620E+03  0.40215831587E+03  0.96207172155E+02 0.  0.
         13    1    3    3    0    0 -0.30825413000E+02  0.11665427679E+02 -0.42456795911E+02  0.53748188886E+02  0.00000000000E+00 0. -1.
        -13    1    3    3    0    0  0.20206233483E+02 -0.38742529982E+01 -0.34780212029E+03  0.34841012699E+03  0.00000000000E+00 0.  1.
         22    1    1    2    0    0  0.10619179516E+02 -0.77911746804E+01  0.27700529128E+02  0.30672278860E+02  0.00000000000E+00 0. -1.
<mgrwt>
<rscale>  0 0.58929460E+02</rscale>
<asrwt>0</asrwt>
<pdfrwt beam="1">  1        2 0.61183765E-01 0.97104528E+02</pdfrwt>
<pdfrwt beam="2">  1       -2 0.54055547E-02 0.97104528E+02</pdfrwt>
<totfact> 0.12824794E+04</totfact>
</mgrwt>
</event>
<event>
 6    1  0.1535970E-002  0.9146055E+02  0.7546771E-02  0.1391323E+00
         -2   -1    0    0    0  501 -0.00000000000E+00  0.00000000000E+00  0.36414650487E+01  0.36414650487E+01  0.00000000000E+00 0.  1.
          2   -1    0    0  501    0  0.00000000000E+00 -0.00000000000E+00 -0.89149562704E+03  0.89149562704E+03  0.00000000000E+00 0. -1.
         23    2    1    2    0    0 -0.71089967927E+00  0.18780685903E+02 -0.80494985837E+03  0.81012919187E+03  0.89508734110E+02 0.  0.
         13    1    3    3    0    0  0.39039198733E+01  0.31593059169E+01 -0.78183771661E+03  0.78185384626E+03  0.00000000000E+00 0. -1.
        -13    1    3    3    0    0 -0.46148195526E+01  0.15621379986E+02 -0.23112141763E+02  0.28275345604E+02  0.00000000000E+00 0.  1.
         22    1    1    2    0    0  0.71089967927E+00 -0.18780685903E+02 -0.82904303618E+02  0.85007900220E+02  0.00000000000E+00 0. -1.
<mgrwt>
<rscale>  0 0.61578763E+02</rscale>
<asrwt>0</asrwt>
<pdfrwt beam="1">  1        2 0.13715321E+00 0.91460554E+02</pdfrwt>
<pdfrwt beam="2">  1       -2 0.56022524E-03 0.91460554E+02</pdfrwt>
<totfact> 0.13274218E+05</totfact>
</mgrwt>
</event>
<event>
 6    1  0.1535970E-002  0.9335976E+02  0.7546771E-02  0.1404425E+00
         -2   -1    0    0    0  501 -0.00000000000E+00  0.00000000000E+00  0.27196668610E+01  0.27196668610E+01  0.00000000000E+00 0.  1.
          2   -1    0    0  501    0  0.00000000000E+00 -0.00000000000E+00 -0.12006994137E+04  0.12006994137E+04  0.00000000000E+00 0. -1.
         23    2    1    2    0    0  0.14311740788E+02 -0.10495965041E+01 -0.11346254157E+04  0.11384598714E+04  0.92250297119E+02 0.  0.
         11    1    3    3    0    0 -0.12896748018E+02 -0.11099055984E+02 -0.10225650499E+04  0.10227066033E+04  0.00000000000E+00 0. -1.
        -11    1    3    3    0    0  0.27208488806E+02  0.10049459480E+02 -0.11206036578E+03  0.11575326811E+03  0.00000000000E+00 0.  1.
         22    1    1    2    0    0 -0.14311740788E+02  0.10495965041E+01 -0.63354331101E+02  0.64959209097E+02  0.00000000000E+00 0.  1.
<mgrwt>
<rscale>  0 0.58456675E+02</rscale>
<asrwt>0</asrwt>
<pdfrwt beam="1">  1        2 0.18472344E+00 0.93359761E+02</pdfrwt>
<pdfrwt beam="2">  1       -2 0.41840926E-03 0.93359761E+02</pdfrwt>
<totfact> 0.13284026E+05</totfact>
</mgrwt>
</event>
<event>
 6    1  0.1535970E-002  0.1051446E+03  0.7546771E-02  0.1304119E+00
          2   -1    0    0  501    0  0.00000000000E+00  0.00000000000E+00  0.14399888206E+04  0.14399888206E+04  0.00000000000E+00 0. -1.
         -2   -1    0    0    0  501 -0.00000000000E+00 -0.00000000000E+00 -0.10690006196E+02  0.10690006196E+02  0.00000000000E+00 0.  1.
         23    2    1    2    0    0 -0.54996001224E+02 -0.40727698774E+01  0.13500076995E+04  0.13540960721E+04  0.89522266176E+02 0.  0.
         13    1    3    3    0    0 -0.46674530654E+02 -0.37405540081E+02  0.52917482976E+03  0.53254453963E+03  0.00000000000E+00 0. -1.
        -13    1    3    3    0    0 -0.83214705701E+01  0.33332770203E+02  0.82083286973E+03  0.82155153246E+03  0.00000000000E+00 0.  1.
         22    1    1    2    0    0  0.54996001224E+02  0.40727698774E+01  0.79291114949E+02  0.96582754750E+02  0.00000000000E+00 0.  1.
<mgrwt>
<rscale>  0 0.89478742E+02</rscale>
<asrwt>0</asrwt>
<pdfrwt beam="1">  1        2 0.22153659E+00 0.10514458E+03</pdfrwt>
<pdfrwt beam="2">  1       -2 0.16446175E-02 0.10514458E+03</pdfrwt>
<totfact> 0.14458400E+04</totfact>
</mgrwt>
</event>
<event>
 6    1  0.1535970E-002  0.9533577E+02  0.7546771E-02  0.1402479E+00
          4   -1    0    0  501    0  0.00000000000E+00  0.00000000000E+00  0.11714628237E+03  0.11714628237E+03  0.00000000000E+00 0. -1.
         -4   -1    0    0    0  501 -0.00000000000E+00 -0.00000000000E+00 -0.62072228529E+02  0.62072228529E+02  0.00000000000E+00 0.  1.
         23    2    1    2    0    0  0.95209675451E+01  0.10121613103E+02  0.96423573915E+02  0.13559651317E+03  0.94317617143E+02 0.  0.
         11    1    3    3    0    0  0.37433787717E+01  0.65497492316E+01  0.11529412810E+03  0.11554067714E+03  0.00000000000E+00 0. -1.
        -11    1    3    3    0    0  0.57775887734E+01  0.35718638716E+01 -0.18870554188E+02  0.20055836031E+02  0.00000000000E+00 0.  1.
         22    1    1    2    0    0 -0.95209675451E+01 -0.10121613103E+02 -0.41349520076E+02  0.43621997723E+02  0.00000000000E+00 0. -1.
<mgrwt>
<rscale>  0 0.58906542E+02</rscale>
<asrwt>0</asrwt>
<pdfrwt beam="1">  1        4 0.18022505E-01 0.95335769E+02</pdfrwt>
<pdfrwt beam="2">  1       -4 0.95495737E-02 0.95335769E+02</pdfrwt>
<totfact> 0.33414490E+03</totfact>
</mgrwt>
</event>
<event>
 6    1  0.1535970E-002  0.9325551E+02  0.7546771E-02  0.1423192E+00
         -2   -1    0    0    0  501 -0.00000000000E+00  0.00000000000E+00  0.28850343691E+01  0.28850343691E+01  0.00000000000E+00 0.  1.
          2   -1    0    0  501    0  0.00000000000E+00 -0.00000000000E+00 -0.10165987135E+04  0.10165987135E+04  0.00000000000E+00 0. -1.
         23    2    1    2    0    0 -0.98829237702E+01 -0.42553207732E+01 -0.96970157966E+03  0.97417541710E+03  0.92632660296E+02 0.  0.
         13    1    3    3    0    0  0.38870091899E+02 -0.13192344423E+02 -0.32717478879E+03  0.32973969190E+03  0.00000000000E+00 0. -1.
        -13    1    3    3    0    0 -0.48753015670E+02  0.89370236501E+01 -0.64252679088E+03  0.64443572521E+03  0.00000000000E+00 0.  1.
         22    1    1    2    0    0  0.98829237702E+01  0.42553207732E+01 -0.44012099491E+02  0.45308330788E+02  0.00000000000E+00 0.  1.
<mgrwt>
<rscale>  0 0.54351312E+02</rscale>
<asrwt>0</asrwt>
<pdfrwt beam="1">  1        2 0.15640003E+00 0.93255508E+02</pdfrwt>
<pdfrwt beam="2">  1       -2 0.44385079E-03 0.93255508E+02</pdfrwt>
<totfact> 0.15514258E+05</totfact>
</mgrwt>
</event>
<event>
 6    1  0.1535970E-002  0.7987668E+02  0.7546771E-02  0.1452762E+00
         -2   -1    0    0    0  501 -0.00000000000E+00  0.00000000000E+00  0.30473822608E+02  0.30473822608E+02  0.00000000000E+00 0.  1.
          2   -1    0    0  501    0  0.00000000000E+00 -0.00000000000E+00 -0.80110590232E+02  0.80110590232E+02  0.00000000000E+00 0. -1.
         23    2    1    2    0    0  0.10292150567E+02  0.38591781084E+01 -0.56306066735E+02  0.97727462595E+02  0.79116762921E+02 0.  0.
         13    1    3    3    0    0  0.76425396975E+01  0.57081602784E+01  0.19576131037E+02  0.21776510583E+02  0.00000000000E+00 0.  1.
        -13    1    3    3    0    0  0.26496108699E+01 -0.18489821700E+01 -0.75882197772E+02  0.75950952012E+02  0.00000000000E+00 0. -1.
         22    1    1    2    0    0 -0.10292150567E+02 -0.38591781084E+01  0.66692991114E+01  0.12856950245E+02  0.00000000000E+00 0. -1.
<mgrwt>
<rscale>  0 0.48650026E+02</rscale>
<asrwt>0</asrwt>
<pdfrwt beam="1">  1        2 0.12324706E-01 0.79876679E+02</pdfrwt>
<pdfrwt beam="2">  1       -2 0.46882804E-02 0.79876679E+02</pdfrwt>
<totfact> 0.88730392E+04</totfact>
</mgrwt>
</event>
<event>
 6    1  0.1535970E-002  0.9196523E+02  0.7546771E-02  0.1392532E+00
         -4   -1    0    0    0  501 -0.00000000000E+00  0.00000000000E+00  0.11887835466E+02  0.11887835466E+02  0.00000000000E+00 0.  1.
          4   -1    0    0  501    0  0.00000000000E+00 -0.00000000000E+00 -0.25925833879E+03  0.25925833879E+03  0.00000000000E+00 0. -1.
         23    2    1    2    0    0  0.89293209653E+01 -0.15780660196E+02 -0.21835227494E+03  0.23692893316E+03  0.90160087577E+02 0.  0.
         11    1    3    3    0    0  0.12750554204E+02  0.20962022577E+02 -0.18663259265E+03  0.18823843301E+03  0.00000000000E+00 0. -1.
        -11    1    3    3    0    0 -0.38212332386E+01 -0.36742682773E+02 -0.31719682281E+02  0.48690500149E+02  0.00000000000E+00 0.  1.
         22    1    1    2    0    0 -0.89293209653E+01  0.15780660196E+02 -0.29018228389E+02  0.34217241092E+02  0.00000000000E+00 0. -1.
<mgrwt>
<rscale>  0 0.61281297E+02</rscale>
<asrwt>0</asrwt>
<pdfrwt beam="1">  1        4 0.39885900E-01 0.91965229E+02</pdfrwt>
<pdfrwt beam="2">  1       -4 0.18288977E-02 0.91965229E+02</pdfrwt>
<totfact> 0.10424598E+04</totfact>
</mgrwt>
</event>
<event>
 6    1  0.1535970E-002  0.9485384E+02  0.7546771E-02  0.1395669E+00
          2   -1    0    0  501    0  0.00000000000E+00  0.00000000000E+00  0.26987795665E+04  0.26987795665E+04  0.00000000000E+00 0. -1.
         -2   -1    0    0    0  501 -0.00000000000E+00 -0.00000000000E+00 -0.23419010816E+01  0.23419010816E+01  0.00000000000E+00 0.  1.
         23    2    1    2    0    0  0.12446764562E+02 -0.95978006686E+01  0.26566358024E+04  0.26583286174E+04  0.93542567175E+02 0.  0.
         11    1    3    3    0    0 -0.22337383894E+02 -0.38663602878E+02  0.89882762982E+03  0.89993607608E+03  0.00000000000E+00 0.  1.
        -11    1    3    3    0    0  0.34784148457E+02  0.29065802210E+02  0.17578081725E+04  0.17583925413E+04  0.00000000000E+00 0. -1.
         22    1    1    2    0    0 -0.12446764562E+02  0.95978006686E+01  0.39801863103E+02  0.42792850246E+02  0.00000000000E+00 0.  1.
<mgrwt>
<rscale>  0 0.60518346E+02</rscale>
<asrwt>0</asrwt>
<pdfrwt beam="1">  1        2 0.41519437E+00 0.94853843E+02</pdfrwt>
<pdfrwt beam="2">  1       -2 0.36029463E-03 0.94853843E+02</pdfrwt>
<totfact> 0.27738436E+04</totfact>
</mgrwt>
</event>
<event>
 6    1  0.1535970E-002  0.1149696E+03  0.7546771E-02  0.1273165E+00
          2   -1    0    0  501    0  0.00000000000E+00  0.00000000000E+00  0.23778256538E+03  0.23778256538E+03  0.00000000000E+00 0. -1.
         -2   -1    0    0    0  501 -0.00000000000E+00 -0.00000000000E+00 -0.55173624727E+02  0.55173624727E+02  0.00000000000E+00 0.  1.
         23    2    1    2    0    0 -0.75303344162E+01 -0.75044857047E+02  0.18463846121E+03  0.21750716454E+03  0.86773087786E+02 0.  0.
         11    1    3    3    0    0  0.37797526545E+00 -0.81859330878E+02  0.18917343872E+03  0.20612540560E+03  0.00000000000E+00 0. -1.
        -11    1    3    3    0    0 -0.79083096817E+01  0.68144738303E+01 -0.45349775101E+01  0.11381758942E+02  0.00000000000E+00 0.  1.
         22    1    1    2    0    0  0.75303344162E+01  0.75044857047E+02 -0.20295205502E+01  0.75449025569E+02  0.00000000000E+00 0.  1.
<mgrwt>
<rscale>  0 0.10346926E+03</rscale>
<asrwt>0</asrwt>
<pdfrwt beam="1">  1        2 0.36581933E-01 0.11496958E+03</pdfrwt>
<pdfrwt beam="2">  1       -2 0.84882501E-02 0.11496958E+03</pdfrwt>
<totfact> 0.11274980E+04</totfact>
</mgrwt>
</event>
<event>
 6    1  0.1535970E-002  0.9345826E+02  0.7546771E-02  0.1387368E+00
         -2   -1    0    0    0  501 -0.00000000000E+00  0.00000000000E+00  0.16654783828E+01  0.16654783828E+01  0.00000000000E+00 0.  1.
          2   -1    0    0  501    0  0.00000000000E+00 -0.00000000000E+00 -0.26713780904E+04  0.26713780904E+04  0.00000000000E+00 0. -1.
         23    2    1    2    0    0 -0.64590024598E+01 -0.17625518639E+02 -0.25622400899E+04  0.25639439783E+04  0.91553635998E+02 0.  0.
         13    1    3    3    0    0 -0.48308931229E+02 -0.44740532389E+01 -0.15377301825E+04  0.15384953312E+04  0.00000000000E+00 0. -1.
        -13    1    3    3    0    0  0.41849928769E+02 -0.13151465400E+02 -0.10245099074E+04  0.10254486472E+04  0.00000000000E+00 0.  1.
         22    1    1    2    0    0  0.64590024598E+01  0.17625518639E+02 -0.10747252217E+03  0.10909959048E+03  0.00000000000E+00 0.  1.
<mgrwt>
<rscale>  0 0.62566131E+02</rscale>
<asrwt>0</asrwt>
<pdfrwt beam="1">  1        2 0.41098092E+00 0.93458257E+02</pdfrwt>
<pdfrwt beam="2">  1       -2 0.25622765E-03 0.93458257E+02</pdfrwt>
<totfact> 0.46113236E+04</totfact>
</mgrwt>
</event>
<event>
 6    1  0.1535970E-002  0.9367502E+02  0.7546771E-02  0.1404181E+00
          2   -1    0    0  501    0  0.00000000000E+00  0.00000000000E+00  0.11830581849E+04  0.11830581849E+04  0.00000000000E+00 0. -1.
         -2   -1    0    0    0  501 -0.00000000000E+00 -0.00000000000E+00 -0.26048056289E+01  0.26048056289E+01  0.00000000000E+00 0.  1.
         23    2    1    2    0    0  0.99953197069E+01 -0.10171102819E+02  0.10977142208E+04  0.11017039166E+04  0.92583214362E+02 0.  0.
         13    1    3    3    0    0  0.56924972484E+01  0.33805383278E+02  0.79942703711E+03  0.80016173123E+03  0.00000000000E+00 0. -1.
        -13    1    3    3    0    0  0.43028224585E+01 -0.43976486097E+02  0.29828718370E+03  0.30154218539E+03  0.00000000000E+00 0.  1.
         22    1    1    2    0    0 -0.99953197069E+01  0.10171102819E+02  0.82739158480E+02  0.83959073926E+02  0.00000000000E+00 0. -1.
<mgrwt>
<rscale>  0 0.58512740E+02</rscale>
<asrwt>0</asrwt>
<pdfrwt beam="1">  1        2 0.18200852E+00 0.93675020E+02</pdfrwt>
<pdfrwt beam="2">  1       -2 0.40074027E-03 0.93675020E+02</pdfrwt>
<totfact> 0.14432889E+05</totfact>
</mgrwt>
</event>
<event>
 6    1  0.1535970E-002  0.9506270E+02  0.7546771E-02  0.1383742E+00
         -2   -1    0    0    0  501 -0.00000000000E+00  0.00000000000E+00  0.10083078681E+02  0.10083078681E+02  0.00000000000E+00 0.  1.
          2   -1    0    0  501    0  0.00000000000E+00 -0.00000000000E+00 -0.76708521711E+03  0.76708521711E+03  0.00000000000E+00 0. -1.
         23    2    1    2    0    0 -0.71014396248E+01 -0.17531019933E+02 -0.75147307354E+03  0.75746201093E+03  0.93161959208E+02 0.  0.
         13    1    3    3    0    0 -0.16107018847E+02 -0.53505448041E+02 -0.52599440204E+03  0.52895404337E+03  0.00000000000E+00 0. -1.
        -13    1    3    3    0    0  0.90055792221E+01  0.35974428108E+02 -0.22547867150E+03  0.22850796755E+03  0.00000000000E+00 0.  1.
         22    1    1    2    0    0  0.71014396248E+01  0.17531019933E+02 -0.55290648960E+01  0.19706284867E+02  0.00000000000E+00 0.  1.
<mgrwt>
<rscale>  0 0.63490343E+02</rscale>
<asrwt>0</asrwt>
<pdfrwt beam="1">  1        2 0.11801314E+00 0.95062704E+02</pdfrwt>
<pdfrwt beam="2">  1       -2 0.15512425E-02 0.95062704E+02</pdfrwt>
<totfact> 0.38017036E+04</totfact>
</mgrwt>
</event>
<event>
 6    1  0.1535970E-002  0.9266977E+02  0.7546771E-02  0.1392852E+00
         -2   -1    0    0    0  501 -0.00000000000E+00  0.00000000000E+00  0.46656074078E+02  0.46656074078E+02  0.00000000000E+00 0.  1.
          2   -1    0    0  501    0  0.00000000000E+00 -0.00000000000E+00 -0.18730806126E+03  0.18730806126E+03  0.00000000000E+00 0. -1.
         23    2    1    2    0    0 -0.17138733524E+02 -0.41363517644E+01 -0.17349207977E+03  0.19669058877E+03  0.90977142054E+02 0.  0.
         13    1    3    3    0    0 -0.16382790503E+02  0.11843923553E+02 -0.17872015757E+03  0.17985985954E+03  0.00000000000E+00 0. -1.
        -13    1    3    3    0    0 -0.75594302139E+00 -0.15980275317E+02  0.52280778038E+01  0.16830729235E+02  0.00000000000E+00 0.  1.
         22    1    1    2    0    0  0.17138733524E+02  0.41363517644E+01  0.32840092585E+02  0.37273546568E+02  0.00000000000E+00 0.  1.
<mgrwt>
<rscale>  0 0.61202850E+02</rscale>
<asrwt>0</asrwt>
<pdfrwt beam="1">  1        2 0.28816625E-01 0.92669768E+02</pdfrwt>
<pdfrwt beam="2">  1       -2 0.71778574E-02 0.92669768E+02</pdfrwt>
<totfact> 0.18422828E+04</totfact>
</mgrwt>
</event>
<event>
 6    1  0.1535970E-002  0.1141766E+03  0.7546771E-02  0.1381078E+00
          3   -1    0    0  501    0  0.00000000000E+00  0.00000000000E+00  0.28930349148E+03  0.28930349148E+03  0.00000000000E+00 0. -1.
         -3   -1    0    0    0  501 -0.00000000000E+00 -0.00000000000E+00 -0.16207387046E+02  0.16207387046E+02  0.00000000000E+00 0.  1.
         23    2    1    2    0    0 -0.43123108318E+01 -0.10552852246E+02  0.27079458740E+03  0.29388093029E+03  0.11360604697E+03 0.  0.
         11    1    3    3    0    0 -0.64671028156E+01 -0.12477922907E+02  0.28197914089E+03  0.28232916582E+03  0.00000000000E+00 0. -1.
        -11    1    3    3    0    0  0.21547919838E+01  0.19250706610E+01 -0.11184553489E+02  0.11551764467E+02  0.00000000000E+00 0.  1.
         22    1    1    2    0    0  0.43123108318E+01  0.10552852246E+02  0.23015170334E+01  0.11629948233E+02  0.00000000000E+00 0. -1.
<mgrwt>
<rscale>  0 0.64181293E+02</rscale>
<asrwt>0</asrwt>
<pdfrwt beam="1">  1        3 0.44508226E-01 0.11417659E+03</pdfrwt>
<pdfrwt beam="2">  1       -3 0.24934444E-02 0.11417659E+03</pdfrwt>
<totfact> 0.74912748E+03</totfact>
</mgrwt>
</event>
<event>
 6    1  0.1535970E-002  0.9032123E+02  0.7546771E-02  0.1426856E+00
          1   -1    0    0  501    0  0.00000000000E+00  0.00000000000E+00  0.59291625158E+02  0.59291625158E+02  0.00000000000E+00 0. -1.
         -1   -1    0    0    0  501 -0.00000000000E+00 -0.00000000000E+00 -0.69296556543E+02  0.69296556543E+02  0.00000000000E+00 0.  1.
         23    2    1    2    0    0 -0.10600772782E+02  0.36106912948E+01  0.23444085327E+02  0.93314250898E+02  0.89624275778E+02 0.  0.
         13    1    3    3    0    0  0.28986954253E+02 -0.22451620880E+02 -0.65203204270E+01  0.37240211808E+02  0.00000000000E+00 0.  1.
        -13    1    3    3    0    0 -0.39587727035E+02  0.26062312175E+02  0.29964405754E+02  0.56074039090E+02  0.00000000000E+00 0. -1.
         22    1    1    2    0    0  0.10600772782E+02 -0.36106912948E+01 -0.33449016713E+02  0.35273930803E+02  0.00000000000E+00 0. -1.
<mgrwt>
<rscale>  0 0.53596373E+02</rscale>
<asrwt>0</asrwt>
<pdfrwt beam="1">  1        1 0.91217885E-02 0.90321228E+02</pdfrwt>
<pdfrwt beam="2">  1       -1 0.10661009E-01 0.90321228E+02</pdfrwt>
<totfact> 0.34810060E+04</totfact>
</mgrwt>
</event>
<event>
 6    1  0.1535970E-002  0.1087996E+03  0.7546771E-02  0.1291357E+00
         -2   -1    0    0    0  501 -0.00000000000E+00  0.00000000000E+00  0.24631299345E+03  0.24631299345E+03  0.00000000000E+00 0.  1.
          2   -1    0    0  501    0  0.00000000000E+00 -0.00000000000E+00 -0.36044883563E+02  0.36044883563E+02  0.00000000000E+00 0. -1.
         23    2    1    2    0    0  0.61241727052E+01 -0.62730821482E+02  0.18465348941E+03  0.21432281078E+03  0.88683113466E+02 0.  0.
         11    1    3    3    0    0 -0.40533034166E+02 -0.38953456233E+02  0.10234015663E+03  0.11676389112E+03  0.00000000000E+00 0. -1.
        -11    1    3    3    0    0  0.46657206871E+02 -0.23777365249E+02  0.82313332782E+02  0.97558919658E+02  0.00000000000E+00 0.  1.
         22    1    1    2    0    0 -0.61241727052E+01  0.62730821482E+02  0.25614620477E+02  0.68035066233E+02  0.00000000000E+00 0. -1.
<mgrwt>
<rscale>  0 0.94919559E+02</rscale>
<asrwt>0</asrwt>
<pdfrwt beam="1">  1        2 0.55453669E-02 0.10879961E+03</pdfrwt>
<pdfrwt beam="2">  1       -2 0.37894306E-01 0.10879961E+03</pdfrwt>
<totfact> 0.83439806E+03</totfact>
</mgrwt>
</event>
<event>
 6    1  0.1535970E-002  0.9270441E+02  0.7546771E-02  0.1401247E+00
         -2   -1    0    0    0  501 -0.00000000000E+00  0.00000000000E+00  0.50455047584E+02  0.50455047584E+02  0.00000000000E+00 0.  1.
          2   -1    0    0  501    0  0.00000000000E+00 -0.00000000000E+00 -0.25850841040E+03  0.25850841040E+03  0.00000000000E+00 0. -1.
         23    2    1    2    0    0  0.11331963235E+02 -0.10442833181E+02 -0.24874138539E+03  0.26545505262E+03  0.91414670603E+02 0.  0.
         11    1    3    3    0    0  0.15095179689E+02 -0.10556480378E+01  0.13197495419E+01  0.15189489178E+02  0.00000000000E+00 0.  1.
        -11    1    3    3    0    0 -0.37632164538E+01 -0.93871851433E+01 -0.25006113493E+03  0.25026556345E+03  0.00000000000E+00 0. -1.
         22    1    1    2    0    0 -0.11331963235E+02  0.10442833181E+02  0.40688022577E+02  0.43508405358E+02  0.00000000000E+00 0.  1.
<mgrwt>
<rscale>  0 0.59193705E+02</rscale>
<asrwt>0</asrwt>
<pdfrwt beam="1">  1        2 0.39770524E-01 0.92704413E+02</pdfrwt>
<pdfrwt beam="2">  1       -2 0.77623152E-02 0.92704413E+02</pdfrwt>
<totfact> 0.11620188E+04</totfact>
</mgrwt>
</event>
<event>
 6    1  0.1535970E-002  0.9600040E+02  0.7546771E-02  0.1336145E+00
         -2   -1    0    0    0  501 -0.00000000000E+00  0.00000000000E+00  0.67391096563E+01  0.67391096563E+01  0.00000000000E+00 0.  1.
          2   -1    0    0  501    0  0.00000000000E+00 -0.00000000000E+00 -0.78282986869E+03  0.78282986869E+03  0.00000000000E+00 0. -1.
         23    2    1    2    0    0 -0.40718300524E+02 -0.36820117346E+01 -0.64905725992E+03  0.65611843655E+03  0.86859305322E+02 0.  0.
         11    1    3    3    0    0 -0.31126904048E+02  0.35510113234E+02 -0.21163366139E+03  0.21683786323E+03  0.00000000000E+00 0.  1.
        -11    1    3    3    0    0 -0.95913964764E+01 -0.39192124969E+02 -0.43742359853E+03  0.43928057332E+03  0.00000000000E+00 0. -1.
         22    1    1    2    0    0  0.40718300524E+02  0.36820117346E+01 -0.12703349911E+03  0.13345054179E+03  0.00000000000E+00 0.  1.
<mgrwt>
<rscale>  0 0.77552227E+02</rscale>
<asrwt>0</asrwt>
<pdfrwt beam="1">  1        2 0.12043536E+00 0.96000397E+02</pdfrwt>
<pdfrwt beam="2">  1       -2 0.10367862E-02 0.96000397E+02</pdfrwt>
<totfact> 0.65905557E+04</totfact>
</mgrwt>
</event>
<event>
 6    1  0.1535970E-002  0.9382224E+02  0.7546771E-02  0.1388261E+00
         -2   -1    0    0    0  501 -0.00000000000E+00  0.00000000000E+00  0.13536116231E+02  0.13536116231E+02  0.00000000000E+00 0.  1.
          2   -1    0    0  501    0  0.00000000000E+00 -0.00000000000E+00 -0.35647827154E+03  0.35647827154E+03  0.00000000000E+00 0. -1.
         23    2    1    2    0    0  0.12804319244E+02 -0.13058875061E+02 -0.33840611004E+03  0.35117133823E+03  0.92022435704E+02 0.  0.
         13    1    3    3    0    0  0.52689470715E+02 -0.90932147730E+01 -0.20650009386E+03  0.21330999893E+03  0.00000000000E+00 0. -1.
        -13    1    3    3    0    0 -0.39885151471E+02 -0.39656602880E+01 -0.13190601619E+03  0.13786133931E+03  0.00000000000E+00 0.  1.
         22    1    1    2    0    0 -0.12804319244E+02  0.13058875061E+02 -0.45360452630E+01  0.18843049535E+02  0.00000000000E+00 0.  1.
<mgrwt>
<rscale>  0 0.62341380E+02</rscale>
<asrwt>0</asrwt>
<pdfrwt beam="1">  1        2 0.54842819E-01 0.93822244E+02</pdfrwt>
<pdfrwt beam="2">  1       -2 0.20824791E-02 0.93822244E+02</pdfrwt>
<totfact> 0.57898580E+04</totfact>
</mgrwt>
</event>
<event>
 6    1  0.1535970E-002  0.9355389E+02  0.7546771E-02  0.1393237E+00
          2   -1    0    0  501    0  0.00000000000E+00  0.00000000000E+00  0.20357834846E+03  0.20357834846E+03  0.00000000000E+00 0. -1.
         -2   -1    0    0    0  501 -0.00000000000E+00 -0.00000000000E+00 -0.15037707878E+02  0.15037707878E+02  0.00000000000E+00 0.  1.
         23    2    1    2    0    0  0.15790422569E+02  0.63795459181E+01  0.16231602661E+03  0.18734679941E+03  0.91990731614E+02 0.  0.
         11    1    3    3    0    0  0.45957536334E+02 -0.97846269182E+01  0.13683600297E+03  0.14467869843E+03  0.00000000000E+00 0. -1.
        -11    1    3    3    0    0 -0.30167113765E+02  0.16164172836E+02  0.25480023634E+02  0.42668100975E+02  0.00000000000E+00 0.  1.
         22    1    1    2    0    0 -0.15790422569E+02 -0.63795459181E+01  0.26224613973E+02  0.31269256932E+02  0.00000000000E+00 0.  1.
<mgrwt>
<rscale>  0 0.61108679E+02</rscale>
<asrwt>0</asrwt>
<pdfrwt beam="1">  1        2 0.31319744E-01 0.93553892E+02</pdfrwt>
<pdfrwt beam="2">  1       -2 0.23134937E-02 0.93553892E+02</pdfrwt>
<totfact> 0.89643941E+04</totfact>
</mgrwt>
</event>
<event>
 6    1  0.1535970E-002  0.9336012E+02  0.7546771E-02  0.1424328E+00
          4   -1    0    0  501    0  0.00000000000E+00  0.00000000000E+00  0.43434146003E+01  0.43434146003E+01  0.00000000000E+00 0. -1.
         -4   -1    0    0    0  501 -0.00000000000E+00 -0.00000000000E+00 -0.66490804294E+03  0.66490804294E+03  0.00000000000E+00 0.  1.
         23    2    1    2    0    0  0.34898372169E+01  0.99446817856E+01 -0.63089970454E+03  0.63776998103E+03  0.92763332447E+02 0.  0.
         11    1    3    3    0    0 -0.19806492461E+02 -0.36062730329E+02 -0.24322858450E+03  0.24668393134E+03  0.00000000000E+00 0. -1.
        -11    1    3    3    0    0  0.23296329678E+02  0.46007412115E+02 -0.38767112004E+03  0.39108604969E+03  0.00000000000E+00 0.  1.
         22    1    1    2    0    0 -0.34898372169E+01 -0.99446817856E+01 -0.29664923797E+02  0.31481476514E+02  0.00000000000E+00 0.  1.
<mgrwt>
<rscale>  0 0.54115715E+02</rscale>
<asrwt>0</asrwt>
<pdfrwt beam="1">  1        4 0.66821757E-03 0.93360117E+02</pdfrwt>
<pdfrwt beam="2">  1       -4 0.10229355E+00 0.93360117E+02</pdfrwt>
<totfact> 0.64848309E+03</totfact>
</mgrwt>
</event>
<event>
 6    1  0.1535970E-002  0.9089885E+02  0.7546771E-02  0.1398871E+00
         -1   -1    0    0    0  501 -0.00000000000E+00  0.00000000000E+00  0.32440675250E+02  0.32440675250E+02  0.00000000000E+00 0.  1.
          1   -1    0    0  501    0  0.00000000000E+00 -0.00000000000E+00 -0.94750137380E+02  0.94750137380E+02  0.00000000000E+00 0. -1.
         23    2    1    2    0    0  0.11753186577E+02  0.12245674236E+02 -0.62332081953E+02  0.11021746753E+03  0.89300099530E+02 0.  0.
         11    1    3    3    0    0  0.13427945612E+02  0.22360151829E+02 -0.83078282074E+02  0.87076328962E+02  0.00000000000E+00 0. -1.
        -11    1    3    3    0    0 -0.16747590355E+01 -0.10114477593E+02  0.20746200121E+02  0.23141138569E+02  0.00000000000E+00 0.  1.
         22    1    1    2    0    0 -0.11753186577E+02 -0.12245674236E+02  0.22619822915E-01  0.16973345099E+02  0.00000000000E+00 0.  1.
<mgrwt>
<rscale>  0 0.59753118E+02</rscale>
<asrwt>0</asrwt>
<pdfrwt beam="1">  1        1 0.14576944E-01 0.90898854E+02</pdfrwt>
<pdfrwt beam="2">  1       -1 0.49908732E-02 0.90898854E+02</pdfrwt>
<totfact> 0.58581794E+04</totfact>
</mgrwt>
</event>
<event>
 6    1  0.1535970E-002  0.7864831E+02  0.7546771E-02  0.1455772E+00
          2   -1    0    0  501    0  0.00000000000E+00  0.00000000000E+00  0.31209824685E+03  0.31209824685E+03  0.00000000000E+00 0. -1.
         -2   -1    0    0    0  501 -0.00000000000E+00 -0.00000000000E+00 -0.65369773506E+01  0.65369773506E+01  0.00000000000E+00 0.  1.
         23    2    1    2    0    0 -0.85108061731E+01  0.69979925699E+01  0.27915021944E+03  0.29001793420E+03  0.77872661587E+02 0.  0.
         11    1    3    3    0    0  0.61306411503E+01 -0.15146410106E+02  0.91732699748E+01  0.18738926918E+02  0.00000000000E+00 0.  1.
        -11    1    3    3    0    0 -0.14641447323E+02  0.22144402675E+02  0.26997694947E+03  0.27127900729E+03  0.00000000000E+00 0. -1.
         22    1    1    2    0    0  0.85108061731E+01 -0.69979925699E+01  0.26411050057E+02  0.28617289998E+02  0.00000000000E+00 0.  1.
<mgrwt>
<rscale>  0 0.48116824E+02</rscale>
<asrwt>0</asrwt>
<pdfrwt beam="1">  1        2 0.48015103E-01 0.78648313E+02</pdfrwt>
<pdfrwt beam="2">  1       -2 0.10056891E-02 0.78648313E+02</pdfrwt>
<totfact> 0.18249998E+05</totfact>
</mgrwt>
</event>
<event>
 6    1  0.1535970E-002  0.9120854E+02  0.7546771E-02  0.1430265E+00
         -2   -1    0    0    0  501 -0.00000000000E+00  0.00000000000E+00  0.52728813399E+01  0.52728813399E+01  0.00000000000E+00 0.  1.
          2   -1    0    0  501    0  0.00000000000E+00 -0.00000000000E+00 -0.59994231266E+03  0.59994231266E+03  0.00000000000E+00 0. -1.
         23    2    1    2    0    0  0.38644785243E+01 -0.95758436255E+01 -0.58083090728E+03  0.58794858683E+03  0.90622110629E+02 0.  0.
         13    1    3    3    0    0  0.51787830884E+01  0.35155812507E+01 -0.57215308916E+03  0.57218732645E+03  0.00000000000E+00 0. -1.
        -13    1    3    3    0    0 -0.13143045641E+01 -0.13091424876E+02 -0.86778181136E+01  0.15761260387E+02  0.00000000000E+00 0.  1.
         22    1    1    2    0    0 -0.38644785243E+01  0.95758436255E+01 -0.13838524047E+02  0.17266607171E+02  0.00000000000E+00 0. -1.
<mgrwt>
<rscale>  0 0.52906868E+02</rscale>
<asrwt>0</asrwt>
<pdfrwt beam="1">  1        2 0.92298849E-01 0.91208541E+02</pdfrwt>
<pdfrwt beam="2">  1       -2 0.81121223E-03 0.91208541E+02</pdfrwt>
<totfact> 0.12619375E+05</totfact>
</mgrwt>
</event>
<event>
 6    1  0.1535970E-002  0.9187771E+02  0.7546771E-02  0.1421793E+00
         -2   -1    0    0    0  501 -0.00000000000E+00  0.00000000000E+00  0.12427074796E+02  0.12427074796E+02  0.00000000000E+00 0.  1.
          2   -1    0    0  501    0  0.00000000000E+00 -0.00000000000E+00 -0.15328137500E+04  0.15328137500E+04  0.00000000000E+00 0. -1.
         23    2    1    2    0    0 -0.26792041964E-01  0.11495275733E+02 -0.15284439647E+04  0.15312029476E+04  0.91155754867E+02 0.  0.
         11    1    3    3    0    0  0.17176011428E+02  0.48227118801E+02 -0.81327486934E+03  0.81488458291E+03  0.00000000000E+00 0.  1.
        -11    1    3    3    0    0 -0.17202803470E+02 -0.36731843068E+02 -0.71516909531E+03  0.71631836472E+03  0.00000000000E+00 0. -1.
         22    1    1    2    0    0  0.26792041964E-01 -0.11495275733E+02  0.80572894551E+01  0.14037877167E+02  0.00000000000E+00 0.  1.
<mgrwt>
<rscale>  0 0.54643407E+02</rscale>
<asrwt>0</asrwt>
<pdfrwt beam="1">  1        2 0.23581741E+00 0.91877711E+02</pdfrwt>
<pdfrwt beam="2">  1       -2 0.19118584E-02 0.91877711E+02</pdfrwt>
<totfact> 0.10358300E+04</totfact>
</mgrwt>
</event>
<event>
 6    1  0.1535970E-002  0.9896876E+02  0.7546771E-02  0.1392748E+00
          4   -1    0    0  501    0  0.00000000000E+00  0.00000000000E+00  0.69772458428E+03  0.69772458428E+03  0.00000000000E+00 0. -1.
         -4   -1    0    0    0  501 -0.00000000000E+00 -0.00000000000E+00 -0.49997712959E+01  0.49997712959E+01  0.00000000000E+00 0.  1.
         23    2    1    2    0    0  0.13041921102E+02  0.63331418388E+01  0.65257395504E+03  0.66003604588E+03  0.97901045264E+02 0.  0.
         11    1    3    3    0    0  0.28540607510E+02 -0.16145342060E+02  0.59908199651E+03  0.59997873037E+03  0.00000000000E+00 0. -1.
        -11    1    3    3    0    0 -0.15498686407E+02  0.22478483899E+02  0.53491958531E+02  0.60057315509E+02  0.00000000000E+00 0.  1.
         22    1    1    2    0    0 -0.13041921102E+02 -0.63331418388E+01  0.40150857937E+02  0.42688309696E+02  0.00000000000E+00 0.  1.
<mgrwt>
<rscale>  0 0.61228382E+02</rscale>
<asrwt>0</asrwt>
<pdfrwt beam="1">  1        4 0.10734217E+00 0.98968758E+02</pdfrwt>
<pdfrwt beam="2">  1       -4 0.76919614E-03 0.98968758E+02</pdfrwt>
<totfact> 0.47842608E+03</totfact>
</mgrwt>
</event>
<event>
 6    1  0.1535970E-002  0.9448825E+02  0.7546771E-02  0.1374583E+00
          2   -1    0    0  501    0  0.00000000000E+00  0.00000000000E+00  0.16898207050E+04  0.16898207050E+04  0.00000000000E+00 0. -1.
         -2   -1    0    0    0  501 -0.00000000000E+00 -0.00000000000E+00 -0.27094654811E+01  0.27094654811E+01  0.00000000000E+00 0.  1.
         23    2    1    2    0    0  0.19408152742E+02  0.11123088340E+02  0.15928852651E+04  0.15956852752E+04  0.91802125371E+02 0.  0.
         11    1    3    3    0    0  0.14905837077E+02  0.40647464078E+01  0.15813846132E+04  0.15814600852E+04  0.00000000000E+00 0. -1.
        -11    1    3    3    0    0  0.45023156648E+01  0.70583419319E+01  0.11500651933E+02  0.14225190053E+02  0.00000000000E+00 0.  1.
         22    1    1    2    0    0 -0.19408152742E+02 -0.11123088340E+02  0.94225974372E+02  0.96844895237E+02  0.00000000000E+00 0.  1.
<mgrwt>
<rscale>  0 0.65909492E+02</rscale>
<asrwt>0</asrwt>
<pdfrwt beam="1">  1        2 0.25997157E+00 0.94488252E+02</pdfrwt>
<pdfrwt beam="2">  1       -2 0.41684219E-03 0.94488252E+02</pdfrwt>
<totfact> 0.74594219E+04</totfact>
</mgrwt>
</event>
<event>
 6    1  0.1535970E-002  0.9229687E+02  0.7546771E-02  0.1423715E+00
         -2   -1    0    0    0  501 -0.00000000000E+00  0.00000000000E+00  0.37000728209E+02  0.37000728209E+02  0.00000000000E+00 0.  1.
          2   -1    0    0  501    0  0.00000000000E+00 -0.00000000000E+00 -0.88708169381E+02  0.88708169381E+02  0.00000000000E+00 0. -1.
         23    2    1    2    0    0 -0.98754970994E+01 -0.48684651060E+01 -0.61552569594E+02  0.11093886208E+03  0.91637791874E+02 0.  0.
         11    1    3    3    0    0 -0.15221389423E+02 -0.17784488109E+02  0.18399190592E+02  0.29774299785E+02  0.00000000000E+00 0.  1.
        -11    1    3    3    0    0  0.53458923239E+01  0.12916023003E+02 -0.79951760186E+02  0.81164562290E+02  0.00000000000E+00 0. -1.
         22    1    1    2    0    0  0.98754970994E+01  0.48684651060E+01  0.98451284215E+01  0.14770035514E+02  0.00000000000E+00 0.  1.
<mgrwt>
<rscale>  0 0.54242579E+02</rscale>
<asrwt>0</asrwt>
<pdfrwt beam="1">  1        2 0.13647411E-01 0.92296870E+02</pdfrwt>
<pdfrwt beam="2">  1       -2 0.56924197E-02 0.92296870E+02</pdfrwt>
<totfact> 0.60308032E+04</totfact>
</mgrwt>
</event>
<event>
 6    1  0.1535970E-002  0.1026394E+03  0.7546771E-02  0.1333229E+00
         -2   -1    0    0    0  501 -0.00000000000E+00  0.00000000000E+00  0.17556753340E+02  0.17556753340E+02  0.00000000000E+00 0.  1.
          2   -1    0    0  501    0  0.00000000000E+00 -0.00000000000E+00 -0.44015035300E+03  0.44015035300E+03  0.00000000000E+00 0. -1.
         23    2    1    2    0    0 -0.22372381713E+02 -0.27176920368E+02 -0.40603323672E+03  0.41880525439E+03  0.96414435220E+02 0.  0.
         13    1    3    3    0    0 -0.53572824445E+02 -0.39306723549E+02 -0.22116955959E+03  0.23093514268E+03  0.00000000000E+00 0. -1.
        -13    1    3    3    0    0  0.31200442732E+02  0.12129803181E+02 -0.18486367713E+03  0.18787011171E+03  0.00000000000E+00 0.  1.
         22    1    1    2    0    0  0.22372381713E+02  0.27176920368E+02 -0.16560362934E+02  0.38901851944E+02  0.00000000000E+00 0.  1.
<mgrwt>
<rscale>  0 0.78546046E+02</rscale>
<asrwt>0</asrwt>
<pdfrwt beam="1">  1        2 0.67715437E-01 0.10263943E+03</pdfrwt>
<pdfrwt beam="2">  1       -2 0.27010390E-02 0.10263943E+03</pdfrwt>
<totfact> 0.32157052E+04</totfact>
</mgrwt>
</event>
<event>
 6    1  0.1535970E-002  0.1069853E+03  0.7546771E-02  0.1297138E+00
          2   -1    0    0  501    0  0.00000000000E+00  0.00000000000E+00  0.85189280962E+03  0.85189280962E+03  0.00000000000E+00 0. -1.
         -2   -1    0    0    0  501 -0.00000000000E+00 -0.00000000000E+00 -0.85794447461E+01  0.85794447461E+01  0.00000000000E+00 0.  1.
         23    2    1    2    0    0  0.11967731786E+01 -0.59519149011E+02  0.62947930855E+03  0.63850611954E+03  0.88892651181E+02 0.  0.
         13    1    3    3    0    0 -0.27205022545E+00  0.21828908732E+02  0.75805916625E+02  0.78886705237E+02  0.00000000000E+00 0.  1.
        -13    1    3    3    0    0  0.14688234040E+01 -0.81348057743E+02  0.55367339193E+03  0.55961941431E+03  0.00000000000E+00 0. -1.
         22    1    1    2    0    0 -0.11967731786E+01  0.59519149011E+02  0.21383405632E+03  0.22196613482E+03  0.00000000000E+00 0.  1.
<mgrwt>
<rscale>  0 0.92401570E+02</rscale>
<asrwt>0</asrwt>
<pdfrwt beam="1">  1        2 0.13106037E+00 0.10698535E+03</pdfrwt>
<pdfrwt beam="2">  1       -2 0.13199152E-02 0.10698535E+03</pdfrwt>
<totfact> 0.42610304E+04</totfact>
</mgrwt>
</event>
<event>
 6    1  0.1535970E-002  0.8289733E+02  0.7546771E-02  0.1445197E+00
          1   -1    0    0  501    0  0.00000000000E+00  0.00000000000E+00  0.60277866202E+03  0.60277866202E+03  0.00000000000E+00 0.  1.
         -1   -1    0    0    0  501 -0.00000000000E+00 -0.00000000000E+00 -0.40850163805E+01  0.40850163805E+01  0.00000000000E+00 0. -1.
         23    2    1    2    0    0 -0.10753576034E+02  0.22907762455E+01  0.57228300923E+03  0.57825583386E+03  0.82164954172E+02 0.  0.
         13    1    3    3    0    0 -0.32590426859E+02  0.31993447828E+02  0.28956835121E+03  0.29314765333E+03  0.00000000000E+00 0.  1.
        -13    1    3    3    0    0  0.21836850825E+02 -0.29702671582E+02  0.28271465801E+03  0.28510818054E+03  0.00000000000E+00 0. -1.
         22    1    1    2    0    0  0.10753576034E+02 -0.22907762455E+01  0.26410636408E+02  0.28607844532E+02  0.00000000000E+00 0. -1.
<mgrwt>
<rscale>  0 0.50026817E+02</rscale>
<asrwt>0</asrwt>
<pdfrwt beam="1">  1        1 0.92735108E-01 0.82897327E+02</pdfrwt>
<pdfrwt beam="2">  1       -1 0.62846454E-03 0.82897327E+02</pdfrwt>
<totfact> 0.11010230E+05</totfact>
</mgrwt>
</event>
<event>
 6    1  0.1535970E-002  0.9876326E+02  0.7546771E-02  0.1390645E+00
          2   -1    0    0  501    0  0.00000000000E+00  0.00000000000E+00  0.22866102646E+04  0.22866102646E+04  0.00000000000E+00 0. -1.
         -2   -1    0    0    0  501 -0.00000000000E+00 -0.00000000000E+00 -0.34832067617E+01  0.34832067617E+01  0.00000000000E+00 0.  1.
         23    2    1    2    0    0 -0.14237886287E+02 -0.49961942207E+01  0.22618713813E+04  0.22640265739E+04  0.97603801193E+02 0.  0.
         11    1    3    3    0    0  0.42509173292E+01  0.38287723182E+02  0.16088641393E+04  0.16093252744E+04  0.00000000000E+00 0. -1.
        -11    1    3    3    0    0 -0.18488803617E+02 -0.43283917403E+02  0.65300724202E+03  0.65470129945E+03  0.00000000000E+00 0.  1.
         22    1    1    2    0    0  0.14237886287E+02  0.49961942207E+01  0.21255676508E+02  0.26066897522E+02  0.00000000000E+00 0.  1.
<mgrwt>
<rscale>  0 0.61746454E+02</rscale>
<asrwt>0</asrwt>
<pdfrwt beam="1">  1        2 0.35178500E+00 0.98763259E+02</pdfrwt>
<pdfrwt beam="2">  1       -2 0.53587979E-03 0.98763259E+02</pdfrwt>
<totfact> 0.26270316E+04</totfact>
</mgrwt>
</event>
<event>
 6    1  0.1535970E-002  0.9388225E+02  0.7546771E-02  0.1412741E+00
          1   -1    0    0  501    0  0.00000000000E+00  0.00000000000E+00  0.24108054748E+03  0.24108054748E+03  0.00000000000E+00 0. -1.
         -1   -1    0    0    0  501 -0.00000000000E+00 -0.00000000000E+00 -0.11996066602E+02  0.11996066602E+02  0.00000000000E+00 0.  1.
         23    2    1    2    0    0  0.93053639587E+01  0.81819677521E+01  0.21300522953E+03  0.23277694121E+03  0.93060959369E+02 0.  0.
         11    1    3    3    0    0  0.45285768923E+02  0.11191724773E+02  0.62428448353E+02  0.77931808230E+02  0.00000000000E+00 0.  1.
        -11    1    3    3    0    0 -0.35980404964E+02 -0.30097570209E+01  0.15057678118E+03  0.15484513298E+03  0.00000000000E+00 0. -1.
         22    1    1    2    0    0 -0.93053639587E+01 -0.81819677521E+01  0.16079251352E+02  0.20299672873E+02  0.00000000000E+00 0.  1.
<mgrwt>
<rscale>  0 0.56586564E+02</rscale>
<asrwt>0</asrwt>
<pdfrwt beam="1">  1        1 0.37089311E-01 0.93882248E+02</pdfrwt>
<pdfrwt beam="2">  1       -1 0.18455489E-02 0.93882248E+02</pdfrwt>
<totfact> 0.77125141E+04</totfact>
</mgrwt>
</event>
<event>
 6    1  0.1535970E-002  0.9124363E+02  0.7546771E-02  0.1418150E+00
          2   -1    0    0  501    0  0.00000000000E+00  0.00000000000E+00  0.11428084830E+03  0.11428084830E+03  0.00000000000E+00 0. -1.
         -2   -1    0    0    0  501 -0.00000000000E+00 -0.00000000000E+00 -0.28002851217E+02  0.28002851217E+02  0.00000000000E+00 0.  1.
         23    2    1    2    0    0  0.73991750287E+01 -0.99668056871E+01  0.91128474381E+02  0.12895657917E+03  0.90395328759E+02 0.  0.
         13    1    3    3    0    0  0.35694334227E+02 -0.32889004150E+02  0.74521076676E+02  0.88933474905E+02  0.00000000000E+00 0. -1.
        -13    1    3    3    0    0 -0.28295159198E+02  0.22922198463E+02  0.16607397706E+02  0.40023104265E+02  0.00000000000E+00 0.  1.
         22    1    1    2    0    0 -0.73991750287E+01  0.99668056871E+01 -0.48504772991E+01  0.13327120347E+02  0.00000000000E+00 0.  1.
<mgrwt>
<rscale>  0 0.55414315E+02</rscale>
<asrwt>0</asrwt>
<pdfrwt beam="1">  1        2 0.17581669E-01 0.91243632E+02</pdfrwt>
<pdfrwt beam="2">  1       -2 0.43081310E-02 0.91243632E+02</pdfrwt>
<totfact> 0.68023626E+04</totfact>
</mgrwt>
</event>
<event>
 6    1  0.1535970E-002  0.9062691E+02  0.7546771E-02  0.1381565E+00
          2   -1    0    0  501    0  0.00000000000E+00  0.00000000000E+00  0.20092227857E+04  0.20092227857E+04  0.00000000000E+00 0. -1.
         -2   -1    0    0    0  501 -0.00000000000E+00 -0.00000000000E+00 -0.30989858517E+01  0.30989858517E+01  0.00000000000E+00 0.  1.
         23    2    1    2    0    0  0.92821724545E+01 -0.20623758875E+02  0.19456133376E+04  0.19477229000E+04  0.87759545603E+02 0.  0.
         13    1    3    3    0    0 -0.34842878738E+01 -0.42616194928E+02  0.17424156205E+04  0.17429401811E+04  0.00000000000E+00 0. -1.
        -13    1    3    3    0    0  0.12766460328E+02  0.21992436053E+02  0.20319771709E+03  0.20478271896E+03  0.00000000000E+00 0.  1.
         22    1    1    2    0    0 -0.92821724545E+01  0.20623758875E+02  0.60510462260E+02  0.64598871496E+02  0.00000000000E+00 0.  1.
<mgrwt>
<rscale>  0 0.64054312E+02</rscale>
<asrwt>0</asrwt>
<pdfrwt beam="1">  1        2 0.30911016E+00 0.90626905E+02</pdfrwt>
<pdfrwt beam="2">  1       -2 0.47676866E-03 0.90626905E+02</pdfrwt>
<totfact> 0.42557431E+04</totfact>
</mgrwt>
</event>
<event>
 6    1  0.1535970E-002  0.8789999E+02  0.7546771E-02  0.1439055E+00
         -2   -1    0    0    0  501 -0.00000000000E+00  0.00000000000E+00  0.23727491582E+01  0.23727491582E+01  0.00000000000E+00 0.  1.
          2   -1    0    0  501    0  0.00000000000E+00 -0.00000000000E+00 -0.10694971935E+04  0.10694971935E+04  0.00000000000E+00 0. -1.
         23    2    1    2    0    0  0.10031288074E+02  0.12283021917E+01 -0.10132687443E+04  0.10170742138E+04  0.87317082370E+02 0.  0.
         11    1    3    3    0    0  0.26863842990E+02 -0.18953134192E+02 -0.15714927727E+03  0.16055149548E+03  0.00000000000E+00 0.  1.
        -11    1    3    3    0    0 -0.16832554916E+02  0.20181436383E+02 -0.85611946701E+03  0.85652271836E+03  0.00000000000E+00 0. -1.
         22    1    1    2    0    0 -0.10031288074E+02 -0.12283021917E+01 -0.53855700078E+02  0.54795728826E+02  0.00000000000E+00 0.  1.
<mgrwt>
<rscale>  0 0.51184527E+02</rscale>
<asrwt>0</asrwt>
<pdfrwt beam="1">  1        2 0.16453825E+00 0.87899991E+02</pdfrwt>
<pdfrwt beam="2">  1       -2 0.36503785E-03 0.87899991E+02</pdfrwt>
<totfact> 0.18848510E+05</totfact>
</mgrwt>
</event>
<event>
 6    1  0.1535970E-002  0.8914429E+02  0.7546771E-02  0.1433836E+00
         -2   -1    0    0    0  501 -0.00000000000E+00  0.00000000000E+00  0.15833010009E+03  0.15833010009E+03  0.00000000000E+00 0.  1.
          2   -1    0    0  501    0  0.00000000000E+00 -0.00000000000E+00 -0.20121617414E+02  0.20121617414E+02  0.00000000000E+00 0. -1.
         23    2    1    2    0    0  0.10276529134E+02 -0.20502017741E+01  0.81505130745E+02  0.12078820652E+03  0.88526234073E+02 0.  0.
         11    1    3    3    0    0  0.31987177078E+02 -0.33149915865E+02  0.64403623600E+02  0.79182846325E+02  0.00000000000E+00 0.  1.
        -11    1    3    3    0    0 -0.21710647944E+02  0.31099714091E+02  0.17101507146E+02  0.41605360200E+02  0.00000000000E+00 0. -1.
         22    1    1    2    0    0 -0.10276529134E+02  0.20502017741E+01  0.56703351933E+02  0.57663510982E+02  0.00000000000E+00 0.  1.
<mgrwt>
<rscale>  0 0.52197605E+02</rscale>
<asrwt>0</asrwt>
<pdfrwt beam="1">  1        2 0.30956335E-02 0.89144290E+02</pdfrwt>
<pdfrwt beam="2">  1       -2 0.24358476E-01 0.89144290E+02</pdfrwt>
<totfact> 0.38541267E+04</totfact>
</mgrwt>
</event>
<event>
 6    1  0.1535970E-002  0.8949672E+02  0.7546771E-02  0.1434488E+00
         -2   -1    0    0    0  501 -0.00000000000E+00  0.00000000000E+00  0.21768034784E+02  0.21768034784E+02  0.00000000000E+00 0.  1.
          2   -1    0    0  501    0  0.00000000000E+00 -0.00000000000E+00 -0.20909059972E+03  0.20909059972E+03  0.00000000000E+00 0. -1.
         23    2    1    2    0    0 -0.33570421816E+01 -0.96894204884E+01 -0.19723887806E+03  0.21659371714E+03  0.88907303898E+02 0.  0.
         11    1    3    3    0    0  0.17940937668E+02 -0.41728304027E+02 -0.14340090429E+03  0.15042256464E+03  0.00000000000E+00 0.  1.
        -11    1    3    3    0    0 -0.21297979850E+02  0.32038883539E+02 -0.53837973763E+02  0.66171152499E+02  0.00000000000E+00 0. -1.
         22    1    1    2    0    0  0.33570421816E+01  0.96894204884E+01  0.99163131175E+01  0.14264917366E+02  0.00000000000E+00 0.  1.
<mgrwt>
<rscale>  0 0.52069557E+02</rscale>
<asrwt>0</asrwt>
<pdfrwt beam="1">  1        2 0.32167786E-01 0.89496722E+02</pdfrwt>
<pdfrwt beam="2">  1       -2 0.33489283E-02 0.89496722E+02</pdfrwt>
<totfact> 0.50628757E+04</totfact>
</mgrwt>
</event>
<event>
 6    1  0.1535970E-002  0.1293280E+03  0.7546771E-02  0.1244661E+00
          2   -1    0    0  501    0  0.00000000000E+00  0.00000000000E+00  0.74672158697E+03  0.74672158697E+03  0.00000000000E+00 0. -1.
         -2   -1    0    0    0  501 -0.00000000000E+00 -0.00000000000E+00 -0.16765015721E+02  0.16765015721E+02  0.00000000000E+00 0.  1.
         23    2    1    2    0    0 -0.25196400629E+02  0.89401891961E+02  0.37957488095E+03  0.40100227780E+03  0.89989886463E+02 0.  0.
         13    1    3    3    0    0 -0.29163423470E+02  0.47684720365E+02  0.33573357839E+03  0.34035477590E+03  0.00000000000E+00 0. -1.
        -13    1    3    3    0    0  0.39670228409E+01  0.41717171596E+02  0.43841302559E+02  0.60647501896E+02  0.00000000000E+00 0.  1.
         22    1    1    2    0    0  0.25196400629E+02 -0.89401891961E+02  0.35038169031E+03  0.36248432489E+03  0.00000000000E+00 0. -1.
<mgrwt>
<rscale>  0 0.11905714E+03</rscale>
<asrwt>0</asrwt>
<pdfrwt beam="1">  1        2 0.11488022E+00 0.12932802E+03</pdfrwt>
<pdfrwt beam="2">  1       -2 0.25792338E-02 0.12932802E+03</pdfrwt>
<totfact> 0.19394599E+04</totfact>
</mgrwt>
</event>
<event>
 6    1  0.1535970E-002  0.9269766E+02  0.7546771E-02  0.1418675E+00
          2   -1    0    0  501    0  0.00000000000E+00  0.00000000000E+00  0.37320065338E+03  0.37320065338E+03  0.00000000000E+00 0.  1.
         -2   -1    0    0    0  501 -0.00000000000E+00 -0.00000000000E+00 -0.13835518932E+02  0.13835518932E+02  0.00000000000E+00 0. -1.
         23    2    1    2    0    0 -0.10002166313E+01 -0.11699913892E+02  0.36307487259E+03  0.37472152349E+03  0.91950903440E+02 0.  0.
         13    1    3    3    0    0 -0.29599183498E+02  0.22187662352E+02  0.25850562226E+03  0.26113896830E+03  0.00000000000E+00 0.  1.
        -13    1    3    3    0    0  0.28598966867E+02 -0.33887576244E+02  0.10456925033E+03  0.11358255519E+03  0.00000000000E+00 0. -1.
         22    1    1    2    0    0  0.10002166313E+01  0.11699913892E+02 -0.37097381455E+01  0.12314648817E+02  0.00000000000E+00 0. -1.
<mgrwt>
<rscale>  0 0.55302220E+02</rscale>
<asrwt>0</asrwt>
<pdfrwt beam="1">  1        2 0.57415477E-01 0.92697665E+02</pdfrwt>
<pdfrwt beam="2">  1       -2 0.21285417E-02 0.92697665E+02</pdfrwt>
<totfact> 0.53383980E+04</totfact>
</mgrwt>
</event>
<event>
 6    1  0.1535970E-002  0.9442883E+02  0.7546771E-02  0.1401728E+00
          2   -1    0    0  501    0  0.00000000000E+00  0.00000000000E+00  0.74874237756E+03  0.74874237756E+03  0.00000000000E+00 0. -1.
         -2   -1    0    0    0  501 -0.00000000000E+00 -0.00000000000E+00 -0.40180276718E+01  0.40180276718E+01  0.00000000000E+00 0.  1.
         23    2    1    2    0    0  0.14987146643E+01  0.14392856229E+02  0.67284768965E+03  0.67944154856E+03  0.93313471652E+02 0.  0.
         13    1    3    3    0    0 -0.30763850104E+01  0.12126797626E+02  0.67407457087E+03  0.67419066329E+03  0.00000000000E+00 0. -1.
        -13    1    3    3    0    0  0.45750996747E+01  0.22660586032E+01 -0.12268812256E+01  0.52508852747E+01  0.00000000000E+00 0.  1.
         22    1    1    2    0    0 -0.14987146643E+01 -0.14392856229E+02  0.71876660238E+02  0.73318856667E+02  0.00000000000E+00 0.  1.
<mgrwt>
<rscale>  0 0.59081385E+02</rscale>
<asrwt>0</asrwt>
<pdfrwt beam="1">  1        2 0.11519102E+00 0.94428833E+02</pdfrwt>
<pdfrwt beam="2">  1       -2 0.61815870E-03 0.94428833E+02</pdfrwt>
<totfact> 0.14402946E+05</totfact>
</mgrwt>
</event>
<event>
 6    1  0.1535970E-002  0.9875556E+02  0.7546771E-02  0.1371525E+00
          2   -1    0    0  501    0  0.00000000000E+00  0.00000000000E+00  0.59910049039E+02  0.59910049039E+02  0.00000000000E+00 0. -1.
         -2   -1    0    0    0  501 -0.00000000000E+00 -0.00000000000E+00 -0.60108547373E+02  0.60108547373E+02  0.00000000000E+00 0.  1.
         23    2    1    2    0    0 -0.19598356565E+02 -0.63644590505E+01  0.45954315142E+01  0.98862422787E+02  0.96581875782E+02 0.  0.
         13    1    3    3    0    0 -0.97546375776E+00  0.18463198156E+01 -0.45106484349E+02  0.45154793287E+02  0.00000000000E+00 0.  1.
        -13    1    3    3    0    0 -0.18622892807E+02 -0.82107788661E+01  0.49701915863E+02  0.53707629501E+02  0.00000000000E+00 0. -1.
         22    1    1    2    0    0  0.19598356565E+02  0.63644590505E+01 -0.47939298486E+01  0.21156173625E+02  0.00000000000E+00 0.  1.
<mgrwt>
<rscale>  0 0.66745027E+02</rscale>
<asrwt>0</asrwt>
<pdfrwt beam="1">  1        2 0.92169306E-02 0.98755560E+02</pdfrwt>
<pdfrwt beam="2">  1       -2 0.92474688E-02 0.98755560E+02</pdfrwt>
<totfact> 0.46577561E+04</totfact>
</mgrwt>
</event>
<event>
 6    1  0.1535970E-002  0.1081555E+03  0.7546771E-02  0.1297780E+00
         -2   -1    0    0    0  501 -0.00000000000E+00  0.00000000000E+00  0.47179525373E+01  0.47179525373E+01  0.00000000000E+00 0.  1.
          2   -1    0    0  501    0  0.00000000000E+00 -0.00000000000E+00 -0.24587281866E+04  0.24587281866E+04  0.00000000000E+00 0. -1.
         23    2    1    2    0    0  0.42576826672E+02 -0.37805504999E+02 -0.22190883472E+04  0.22217224636E+04  0.91954175005E+02 0.  0.
         13    1    3    3    0    0  0.63963097362E+02  0.74742437121E+00 -0.13603881715E+04  0.13618912635E+04  0.00000000000E+00 0. -1.
        -13    1    3    3    0    0 -0.21386270690E+02 -0.38552929370E+02 -0.85870017575E+03  0.85983120016E+03  0.00000000000E+00 0.  1.
         22    1    1    2    0    0 -0.42576826672E+02  0.37805504999E+02 -0.23492188683E+03  0.24172367549E+03  0.00000000000E+00 0.  1.
<mgrwt>
<rscale>  0 0.92127397E+02</rscale>
<asrwt>0</asrwt>
<pdfrwt beam="1">  1        2 0.37826531E+00 0.10815550E+03</pdfrwt>
<pdfrwt beam="2">  1       -2 0.72583994E-03 0.10815550E+03</pdfrwt>
<totfact> 0.13993632E+04</totfact>
</mgrwt>
</event>
<event>
 6    1  0.1535970E-002  0.9453225E+02  0.7546771E-02  0.1344145E+00
          2   -1    0    0  501    0  0.00000000000E+00  0.00000000000E+00  0.21209008382E+04  0.21209008382E+04  0.00000000000E+00 0. -1.
         -2   -1    0    0    0  501 -0.00000000000E+00 -0.00000000000E+00 -0.17332058665E+02  0.17332058665E+02  0.00000000000E+00 0.  1.
         23    2    1    2    0    0 -0.33790553766E+02 -0.15744202673E+02  0.20984806684E+04  0.21006088312E+04  0.86871542298E+02 0.  0.
         11    1    3    3    0    0 -0.46902364405E+02  0.85234136452E+01  0.60558692822E+03  0.60746029335E+03  0.00000000000E+00 0.  1.
        -11    1    3    3    0    0  0.13111810640E+02 -0.24267616318E+02  0.14928937402E+04  0.14931485379E+04  0.00000000000E+00 0. -1.
         22    1    1    2    0    0  0.33790553766E+02  0.15744202673E+02  0.50881111901E+01  0.37624065664E+02  0.00000000000E+00 0.  1.
<mgrwt>
<rscale>  0 0.74911657E+02</rscale>
<asrwt>0</asrwt>
<pdfrwt beam="1">  1        2 0.32629223E+00 0.94532250E+02</pdfrwt>
<pdfrwt beam="2">  1       -2 0.26664722E-02 0.94532250E+02</pdfrwt>
<totfact> 0.32430116E+03</totfact>
</mgrwt>
</event>
<event>
 6    1  0.1535970E-002  0.9310294E+02  0.7546771E-02  0.1398558E+00
          2   -1    0    0  501    0  0.00000000000E+00  0.00000000000E+00  0.26761101309E+03  0.26761101309E+03  0.00000000000E+00 0. -1.
         -2   -1    0    0    0  501 -0.00000000000E+00 -0.00000000000E+00 -0.11481930645E+02  0.11481930645E+02  0.00000000000E+00 0.  1.
         23    2    1    2    0    0 -0.14389787982E+02  0.67036188808E+01  0.23414653657E+03  0.25197769291E+03  0.91739591404E+02 0.  0.
         11    1    3    3    0    0  0.97644573116E+01  0.29771200794E+02  0.20579762880E+03  0.20816900116E+03  0.00000000000E+00 0. -1.
        -11    1    3    3    0    0 -0.24154245294E+02 -0.23067581913E+02  0.28348907770E+02  0.43808691749E+02  0.00000000000E+00 0.  1.
         22    1    1    2    0    0  0.14389787982E+02 -0.67036188808E+01  0.21982545873E+02  0.27115250826E+02  0.00000000000E+00 0.  1.
<mgrwt>
<rscale>  0 0.59827186E+02</rscale>
<asrwt>0</asrwt>
<pdfrwt beam="1">  1        2 0.41170920E-01 0.93102938E+02</pdfrwt>
<pdfrwt beam="2">  1       -2 0.17664511E-02 0.93102938E+02</pdfrwt>
<totfact> 0.98895635E+04</totfact>
</mgrwt>
</event>
<event>
 6    1  0.1535970E-002  0.9327587E+02  0.7546771E-02  0.1395400E+00
          4   -1    0    0  501    0  0.00000000000E+00  0.00000000000E+00  0.14735385296E+02  0.14735385296E+02  0.00000000000E+00 0. -1.
         -4   -1    0    0    0  501 -0.00000000000E+00 -0.00000000000E+00 -0.23279984558E+03  0.23279984558E+03  0.00000000000E+00 0.  1.
         23    2    1    2    0    0  0.86852105509E+00 -0.16577028804E+02 -0.14354035939E+03  0.17118476378E+03  0.91786907354E+02 0.  0.
         13    1    3    3    0    0 -0.81781978585E+00 -0.45060237827E+02 -0.13355645656E+03  0.14095538638E+03  0.00000000000E+00 0.  1.
        -13    1    3    3    0    0  0.16863408409E+01  0.28483209023E+02 -0.99839028338E+01  0.30229377392E+02  0.00000000000E+00 0. -1.
         22    1    1    2    0    0 -0.86852105509E+00  0.16577028804E+02 -0.74524100890E+02  0.76350467099E+02  0.00000000000E+00 0.  1.
<mgrwt>
<rscale>  0 0.60583238E+02</rscale>
<asrwt>0</asrwt>
<pdfrwt beam="1">  1        4 0.22669825E-02 0.93275873E+02</pdfrwt>
<pdfrwt beam="2">  1       -4 0.35815358E-01 0.93275873E+02</pdfrwt>
<totfact> 0.92840025E+03</totfact>
</mgrwt>
</event>
<event>
 6    1  0.1535970E-002  0.9317824E+02  0.7546771E-02  0.1357065E+00
         -1   -1    0    0    0  501 -0.00000000000E+00  0.00000000000E+00  0.31716837756E+03  0.31716837756E+03  0.00000000000E+00 0.  1.
          1   -1    0    0  501    0  0.00000000000E+00 -0.00000000000E+00 -0.13211231695E+02  0.13211231695E+02  0.00000000000E+00 0. -1.
         23    2    1    2    0    0 -0.91149536379E+01  0.29872223788E+02  0.26198960144E+03  0.27806606494E+03  0.87788114650E+02 0.  0.
         13    1    3    3    0    0 -0.17943867192E+02 -0.28663384693E+02  0.10330452804E+03  0.10869865457E+03  0.00000000000E+00 0. -1.
        -13    1    3    3    0    0  0.88289135545E+01  0.58535608481E+02  0.15868507340E+03  0.16936741037E+03  0.00000000000E+00 0.  1.
         22    1    1    2    0    0  0.91149536379E+01 -0.29872223788E+02  0.41967544423E+02  0.52313544314E+02  0.00000000000E+00 0. -1.
<mgrwt>
<rscale>  0 0.70898251E+02</rscale>
<asrwt>0</asrwt>
<pdfrwt beam="1">  1        1 0.20324974E-02 0.93178244E+02</pdfrwt>
<pdfrwt beam="2">  1       -1 0.48795129E-01 0.93178244E+02</pdfrwt>
<totfact> 0.22531788E+04</totfact>
</mgrwt>
</event>
<event>
 6    1  0.1535970E-002  0.9722991E+02  0.7546771E-02  0.1343633E+00
         -2   -1    0    0    0  501 -0.00000000000E+00  0.00000000000E+00  0.37930102778E+02  0.37930102778E+02  0.00000000000E+00 0.  1.
          2   -1    0    0  501    0  0.00000000000E+00 -0.00000000000E+00 -0.13514716194E+03  0.13514716194E+03  0.00000000000E+00 0. -1.
         23    2    1    2    0    0  0.11893542171E+01 -0.34543702952E+02 -0.98612489370E+02  0.13848493605E+03  0.90878889050E+02 0.  0.
         13    1    3    3    0    0  0.34580358451E+02 -0.29660992517E+02 -0.93956235496E+02  0.10441910676E+03  0.00000000000E+00 0. -1.
        -13    1    3    3    0    0 -0.33391004234E+02 -0.48827104351E+01 -0.46562538747E+01  0.34065829289E+02  0.00000000000E+00 0.  1.
         22    1    1    2    0    0 -0.11893542171E+01  0.34543702952E+02  0.13954302128E+01  0.34592328667E+02  0.00000000000E+00 0.  1.
<mgrwt>
<rscale>  0 0.75076918E+02</rscale>
<asrwt>0</asrwt>
<pdfrwt beam="1">  1        2 0.20791871E-01 0.97229905E+02</pdfrwt>
<pdfrwt beam="2">  1       -2 0.58354004E-02 0.97229905E+02</pdfrwt>
<totfact> 0.36176147E+04</totfact>
</mgrwt>
</event>
<event>
 6    1  0.1535970E-002  0.9649200E+02  0.7546771E-02  0.1351243E+00
         -1   -1    0    0    0  501 -0.00000000000E+00  0.00000000000E+00  0.80333267542E+01  0.80333267542E+01  0.00000000000E+00 0.  1.
          1   -1    0    0  501    0  0.00000000000E+00 -0.00000000000E+00 -0.60539212119E+03  0.60539212119E+03  0.00000000000E+00 0. -1.
         23    2    1    2    0    0  0.45234074945E+01  0.30710134720E+02 -0.53649053113E+03  0.54509888599E+03  0.91362639695E+02 0.  0.
         13    1    3    3    0    0 -0.22013755077E+02  0.34767928469E+02 -0.48751155886E+03  0.48924527007E+03  0.00000000000E+00 0. -1.
        -13    1    3    3    0    0  0.26537162572E+02 -0.40577937495E+01 -0.48978972268E+02  0.55853615925E+02  0.00000000000E+00 0.  1.
         22    1    1    2    0    0 -0.45234074945E+01 -0.30710134720E+02 -0.60868263310E+02  0.68326561953E+02  0.00000000000E+00 0.  1.
<mgrwt>
<rscale>  0 0.72669820E+02</rscale>
<asrwt>0</asrwt>
<pdfrwt beam="1">  1        1 0.93137253E-01 0.96491997E+02</pdfrwt>
<pdfrwt beam="2">  1       -1 0.12358964E-02 0.96491997E+02</pdfrwt>
<totfact> 0.43119660E+04</totfact>
</mgrwt>
</event>
<event>
 6    1  0.1535970E-002  0.9460342E+02  0.7546771E-02  0.1383826E+00
          2   -1    0    0  501    0  0.00000000000E+00  0.00000000000E+00  0.88909714035E+03  0.88909714035E+03  0.00000000000E+00 0. -1.
         -2   -1    0    0    0  501 -0.00000000000E+00 -0.00000000000E+00 -0.25223419531E+02  0.25223419531E+02  0.00000000000E+00 0.  1.
         23    2    1    2    0    0 -0.99956119693E+01 -0.16352435146E+02  0.88252295421E+03  0.88757905095E+03  0.92641743283E+02 0.  0.
         13    1    3    3    0    0  0.29059108956E+02 -0.19060072045E+01  0.68953916262E+03  0.69015383898E+03  0.00000000000E+00 0. -1.
        -13    1    3    3    0    0 -0.39054720925E+02 -0.14446427942E+02  0.19298379159E+03  0.19742521197E+03  0.00000000000E+00 0.  1.
         22    1    1    2    0    0  0.99956119693E+01  0.16352435146E+02 -0.18649233386E+02  0.26741508928E+02  0.00000000000E+00 0.  1.
<mgrwt>
<rscale>  0 0.63468739E+02</rscale>
<asrwt>0</asrwt>
<pdfrwt beam="1">  1        2 0.13678415E+00 0.94603420E+02</pdfrwt>
<pdfrwt beam="2">  1       -2 0.38805268E-02 0.94603420E+02</pdfrwt>
<totfact> 0.83931048E+03</totfact>
</mgrwt>
</event>
<event>
 6    1  0.1535970E-002  0.9517525E+02  0.7546771E-02  0.1355442E+00
          1   -1    0    0  501    0  0.00000000000E+00  0.00000000000E+00  0.21941651384E+04  0.21941651384E+04  0.00000000000E+00 0. -1.
         -1   -1    0    0    0  501 -0.00000000000E+00 -0.00000000000E+00 -0.30990885800E+01  0.30990885800E+01  0.00000000000E+00 0.  1.
         23    2    1    2    0    0 -0.64458315160E+01 -0.29424153785E+02  0.20802849668E+04  0.20824610130E+04  0.90282879227E+02 0.  0.
         13    1    3    3    0    0  0.30063851230E+02  0.13962709466E+02  0.11297521595E+04  0.11302383529E+04  0.00000000000E+00 0. -1.
        -13    1    3    3    0    0 -0.36509682746E+02 -0.43386863251E+02  0.95053280722E+03  0.95222266012E+03  0.00000000000E+00 0.  1.
         22    1    1    2    0    0  0.64458315160E+01  0.29424153785E+02  0.11078108306E+03  0.11480321395E+03  0.00000000000E+00 0.  1.
<mgrwt>
<rscale>  0 0.71386098E+02</rscale>
<asrwt>0</asrwt>
<pdfrwt beam="1">  1        1 0.33756263E+00 0.95175248E+02</pdfrwt>
<pdfrwt beam="2">  1       -1 0.47678461E-03 0.95175248E+02</pdfrwt>
<totfact> 0.13214256E+04</totfact>
</mgrwt>
</event>
<event>
 6    1  0.1535970E-002  0.9257599E+02  0.7546771E-02  0.1404977E+00
         -2   -1    0    0    0  501 -0.00000000000E+00  0.00000000000E+00  0.96429299575E+02  0.96429299575E+02  0.00000000000E+00 0.  1.
          2   -1    0    0  501    0  0.00000000000E+00 -0.00000000000E+00 -0.30863748234E+02  0.30863748234E+02  0.00000000000E+00 0. -1.
         23    2    1    2    0    0  0.12666343159E+02  0.72420896370E+01  0.47436226437E+02  0.10402168058E+03  0.91418982386E+02 0.  0.
         11    1    3    3    0    0  0.45880910968E+02  0.21697622582E+02  0.96221372472E+01  0.51656851841E+02  0.00000000000E+00 0.  1.
        -11    1    3    3    0    0 -0.33214567809E+02 -0.14455532945E+02  0.37814089190E+02  0.52364828737E+02  0.00000000000E+00 0. -1.
         22    1    1    2    0    0 -0.12666343159E+02 -0.72420896370E+01  0.18129324904E+02  0.23271367231E+02  0.00000000000E+00 0. -1.
<mgrwt>
<rscale>  0 0.58329962E+02</rscale>
<asrwt>0</asrwt>
<pdfrwt beam="1">  1        2 0.47482690E-02 0.92575993E+02</pdfrwt>
<pdfrwt beam="2">  1       -2 0.14835277E-01 0.92575993E+02</pdfrwt>
<totfact> 0.50533325E+04</totfact>
</mgrwt>
</event>
<event>
 6    1  0.1535970E-002  0.1124788E+03  0.7546771E-02  0.1384714E+00
          2   -1    0    0  501    0  0.00000000000E+00  0.00000000000E+00  0.11551320017E+04  0.11551320017E+04  0.00000000000E+00 0. -1.
         -2   -1    0    0    0  501 -0.00000000000E+00 -0.00000000000E+00 -0.38436703758E+01  0.38436703758E+01  0.00000000000E+00 0.  1.
         23    2    1    2    0    0 -0.27149245827E+01  0.10907486417E+02  0.11216819437E+04  0.11273073557E+04  0.11191580431E+03 0.  0.
         13    1    3    3    0    0  0.18357529687E+02  0.15920307026E+02  0.10805279623E+04  0.10808011530E+04  0.00000000000E+00 0. -1.
        -13    1    3    3    0    0 -0.21072454270E+02 -0.50128206090E+01  0.41153981397E+02  0.46506202642E+02  0.00000000000E+00 0.  1.
         22    1    1    2    0    0  0.27149245827E+01 -0.10907486417E+02  0.29606387568E+02  0.31668316347E+02  0.00000000000E+00 0.  1.
<mgrwt>
<rscale>  0 0.63240822E+02</rscale>
<asrwt>0</asrwt>
<pdfrwt beam="1">  1        2 0.17771234E+00 0.11247885E+03</pdfrwt>
<pdfrwt beam="2">  1       -2 0.59133482E-03 0.11247885E+03</pdfrwt>
<totfact> 0.88525169E+04</totfact>
</mgrwt>
</event>
<event>
 6    1  0.1535970E-002  0.8810939E+02  0.7546771E-02  0.1416593E+00
          2   -1    0    0  501    0  0.00000000000E+00  0.00000000000E+00  0.36892772762E+03  0.36892772762E+03  0.00000000000E+00 0.  1.
         -2   -1    0    0    0  501 -0.00000000000E+00 -0.00000000000E+00 -0.13744139001E+02  0.13744139001E+02  0.00000000000E+00 0. -1.
         23    2    1    2    0    0 -0.14000473212E+02 -0.18395931492E+01  0.35764472711E+03  0.36833818057E+03  0.86970495478E+02 0.  0.
         11    1    3    3    0    0  0.13308095961E+02 -0.37511698895E+02  0.11837488919E+03  0.12488733869E+03  0.00000000000E+00 0. -1.
        -11    1    3    3    0    0 -0.27308569173E+02  0.35672105746E+02  0.23926983792E+03  0.24345084189E+03  0.00000000000E+00 0.  1.
         22    1    1    2    0    0  0.14000473212E+02  0.18395931492E+01 -0.24611384915E+01  0.14333686050E+02  0.00000000000E+00 0. -1.
<mgrwt>
<rscale>  0 0.55748292E+02</rscale>
<asrwt>0</asrwt>
<pdfrwt beam="1">  1        2 0.56758104E-01 0.88109389E+02</pdfrwt>
<pdfrwt beam="2">  1       -2 0.21144832E-02 0.88109389E+02</pdfrwt>
<totfact> 0.54188030E+04</totfact>
</mgrwt>
</event>
<event>
 6    1  0.1535970E-002  0.9345703E+02  0.7546771E-02  0.1382529E+00
         -1   -1    0    0    0  501 -0.00000000000E+00  0.00000000000E+00  0.13524662004E+03  0.13524662004E+03  0.00000000000E+00 0.  1.
          1   -1    0    0  501    0  0.00000000000E+00 -0.00000000000E+00 -0.25448924266E+02  0.25448924266E+02  0.00000000000E+00 0. -1.
         23    2    1    2    0    0  0.16115096483E+02  0.12348435376E+02  0.72692999672E+02  0.11839969742E+03  0.91225193654E+02 0.  0.
         13    1    3    3    0    0 -0.29891966131E+02 -0.19760094355E+01  0.62267872544E+02  0.69099364712E+02  0.00000000000E+00 0.  1.
        -13    1    3    3    0    0  0.46007062615E+02  0.14324444811E+02  0.10425127128E+02  0.49300332709E+02  0.00000000000E+00 0. -1.
         22    1    1    2    0    0 -0.16115096483E+02 -0.12348435376E+02  0.37104696107E+02  0.42295846889E+02  0.00000000000E+00 0. -1.
<mgrwt>
<rscale>  0 0.63803553E+02</rscale>
<asrwt>0</asrwt>
<pdfrwt beam="1">  1        1 0.39152192E-02 0.93457028E+02</pdfrwt>
<pdfrwt beam="2">  1       -1 0.20807172E-01 0.93457028E+02</pdfrwt>
<totfact> 0.38517139E+04</totfact>
</mgrwt>
</event>
<event>
 6    1  0.1535970E-002  0.9094192E+02  0.7546771E-02  0.1431241E+00
          1   -1    0    0  501    0  0.00000000000E+00  0.00000000000E+00  0.11260581061E+04  0.11260581061E+04  0.00000000000E+00 0.  1.
         -1   -1    0    0    0  501 -0.00000000000E+00 -0.00000000000E+00 -0.29578392997E+01  0.29578392997E+01  0.00000000000E+00 0. -1.
         23    2    1    2    0    0  0.12436355464E+01 -0.10188913189E+02  0.10998168035E+04  0.11035703123E+04  0.90360789684E+02 0.  0.
         13    1    3    3    0    0  0.23423588485E+02  0.24766708785E+01  0.10077788850E+04  0.10080541055E+04  0.00000000000E+00 0.  1.
        -13    1    3    3    0    0 -0.22179952939E+02 -0.12665584068E+02  0.92037918456E+02  0.95516206823E+02  0.00000000000E+00 0. -1.
         22    1    1    2    0    0 -0.12436355464E+01  0.10188913189E+02  0.23283463289E+02  0.25445633105E+02  0.00000000000E+00 0.  1.
<mgrwt>
<rscale>  0 0.52711802E+02</rscale>
<asrwt>0</asrwt>
<pdfrwt beam="1">  1        1 0.17323937E+00 0.90941920E+02</pdfrwt>
<pdfrwt beam="2">  1       -1 0.45505310E-03 0.90941920E+02</pdfrwt>
<totfact> 0.67775392E+04</totfact>
</mgrwt>
</event>
<event>
 6    1  0.1535970E-002  0.9267664E+02  0.7546771E-02  0.1401735E+00
          2   -1    0    0  501    0  0.00000000000E+00  0.00000000000E+00  0.24558782496E+03  0.24558782496E+03  0.00000000000E+00 0. -1.
         -2   -1    0    0    0  501 -0.00000000000E+00 -0.00000000000E+00 -0.12413242722E+02  0.12413242722E+02  0.00000000000E+00 0.  1.
         23    2    1    2    0    0 -0.82989972288E+01 -0.12860064350E+02  0.21572783023E+03  0.23479236746E+03  0.91404072528E+02 0.  0.
         11    1    3    3    0    0  0.25968129214E+02 -0.67070573436E+00  0.13414826992E+02  0.29236127724E+02  0.00000000000E+00 0.  1.
        -11    1    3    3    0    0 -0.34267126443E+02 -0.12189358616E+02  0.20231300323E+03  0.20555623974E+03  0.00000000000E+00 0. -1.
         22    1    1    2    0    0  0.82989972288E+01  0.12860064350E+02  0.17446752014E+02  0.23208700220E+02  0.00000000000E+00 0.  1.
<mgrwt>
<rscale>  0 0.59079759E+02</rscale>
<asrwt>0</asrwt>
<pdfrwt beam="1">  1        2 0.37782739E-01 0.92676637E+02</pdfrwt>
<pdfrwt beam="2">  1       -2 0.19097298E-02 0.92676637E+02</pdfrwt>
<totfact> 0.96713631E+04</totfact>
</mgrwt>
</event>
<event>
 6    1  0.1535970E-002  0.9694794E+02  0.7546771E-02  0.1360644E+00
          3   -1    0    0  501    0  0.00000000000E+00  0.00000000000E+00  0.24229310520E+02  0.24229310520E+02  0.00000000000E+00 0. -1.
         -3   -1    0    0    0  501 -0.00000000000E+00 -0.00000000000E+00 -0.17169648537E+03  0.17169648537E+03  0.00000000000E+00 0.  1.
         23    2    1    2    0    0 -0.12920409309E+02 -0.22685496686E+02 -0.13692276877E+03  0.16776992197E+03  0.93366660933E+02 0.  0.
         11    1    3    3    0    0 -0.22057701048E+02  0.30522072074E+02 -0.84534876987E+02  0.92543419466E+02  0.00000000000E+00 0.  1.
        -11    1    3    3    0    0  0.91372917394E+01 -0.53207568760E+02 -0.52387891783E+02  0.75226502505E+02  0.00000000000E+00 0. -1.
         22    1    1    2    0    0  0.12920409309E+02  0.22685496686E+02 -0.10544406080E+02  0.28155873920E+02  0.00000000000E+00 0.  1.
<mgrwt>
<rscale>  0 0.69838134E+02</rscale>
<asrwt>0</asrwt>
<pdfrwt beam="1">  1        3 0.37275863E-02 0.96947935E+02</pdfrwt>
<pdfrwt beam="2">  1       -3 0.26414844E-01 0.96947935E+02</pdfrwt>
<totfact> 0.10339292E+04</totfact>
</mgrwt>
</event>
<event>
 6    1  0.1535970E-002  0.9542030E+02  0.7546771E-02  0.1361731E+00
         -2   -1    0    0    0  501 -0.00000000000E+00  0.00000000000E+00  0.33229688450E+02  0.33229688450E+02  0.00000000000E+00 0.  1.
          2   -1    0    0  501    0  0.00000000000E+00 -0.00000000000E+00 -0.26354474913E+03  0.26354474913E+03  0.00000000000E+00 0. -1.
         23    2    1    2    0    0 -0.89454566186E+01  0.25354534477E+02 -0.24723323866E+03  0.26500812903E+03  0.91554139943E+02 0.  0.
         11    1    3    3    0    0 -0.27012977748E+02  0.45419278841E+02 -0.22147283154E+03  0.22769019954E+03  0.00000000000E+00 0. -1.
        -11    1    3    3    0    0  0.18067521130E+02 -0.20064744364E+02 -0.25760407118E+02  0.37317929485E+02  0.00000000000E+00 0.  1.
         22    1    1    2    0    0  0.89454566186E+01 -0.25354534477E+02  0.16918177981E+02  0.31766308550E+02  0.00000000000E+00 0.  1.
<mgrwt>
<rscale>  0 0.69520580E+02</rscale>
<asrwt>0</asrwt>
<pdfrwt beam="1">  1        2 0.40545347E-01 0.95420303E+02</pdfrwt>
<pdfrwt beam="2">  1       -2 0.51122597E-02 0.95420303E+02</pdfrwt>
<totfact> 0.21423801E+04</totfact>
</mgrwt>
</event>
<event>
 6    1  0.1535970E-002  0.9370618E+02  0.7546771E-02  0.1364072E+00
          1   -1    0    0  501    0  0.00000000000E+00  0.00000000000E+00  0.18521290253E+02  0.18521290253E+02  0.00000000000E+00 0. -1.
         -1   -1    0    0    0  501 -0.00000000000E+00 -0.00000000000E+00 -0.25980525761E+03  0.25980525761E+03  0.00000000000E+00 0.  1.
         23    2    1    2    0    0 -0.18368418046E+02  0.20194360692E+02 -0.11123992579E+03  0.14544816839E+03  0.89641718033E+02 0.  0.
         11    1    3    3    0    0 -0.47068452883E+02  0.36475601094E+02 -0.60234123821E+02  0.84699813486E+02  0.00000000000E+00 0. -1.
        -11    1    3    3    0    0  0.28700034837E+02 -0.16281240402E+02 -0.51005801972E+02  0.60748354904E+02  0.00000000000E+00 0.  1.
         22    1    1    2    0    0  0.18368418046E+02 -0.20194360692E+02 -0.13004404156E+03  0.13287837947E+03  0.00000000000E+00 0.  1.
<mgrwt>
<rscale>  0 0.68843206E+02</rscale>
<asrwt>0</asrwt>
<pdfrwt beam="1">  1        1 0.28494292E-02 0.93706182E+02</pdfrwt>
<pdfrwt beam="2">  1       -1 0.39970040E-01 0.93706182E+02</pdfrwt>
<totfact> 0.20151021E+04</totfact>
</mgrwt>
</event>
<event>
 6    1  0.1535970E-002  0.1222362E+03  0.7546771E-02  0.1333663E+00
         -2   -1    0    0    0  501 -0.00000000000E+00  0.00000000000E+00  0.60584823647E+01  0.60584823647E+01  0.00000000000E+00 0.  1.
          2   -1    0    0  501    0  0.00000000000E+00 -0.00000000000E+00 -0.86098204440E+03  0.86098204440E+03  0.00000000000E+00 0. -1.
         23    2    1    2    0    0  0.11716248699E+01 -0.20649010534E+02 -0.76954370639E+03  0.77919137144E+03  0.12047374380E+03 0.  0.
         13    1    3    3    0    0  0.12902625245E+02  0.40883159842E+02 -0.52517471959E+03  0.52692162282E+03  0.00000000000E+00 0. -1.
        -13    1    3    3    0    0 -0.11731000375E+02 -0.61532170376E+02 -0.24436898680E+03  0.25226974862E+03  0.00000000000E+00 0.  1.
         22    1    1    2    0    0 -0.11716248699E+01  0.20649010534E+02 -0.85379855640E+02  0.87849155318E+02  0.00000000000E+00 0. -1.
<mgrwt>
<rscale>  0 0.78396931E+02</rscale>
<asrwt>0</asrwt>
<pdfrwt beam="1">  1        2 0.13245877E+00 0.12223615E+03</pdfrwt>
<pdfrwt beam="2">  1       -2 0.93207424E-03 0.12223615E+03</pdfrwt>
<totfact> 0.70069502E+04</totfact>
</mgrwt>
</event>
<event>
 6    1  0.1535970E-002  0.9101231E+02  0.7546771E-02  0.1395617E+00
         -2   -1    0    0    0  501 -0.00000000000E+00  0.00000000000E+00  0.34107394221E+02  0.34107394221E+02  0.00000000000E+00 0.  1.
          2   -1    0    0  501    0  0.00000000000E+00 -0.00000000000E+00 -0.12975660626E+03  0.12975660626E+03  0.00000000000E+00 0. -1.
         23    2    1    2    0    0 -0.53622717876E+01  0.16981276873E+02 -0.10871122317E+03  0.14177930311E+03  0.89253140133E+02 0.  0.
         11    1    3    3    0    0 -0.81665959991E+01  0.42807544223E+02 -0.17536054517E+02  0.46975444017E+02  0.00000000000E+00 0.  1.
        -11    1    3    3    0    0  0.28043242115E+01 -0.25826267350E+02 -0.91175168654E+02  0.94803859091E+02  0.00000000000E+00 0. -1.
         22    1    1    2    0    0  0.53622717876E+01 -0.16981276873E+02  0.13062011136E+02  0.22084697369E+02  0.00000000000E+00 0.  1.
<mgrwt>
<rscale>  0 0.60530975E+02</rscale>
<asrwt>0</asrwt>
<pdfrwt beam="1">  1        2 0.19962555E-01 0.91012311E+02</pdfrwt>
<pdfrwt beam="2">  1       -2 0.52472914E-02 0.91012311E+02</pdfrwt>
<totfact> 0.44002217E+04</totfact>
</mgrwt>
</event>
<event>
 6    1  0.1535970E-002  0.8940303E+02  0.7546771E-02  0.1376626E+00
          2   -1    0    0  501    0  0.00000000000E+00  0.00000000000E+00  0.12778982726E+02  0.12778982726E+02  0.00000000000E+00 0. -1.
         -2   -1    0    0    0  501 -0.00000000000E+00 -0.00000000000E+00 -0.25898601674E+03  0.25898601674E+03  0.00000000000E+00 0.  1.
         23    2    1    2    0    0 -0.83581162839E+01 -0.24130411617E+02 -0.18625017043E+03  0.20659629253E+03  0.85678277473E+02 0.  0.
         13    1    3    3    0    0  0.39026818897E+01 -0.41741001272E+02 -0.17915599592E+03  0.18399568741E+03  0.00000000000E+00 0.  1.
        -13    1    3    3    0    0 -0.12260798174E+02  0.17610589655E+02 -0.70941745131E+01  0.22600605122E+02  0.00000000000E+00 0. -1.
         22    1    1    2    0    0  0.83581162839E+01  0.24130411617E+02 -0.59956863586E+02  0.65168706936E+02  0.00000000000E+00 0.  1.
<mgrwt>
<rscale>  0 0.65359145E+02</rscale>
<asrwt>0</asrwt>
<pdfrwt beam="1">  1        2 0.19659975E-02 0.89403032E+02</pdfrwt>
<pdfrwt beam="2">  1       -2 0.39843999E-01 0.89403032E+02</pdfrwt>
<totfact> 0.29261861E+04</totfact>
</mgrwt>
</event>
<event>
 6    1  0.1535970E-002  0.9108475E+02  0.7546771E-02  0.1426462E+00
          2   -1    0    0  501    0  0.00000000000E+00  0.00000000000E+00  0.21542462240E+03  0.21542462240E+03  0.00000000000E+00 0. -1.
         -2   -1    0    0    0  501 -0.00000000000E+00 -0.00000000000E+00 -0.12488513202E+02  0.12488513202E+02  0.00000000000E+00 0.  1.
         23    2    1    2    0    0 -0.88041717777E+01  0.65696800361E+01  0.19148614560E+03  0.21204569085E+03  0.90419892257E+02 0.  0.
         13    1    3    3    0    0 -0.20546425471E+02  0.23114055227E+01  0.19722077758E+03  0.19830162204E+03  0.00000000000E+00 0. -1.
        -13    1    3    3    0    0  0.11742253693E+02  0.42582745134E+01 -0.57346319774E+01  0.13744068813E+02  0.00000000000E+00 0.  1.
         22    1    1    2    0    0  0.88041717777E+01 -0.65696800361E+01  0.11449963597E+02  0.15867444748E+02  0.00000000000E+00 0.  1.
<mgrwt>
<rscale>  0 0.53676726E+02</rscale>
<asrwt>0</asrwt>
<pdfrwt beam="1">  1        2 0.33142247E-01 0.91084747E+02</pdfrwt>
<pdfrwt beam="2">  1       -2 0.19213099E-02 0.91084747E+02</pdfrwt>
<totfact> 0.10983484E+05</totfact>
</mgrwt>
</event>
<event>
 6    1  0.1535970E-002  0.9179669E+02  0.7546771E-02  0.1431099E+00
          2   -1    0    0  501    0  0.00000000000E+00  0.00000000000E+00  0.26374004615E+02  0.26374004615E+02  0.00000000000E+00 0.  1.
         -2   -1    0    0    0  501 -0.00000000000E+00 -0.00000000000E+00 -0.98233694550E+02  0.98233694550E+02  0.00000000000E+00 0. -1.
         23    2    1    2    0    0 -0.33057804225E+01 -0.94398198992E+01 -0.64596482256E+02  0.11224677000E+03  0.91250169713E+02 0.  0.
         13    1    3    3    0    0  0.73188442335E+01  0.10422531885E+02 -0.82497366492E+02  0.83474607696E+02  0.00000000000E+00 0. -1.
        -13    1    3    3    0    0 -0.10624624656E+02 -0.19862351784E+02  0.17900884236E+02  0.28772162309E+02  0.00000000000E+00 0.  1.
         22    1    1    2    0    0  0.33057804225E+01  0.94398198992E+01 -0.72632076785E+01  0.12360929161E+02  0.00000000000E+00 0.  1.
<mgrwt>
<rscale>  0 0.52740117E+02</rscale>
<asrwt>0</asrwt>
<pdfrwt beam="1">  1        2 0.40575392E-02 0.91796688E+02</pdfrwt>
<pdfrwt beam="2">  1       -2 0.15112876E-01 0.91796688E+02</pdfrwt>
<totfact> 0.60098657E+04</totfact>
</mgrwt>
</event>
<event>
 6    1  0.1535970E-002  0.9337671E+02  0.7546771E-02  0.1399225E+00
         -2   -1    0    0    0  501 -0.00000000000E+00  0.00000000000E+00  0.58817383714E+02  0.58817383714E+02  0.00000000000E+00 0.  1.
          2   -1    0    0  501    0  0.00000000000E+00 -0.00000000000E+00 -0.57348685857E+02  0.57348685857E+02  0.00000000000E+00 0. -1.
         23    2    1    2    0    0  0.13951410550E+02 -0.69121217852E+01 -0.13762120872E+02  0.94385410191E+02  0.92069486813E+02 0.  0.
         11    1    3    3    0    0  0.33712561466E+02 -0.31444919701E+02 -0.33699164613E+02  0.57104758744E+02  0.00000000000E+00 0. -1.
        -11    1    3    3    0    0 -0.19761150916E+02  0.24532797916E+02  0.19937043741E+02  0.37280651446E+02  0.00000000000E+00 0.  1.
         22    1    1    2    0    0 -0.13951410550E+02  0.69121217852E+01  0.15230818729E+02  0.21780659381E+02  0.00000000000E+00 0. -1.
<mgrwt>
<rscale>  0 0.59669145E+02</rscale>
<asrwt>0</asrwt>
<pdfrwt beam="1">  1        2 0.88228748E-02 0.93376708E+02</pdfrwt>
<pdfrwt beam="2">  1       -2 0.90488282E-02 0.93376708E+02</pdfrwt>
<totfact> 0.50436240E+04</totfact>
</mgrwt>
</event>
<event>
 6    1  0.1535970E-002  0.9395171E+02  0.7546771E-02  0.1390462E+00
          2   -1    0    0  501    0  0.00000000000E+00  0.00000000000E+00  0.12118708419E+04  0.12118708419E+04  0.00000000000E+00 0. -1.
         -2   -1    0    0    0  501 -0.00000000000E+00 -0.00000000000E+00 -0.61153490334E+01  0.61153490334E+01  0.00000000000E+00 0.  1.
         23    2    1    2    0    0  0.10590250997E+02  0.14031897179E+02  0.11919145990E+04  0.11956116989E+04  0.92292336975E+02 0.  0.
         13    1    3    3    0    0 -0.14698584094E+02  0.39252487377E+02  0.29245475192E+03  0.29544303691E+03  0.00000000000E+00 0.  1.
        -13    1    3    3    0    0  0.25288835091E+02 -0.25220590197E+02  0.89945984713E+03  0.90016866194E+03  0.00000000000E+00 0. -1.
         22    1    1    2    0    0 -0.10590250997E+02 -0.14031897179E+02  0.13840893856E+02  0.22374492114E+02  0.00000000000E+00 0.  1.
<mgrwt>
<rscale>  0 0.61791917E+02</rscale>
<asrwt>0</asrwt>
<pdfrwt beam="1">  1        2 0.18644148E+00 0.93951706E+02</pdfrwt>
<pdfrwt beam="2">  1       -2 0.94082389E-03 0.93951706E+02</pdfrwt>
<totfact> 0.41929205E+04</totfact>
</mgrwt>
</event>
<event>
 6    1  0.1535970E-002  0.9167176E+02  0.7546771E-02  0.1416454E+00
          2   -1    0    0  501    0  0.00000000000E+00  0.00000000000E+00  0.65056417319E+02  0.65056417319E+02  0.00000000000E+00 0. -1.
         -2   -1    0    0    0  501 -0.00000000000E+00 -0.00000000000E+00 -0.43344057438E+02  0.43344057438E+02  0.00000000000E+00 0.  1.
         23    2    1    2    0    0  0.11987374866E+02 -0.37651612283E+01  0.25720943261E+02  0.95211754730E+02  0.90806595142E+02 0.  0.
         11    1    3    3    0    0 -0.85984430672E+01 -0.16189084792E+02  0.54622414780E+02  0.57616212006E+02  0.00000000000E+00 0. -1.
        -11    1    3    3    0    0  0.20585817934E+02  0.12423923564E+02 -0.28901471519E+02  0.37595542724E+02  0.00000000000E+00 0.  1.
         22    1    1    2    0    0 -0.11987374866E+02  0.37651612283E+01 -0.40085833796E+01  0.13188720028E+02  0.00000000000E+00 0. -1.
<mgrwt>
<rscale>  0 0.55778311E+02</rscale>
<asrwt>0</asrwt>
<pdfrwt beam="1">  1        2 0.10008680E-01 0.91671759E+02</pdfrwt>
<pdfrwt beam="2">  1       -2 0.66683165E-02 0.91671759E+02</pdfrwt>
<totfact> 0.68723486E+04</totfact>
</mgrwt>
</event>
<event>
 6    1  0.1535970E-002  0.9305086E+02  0.7546771E-02  0.1377811E+00
          2   -1    0    0  501    0  0.00000000000E+00  0.00000000000E+00  0.17367738555E+03  0.17367738555E+03  0.00000000000E+00 0. -1.
         -2   -1    0    0    0  501 -0.00000000000E+00 -0.00000000000E+00 -0.43366798412E+02  0.43366798412E+02  0.00000000000E+00 0.  1.
         23    2    1    2    0    0 -0.14461740086E+02  0.16862348850E+02  0.15688707883E+03  0.18240618971E+03  0.90360288870E+02 0.  0.
         11    1    3    3    0    0 -0.52277915729E+02  0.37320718527E+01  0.78486479078E+02  0.94377095904E+02  0.00000000000E+00 0.  1.
        -11    1    3    3    0    0  0.37816175643E+02  0.13130276997E+02  0.78400599751E+02  0.88029093802E+02  0.00000000000E+00 0. -1.
         22    1    1    2    0    0  0.14461740086E+02 -0.16862348850E+02 -0.26576491694E+02  0.34637994252E+02  0.00000000000E+00 0.  1.
<mgrwt>
<rscale>  0 0.65042776E+02</rscale>
<asrwt>0</asrwt>
<pdfrwt beam="1">  1        2 0.26719597E-01 0.93050860E+02</pdfrwt>
<pdfrwt beam="2">  1       -2 0.66718152E-02 0.93050860E+02</pdfrwt>
<totfact> 0.22335547E+04</totfact>
</mgrwt>
</event>
<event>
 6    1  0.1535970E-002  0.9790402E+02  0.7546771E-02  0.1335667E+00
         -2   -1    0    0    0  501 -0.00000000000E+00  0.00000000000E+00  0.50958000842E+02  0.50958000842E+02  0.00000000000E+00 0.  1.
          2   -1    0    0  501    0  0.00000000000E+00 -0.00000000000E+00 -0.22517213947E+03  0.22517213947E+03  0.00000000000E+00 0. -1.
         23    2    1    2    0    0  0.38382824353E+02  0.61234146670E+01 -0.20458436979E+03  0.22680379489E+03  0.89857996877E+02 0.  0.
         13    1    3    3    0    0  0.38845133623E+02  0.12013921275E+02 -0.21281913285E+03  0.21666855337E+03  0.00000000000E+00 0. -1.
        -13    1    3    3    0    0 -0.46230926992E+00 -0.58905066083E+01  0.82347630653E+01  0.10135241522E+02  0.00000000000E+00 0.  1.
         22    1    1    2    0    0 -0.38382824353E+02 -0.61234146670E+01  0.30370231156E+02  0.49326345425E+02  0.00000000000E+00 0.  1.
<mgrwt>
<rscale>  0 0.77713956E+02</rscale>
<asrwt>0</asrwt>
<pdfrwt beam="1">  1        2 0.34641868E-01 0.97904019E+02</pdfrwt>
<pdfrwt beam="2">  1       -2 0.78396923E-02 0.97904019E+02</pdfrwt>
<totfact> 0.13306685E+04</totfact>
</mgrwt>
</event>
<event>
 6    1  0.1535970E-002  0.9261989E+02  0.7546771E-02  0.1381751E+00
          2   -1    0    0  501    0  0.00000000000E+00  0.00000000000E+00  0.24406205225E+03  0.24406205225E+03  0.00000000000E+00 0. -1.
         -2   -1    0    0    0  501 -0.00000000000E+00 -0.00000000000E+00 -0.14581058799E+02  0.14581058799E+02  0.00000000000E+00 0.  1.
         23    2    1    2    0    0 -0.12739588768E+02 -0.16849320429E+02  0.21154445889E+03  0.23093181384E+03  0.90178976688E+02 0.  0.
         13    1    3    3    0    0  0.73768212775E+01 -0.49073422104E+02  0.15549849903E+03  0.16322500253E+03  0.00000000000E+00 0.  1.
        -13    1    3    3    0    0 -0.20116410046E+02  0.32224101675E+02  0.56045959856E+02  0.67706811312E+02  0.00000000000E+00 0. -1.
         22    1    1    2    0    0  0.12739588768E+02  0.16849320429E+02  0.17936534564E+02  0.27711297210E+02  0.00000000000E+00 0. -1.
<mgrwt>
<rscale>  0 0.64005752E+02</rscale>
<asrwt>0</asrwt>
<pdfrwt beam="1">  1        2 0.37548005E-01 0.92619893E+02</pdfrwt>
<pdfrwt beam="2">  1       -2 0.22432400E-02 0.92619893E+02</pdfrwt>
<totfact> 0.77223140E+04</totfact>
</mgrwt>
</event>
<event>
 6    1  0.1535970E-002  0.9380789E+02  0.7546771E-02  0.1373978E+00
          2   -1    0    0  501    0  0.00000000000E+00  0.00000000000E+00  0.15179163681E+04  0.15179163681E+04  0.00000000000E+00 0. -1.
         -2   -1    0    0    0  501 -0.00000000000E+00 -0.00000000000E+00 -0.49059592344E+01  0.49059592344E+01  0.00000000000E+00 0.  1.
         23    2    1    2    0    0  0.18386257753E+02 -0.13964751484E+02  0.14774437055E+04  0.14804187998E+04  0.90922225908E+02 0.  0.
         11    1    3    3    0    0 -0.31726582156E+02 -0.11873200526E+02  0.29985618051E+03  0.30176361261E+03  0.00000000000E+00 0.  1.
        -11    1    3    3    0    0  0.50112839910E+02 -0.20915509577E+01  0.11775875250E+04  0.11786551872E+04  0.00000000000E+00 0. -1.
         22    1    1    2    0    0 -0.18386257753E+02  0.13964751484E+02  0.35566703389E+02  0.42403527544E+02  0.00000000000E+00 0.  1.
<mgrwt>
<rscale>  0 0.66073517E+02</rscale>
<asrwt>0</asrwt>
<pdfrwt beam="1">  1        2 0.23352522E+00 0.93807888E+02</pdfrwt>
<pdfrwt beam="2">  1       -2 0.75476417E-03 0.93807888E+02</pdfrwt>
<totfact> 0.39566295E+04</totfact>
</mgrwt>
</event>
<event>
 6    1  0.1535970E-002  0.1055392E+03  0.7546771E-02  0.1305066E+00
         -2   -1    0    0    0  501 -0.00000000000E+00  0.00000000000E+00  0.10040456854E+02  0.10040456854E+02  0.00000000000E+00 0.  1.
          2   -1    0    0  501    0  0.00000000000E+00 -0.00000000000E+00 -0.79327945291E+03  0.79327945291E+03  0.00000000000E+00 0. -1.
         23    2    1    2    0    0  0.46683180290E+02  0.26324002470E+02 -0.66728433155E+03  0.67557893494E+03  0.90918896690E+02 0.  0.
         13    1    3    3    0    0  0.35575512434E+02  0.58245222001E+02 -0.52038416506E+03  0.52484073986E+03  0.00000000000E+00 0. -1.
        -13    1    3    3    0    0  0.11107667856E+02 -0.31921219531E+02 -0.14690016649E+03  0.15073819508E+03  0.00000000000E+00 0.  1.
         22    1    1    2    0    0 -0.46683180290E+02 -0.26324002470E+02 -0.11595466451E+03  0.12774097483E+03  0.00000000000E+00 0.  1.
<mgrwt>
<rscale>  0 0.89091954E+02</rscale>
<asrwt>0</asrwt>
<pdfrwt beam="1">  1        2 0.12204303E+00 0.10553918E+03</pdfrwt>
<pdfrwt beam="2">  1       -2 0.15446852E-02 0.10553918E+03</pdfrwt>
<totfact> 0.37124572E+04</totfact>
</mgrwt>
</event>
<event>
 6    1  0.1535970E-002  0.9231947E+02  0.7546771E-02  0.1411986E+00
         -2   -1    0    0    0  501 -0.00000000000E+00  0.00000000000E+00  0.68503197593E+02  0.68503197593E+02  0.00000000000E+00 0.  1.
          2   -1    0    0  501    0  0.00000000000E+00 -0.00000000000E+00 -0.40827068938E+02  0.40827068938E+02  0.00000000000E+00 0. -1.
         23    2    1    2    0    0  0.21880779733E+00 -0.13183036783E+02  0.21599875063E+02  0.94812649873E+02  0.91373101280E+02 0.  0.
         13    1    3    3    0    0  0.21405455074E+02  0.32321963500E+02 -0.30581501726E+01  0.38887724463E+02  0.00000000000E+00 0. -1.
        -13    1    3    3    0    0 -0.21186647276E+02 -0.45505000284E+02  0.24658025236E+02  0.55924925410E+02  0.00000000000E+00 0.  1.
         22    1    1    2    0    0 -0.21880779733E+00  0.13183036783E+02  0.60762535918E+01  0.14517616657E+02  0.00000000000E+00 0. -1.
<mgrwt>
<rscale>  0 0.56752995E+02</rscale>
<asrwt>0</asrwt>
<pdfrwt beam="1">  1        2 0.62810875E-02 0.92319467E+02</pdfrwt>
<pdfrwt beam="2">  1       -2 0.10538953E-01 0.92319467E+02</pdfrwt>
<totfact> 0.60749581E+04</totfact>
</mgrwt>
</event>
<event>
 6    1  0.1535970E-002  0.9721649E+02  0.7546771E-02  0.1402894E+00
          2   -1    0    0  501    0  0.00000000000E+00  0.00000000000E+00  0.52352579308E+03  0.52352579308E+03  0.00000000000E+00 0.  1.
         -2   -1    0    0    0  501 -0.00000000000E+00 -0.00000000000E+00 -0.10718624712E+02  0.10718624712E+02  0.00000000000E+00 0. -1.
         23    2    1    2    0    0 -0.11894666413E+02  0.52935492183E+01  0.51205657698E+03  0.52120340020E+03  0.96340757774E+02 0.  0.
         13    1    3    3    0    0  0.34444892368E+02  0.28433573220E+02  0.20504219537E+03  0.20985047196E+03  0.00000000000E+00 0.  1.
        -13    1    3    3    0    0 -0.46339558781E+02 -0.23140024002E+02  0.30701438160E+03  0.31135292825E+03  0.00000000000E+00 0. -1.
         22    1    1    2    0    0  0.11894666413E+02 -0.52935492183E+01  0.75059139716E+00  0.13041017592E+02  0.00000000000E+00 0. -1.
<mgrwt>
<rscale>  0 0.58810205E+02</rscale>
<asrwt>0</asrwt>
<pdfrwt beam="1">  1        2 0.80542410E-01 0.97216492E+02</pdfrwt>
<pdfrwt beam="2">  1       -2 0.16490196E-02 0.97216492E+02</pdfrwt>
<totfact> 0.53997354E+04</totfact>
</mgrwt>
</event>
<event>
 6    1  0.1535970E-002  0.8444521E+02  0.7546771E-02  0.1440525E+00
         -2   -1    0    0    0  501 -0.00000000000E+00  0.00000000000E+00  0.33266891536E+02  0.33266891536E+02  0.00000000000E+00 0.  1.
          2   -1    0    0  501    0  0.00000000000E+00 -0.00000000000E+00 -0.73662709416E+02  0.73662709416E+02  0.00000000000E+00 0. -1.
         23    2    1    2    0    0 -0.11143739650E+02  0.38199586346E+00 -0.43987677569E+02  0.95215066806E+02  0.83705820077E+02 0.  0.
         13    1    3    3    0    0  0.20038466731E+02 -0.33075557584E+02 -0.21569964829E+02  0.44280876698E+02  0.00000000000E+00 0.  1.
        -13    1    3    3    0    0 -0.31182206381E+02  0.33457553447E+02 -0.22417712740E+02  0.50934190108E+02  0.00000000000E+00 0. -1.
         22    1    1    2    0    0  0.11143739650E+02 -0.38199586346E+00  0.35918596886E+01  0.11714534146E+02  0.00000000000E+00 0. -1.
<mgrwt>
<rscale>  0 0.50904098E+02</rscale>
<asrwt>0</asrwt>
<pdfrwt beam="1">  1        2 0.11332725E-01 0.84445208E+02</pdfrwt>
<pdfrwt beam="2">  1       -2 0.51179833E-02 0.84445208E+02</pdfrwt>
<totfact> 0.86846646E+04</totfact>
</mgrwt>
</event>
<event>
 6    1  0.1535970E-002  0.9360321E+02  0.7546771E-02  0.1403615E+00
          2   -1    0    0  501    0  0.00000000000E+00  0.00000000000E+00  0.54453943894E+03  0.54453943894E+03  0.00000000000E+00 0. -1.
         -2   -1    0    0    0  501 -0.00000000000E+00 -0.00000000000E+00 -0.78005783875E+01  0.78005783875E+01  0.00000000000E+00 0.  1.
         23    2    1    2    0    0 -0.13005402805E+01  0.14362505125E+02  0.52624511354E+03  0.53450489230E+03  0.92485606484E+02 0.  0.
         13    1    3    3    0    0 -0.23176820546E+02 -0.52062507263E-01  0.48557058866E+03  0.48612340438E+03  0.00000000000E+00 0. -1.
        -13    1    3    3    0    0  0.21876280266E+02  0.14414567632E+02  0.40674524885E+02  0.48381487915E+02  0.00000000000E+00 0.  1.
         22    1    1    2    0    0  0.13005402805E+01 -0.14362505125E+02  0.10493747014E+02  0.17835125031E+02  0.00000000000E+00 0. -1.
<mgrwt>
<rscale>  0 0.58643368E+02</rscale>
<asrwt>0</asrwt>
<pdfrwt beam="1">  1        2 0.83775268E-01 0.93603207E+02</pdfrwt>
<pdfrwt beam="2">  1       -2 0.12000894E-02 0.93603207E+02</pdfrwt>
<totfact> 0.80988704E+04</totfact>
</mgrwt>
</event>
<event>
 6    1  0.1535970E-002  0.9322903E+02  0.7546771E-02  0.1409908E+00
          2   -1    0    0  501    0  0.00000000000E+00  0.00000000000E+00  0.13012468102E+03  0.13012468102E+03  0.00000000000E+00 0. -1.
         -2   -1    0    0    0  501 -0.00000000000E+00 -0.00000000000E+00 -0.23265751799E+02  0.23265751799E+02  0.00000000000E+00 0.  1.
         23    2    1    2    0    0 -0.85132361712E+01  0.10119446729E+02  0.10434959356E+03  0.13993030066E+03  0.92286363969E+02 0.  0.
         11    1    3    3    0    0  0.24436545698E+02 -0.88276822043E+01  0.98011037526E+02  0.10139643098E+03  0.00000000000E+00 0. -1.
        -11    1    3    3    0    0 -0.32949781870E+02  0.18947128934E+02  0.63385560384E+01  0.38533869683E+02  0.00000000000E+00 0.  1.
         22    1    1    2    0    0  0.85132361712E+01 -0.10119446729E+02  0.25093356574E+01  0.13460132156E+02  0.00000000000E+00 0.  1.
<mgrwt>
<rscale>  0 0.57214404E+02</rscale>
<asrwt>0</asrwt>
<pdfrwt beam="1">  1        2 0.20019181E-01 0.93229026E+02</pdfrwt>
<pdfrwt beam="2">  1       -2 0.35793465E-02 0.93229026E+02</pdfrwt>
<totfact> 0.77411125E+04</totfact>
</mgrwt>
</event>
<event>
 6    1  0.1535970E-002  0.1186353E+03  0.7546771E-02  0.1309243E+00
          2   -1    0    0  501    0  0.00000000000E+00  0.00000000000E+00  0.54085113824E+03  0.54085113824E+03  0.00000000000E+00 0. -1.
         -2   -1    0    0    0  501 -0.00000000000E+00 -0.00000000000E+00 -0.13324916039E+02  0.13324916039E+02  0.00000000000E+00 0.  1.
         23    2    1    2    0    0 -0.34959173755E+02 -0.67454989980E+00  0.48408986182E+03  0.49841481101E+03  0.11336547391E+03 0.  0.
         13    1    3    3    0    0 -0.52585541469E+01  0.37935103165E+02  0.57710987469E+02  0.69262417793E+02  0.00000000000E+00 0.  1.
        -13    1    3    3    0    0 -0.29700619608E+02 -0.38609653065E+02  0.42637887435E+03  0.42915239322E+03  0.00000000000E+00 0. -1.
         22    1    1    2    0    0  0.34959173755E+02  0.67454989980E+00  0.43436360377E+02  0.55761243261E+02  0.00000000000E+00 0. -1.
<mgrwt>
<rscale>  0 0.87411967E+02</rscale>
<asrwt>0</asrwt>
<pdfrwt beam="1">  1        2 0.83207850E-01 0.11863528E+03</pdfrwt>
<pdfrwt beam="2">  1       -2 0.20499875E-02 0.11863528E+03</pdfrwt>
<totfact> 0.38965414E+04</totfact>
</mgrwt>
</event>
<event>
 6    1  0.1535970E-002  0.9029976E+02  0.7546771E-02  0.1394651E+00
         -2   -1    0    0    0  501 -0.00000000000E+00  0.00000000000E+00  0.24675240958E+02  0.24675240958E+02  0.00000000000E+00 0.  1.
          2   -1    0    0  501    0  0.00000000000E+00 -0.00000000000E+00 -0.12162105874E+03  0.12162105874E+03  0.00000000000E+00 0. -1.
         23    2    1    2    0    0 -0.14657448157E+02  0.11313367775E+02 -0.86460172402E+02  0.12501762878E+03  0.88381067075E+02 0.  0.
         11    1    3    3    0    0 -0.58545950114E+01  0.45248653086E+02 -0.19874848618E+02  0.49766720772E+02  0.00000000000E+00 0.  1.
        -11    1    3    3    0    0 -0.88028531454E+01 -0.33935285311E+02 -0.66585323784E+02  0.75250908008E+02  0.00000000000E+00 0. -1.
         22    1    1    2    0    0  0.14657448157E+02 -0.11313367775E+02 -0.10485645376E+02  0.21278670913E+02  0.00000000000E+00 0.  1.
<mgrwt>
<rscale>  0 0.60764549E+02</rscale>
<asrwt>0</asrwt>
<pdfrwt beam="1">  1        2 0.18710932E-01 0.90299757E+02</pdfrwt>
<pdfrwt beam="2">  1       -2 0.37961909E-02 0.90299757E+02</pdfrwt>
<totfact> 0.76250539E+04</totfact>
</mgrwt>
</event>
<event>
 6    1  0.1535970E-002  0.9388815E+02  0.7546771E-02  0.1374611E+00
         -2   -1    0    0    0  501 -0.00000000000E+00  0.00000000000E+00  0.17203819155E+02  0.17203819155E+02  0.00000000000E+00 0.  1.
          2   -1    0    0  501    0  0.00000000000E+00 -0.00000000000E+00 -0.22592066958E+03  0.22592066958E+03  0.00000000000E+00 0. -1.
         23    2    1    2    0    0  0.16640107187E+01  0.22729852447E+02 -0.19525421783E+03  0.21665455106E+03  0.91080018624E+02 0.  0.
         11    1    3    3    0    0  0.82919283834E+01 -0.14146398985E+02  0.14054843506E+01  0.16457583870E+02  0.00000000000E+00 0.  1.
        -11    1    3    3    0    0 -0.66279176646E+01  0.36876251433E+02 -0.19665970218E+03  0.20019696719E+03  0.00000000000E+00 0. -1.
         22    1    1    2    0    0 -0.16640107187E+01 -0.22729852447E+02 -0.13462632598E+02  0.26469937673E+02  0.00000000000E+00 0.  1.
<mgrwt>
<rscale>  0 0.65901821E+02</rscale>
<asrwt>0</asrwt>
<pdfrwt beam="1">  1        2 0.34757023E-01 0.93888151E+02</pdfrwt>
<pdfrwt beam="2">  1       -2 0.26467416E-02 0.93888151E+02</pdfrwt>
<totfact> 0.66095312E+04</totfact>
</mgrwt>
</event>
<event>
 6    1  0.1535970E-002  0.9489440E+02  0.7546771E-02  0.1366170E+00
         -2   -1    0    0    0  501 -0.00000000000E+00  0.00000000000E+00  0.11454723830E+02  0.11454723830E+02  0.00000000000E+00 0.  1.
          2   -1    0    0  501    0  0.00000000000E+00 -0.00000000000E+00 -0.90874634731E+03  0.90874634731E+03  0.00000000000E+00 0. -1.
         23    2    1    2    0    0  0.24190149288E+02 -0.76861531033E+01 -0.88817746494E+03  0.89323241974E+03  0.91436897256E+02 0.  0.
         13    1    3    3    0    0  0.21616366504E+02 -0.35118248416E+02 -0.18608544862E+03  0.19059998127E+03  0.00000000000E+00 0.  1.
        -13    1    3    3    0    0  0.25737827846E+01  0.27432095313E+02 -0.70209201632E+03  0.70263243848E+03  0.00000000000E+00 0. -1.
         22    1    1    2    0    0 -0.24190149288E+02  0.76861531033E+01 -0.91141585351E+01  0.26968651392E+02  0.00000000000E+00 0.  1.
<mgrwt>
<rscale>  0 0.68243518E+02</rscale>
<asrwt>0</asrwt>
<pdfrwt beam="1">  1        2 0.13980717E+00 0.94894396E+02</pdfrwt>
<pdfrwt beam="2">  1       -2 0.17622647E-02 0.94894396E+02</pdfrwt>
<totfact> 0.25639775E+04</totfact>
</mgrwt>
</event>
<event>
 6    1  0.1535970E-002  0.9572959E+02  0.7546771E-02  0.1346572E+00
         -1   -1    0    0    0  501 -0.00000000000E+00  0.00000000000E+00  0.87309732538E+03  0.87309732538E+03  0.00000000000E+00 0.  1.
          1   -1    0    0  501    0  0.00000000000E+00 -0.00000000000E+00 -0.61382262274E+01  0.61382262274E+01  0.00000000000E+00 0. -1.
         23    2    1    2    0    0  0.15853352513E+02 -0.30564022432E+02  0.77763707306E+03  0.78350722456E+03  0.89323374854E+02 0.  0.
         11    1    3    3    0    0 -0.23424655227E+02  0.89161609761E+01  0.84562672885E+02  0.88198968500E+02  0.00000000000E+00 0. -1.
        -11    1    3    3    0    0  0.39278007740E+02 -0.39480183409E+02  0.69307440017E+03  0.69530825606E+03  0.00000000000E+00 0.  1.
         22    1    1    2    0    0 -0.15853352513E+02  0.30564022432E+02  0.89322026102E+02  0.95728327051E+02  0.00000000000E+00 0. -1.
<mgrwt>
<rscale>  0 0.74134744E+02</rscale>
<asrwt>0</asrwt>
<pdfrwt beam="1">  1        1 0.94434319E-03 0.95729586E+02</pdfrwt>
<pdfrwt beam="2">  1       -1 0.13432257E+00 0.95729586E+02</pdfrwt>
<totfact> 0.80826342E+03</totfact>
</mgrwt>
</event>
<event>
 6    1  0.1535970E-002  0.9742736E+02  0.7546771E-02  0.1347487E+00
         -1   -1    0    0    0  501 -0.00000000000E+00  0.00000000000E+00  0.71389864522E+01  0.71389864522E+01  0.00000000000E+00 0.  1.
          1   -1    0    0  501    0  0.00000000000E+00 -0.00000000000E+00 -0.58828605748E+03  0.58828605748E+03  0.00000000000E+00 0. -1.
         23    2    1    2    0    0 -0.31659221468E+02  0.56165956134E+01 -0.44243411438E+03  0.45303425493E+03  0.91968680124E+02 0.  0.
         13    1    3    3    0    0  0.13910538431E+02 -0.32685364077E+02 -0.11984596068E+03  0.12499956158E+03  0.00000000000E+00 0. -1.
        -13    1    3    3    0    0 -0.45569759900E+02  0.38301959691E+02 -0.32258815370E+03  0.32803469335E+03  0.00000000000E+00 0.  1.
         22    1    1    2    0    0  0.31659221468E+02 -0.56165956134E+01 -0.13871295664E+03  0.14239078900E+03  0.00000000000E+00 0.  1.
<mgrwt>
<rscale>  0 0.73844478E+02</rscale>
<asrwt>0</asrwt>
<pdfrwt beam="1">  1        1 0.90505563E-01 0.97427361E+02</pdfrwt>
<pdfrwt beam="2">  1       -1 0.10983054E-02 0.97427361E+02</pdfrwt>
<totfact> 0.53023492E+04</totfact>
</mgrwt>
</event>
<event>
 6    1  0.1535970E-002  0.8744152E+02  0.7546771E-02  0.1439985E+00
          2   -1    0    0  501    0  0.00000000000E+00  0.00000000000E+00  0.34053959824E+02  0.34053959824E+02  0.00000000000E+00 0. -1.
         -2   -1    0    0    0  501 -0.00000000000E+00 -0.00000000000E+00 -0.71520568182E+02  0.71520568182E+02  0.00000000000E+00 0.  1.
         23    2    1    2    0    0 -0.84840335722E+01  0.55247770675E+01 -0.28272782558E+02  0.91898694571E+02  0.86853427353E+02 0.  0.
         13    1    3    3    0    0 -0.86008772280E+00 -0.21715480992E+02 -0.51113225294E+02  0.55541549003E+02  0.00000000000E+00 0.  1.
        -13    1    3    3    0    0 -0.76239458494E+01  0.27240258060E+02  0.22840442736E+02  0.36357145568E+02  0.00000000000E+00 0. -1.
         22    1    1    2    0    0  0.84840335722E+01 -0.55247770675E+01 -0.91938257995E+01  0.13675833435E+02  0.00000000000E+00 0. -1.
<mgrwt>
<rscale>  0 0.51007004E+02</rscale>
<asrwt>0</asrwt>
<pdfrwt beam="1">  1        2 0.52390708E-02 0.87441522E+02</pdfrwt>
<pdfrwt beam="2">  1       -2 0.11003164E-01 0.87441522E+02</pdfrwt>
<totfact> 0.70988223E+04</totfact>
</mgrwt>
</event>
<event>
 6    1  0.1535970E-002  0.9326713E+02  0.7546771E-02  0.1397246E+00
          1   -1    0    0  501    0  0.00000000000E+00  0.00000000000E+00  0.15808304764E+03  0.15808304764E+03  0.00000000000E+00 0. -1.
         -1   -1    0    0    0  501 -0.00000000000E+00 -0.00000000000E+00 -0.19790965801E+02  0.19790965801E+02  0.00000000000E+00 0.  1.
         23    2    1    2    0    0  0.74819341731E+01 -0.14282427561E+02  0.12925263300E+03  0.15938946012E+03  0.91862885792E+02 0.  0.
         11    1    3    3    0    0  0.37473222982E+02 -0.23573452233E+02  0.25719060300E+02  0.51199806186E+02  0.00000000000E+00 0.  1.
        -11    1    3    3    0    0 -0.29991288809E+02  0.92910246713E+01  0.10353357270E+03  0.10818965394E+03  0.00000000000E+00 0. -1.
         22    1    1    2    0    0 -0.74819341731E+01  0.14282427561E+02  0.90394488448E+01  0.18484553320E+02  0.00000000000E+00 0.  1.
<mgrwt>
<rscale>  0 0.60139698E+02</rscale>
<asrwt>0</asrwt>
<pdfrwt beam="1">  1        1 0.24320468E-01 0.93267126E+02</pdfrwt>
<pdfrwt beam="2">  1       -1 0.30447641E-02 0.93267126E+02</pdfrwt>
<totfact> 0.63185773E+04</totfact>
</mgrwt>
</event>
<event>
 6    1  0.1535970E-002  0.9066498E+02  0.7546771E-02  0.1411365E+00
          2   -1    0    0  501    0  0.00000000000E+00  0.00000000000E+00  0.56912618404E+02  0.56912618404E+02  0.00000000000E+00 0. -1.
         -2   -1    0    0    0  501 -0.00000000000E+00 -0.00000000000E+00 -0.57206618981E+02  0.57206618981E+02  0.00000000000E+00 0.  1.
         23    2    1    2    0    0  0.13212163536E+02  0.47941683622E+01  0.16569360029E+02  0.92166600948E+02  0.89568930567E+02 0.  0.
         13    1    3    3    0    0 -0.34340565423E+02 -0.12618534826E+02 -0.53705380244E+01  0.36977622063E+02  0.00000000000E+00 0. -1.
        -13    1    3    3    0    0  0.47552728959E+02  0.17412703188E+02  0.21939898054E+02  0.55188978886E+02  0.00000000000E+00 0.  1.
         22    1    1    2    0    0 -0.13212163536E+02 -0.47941683622E+01 -0.16863360606E+02  0.21952636437E+02  0.00000000000E+00 0.  1.
<mgrwt>
<rscale>  0 0.56890273E+02</rscale>
<asrwt>0</asrwt>
<pdfrwt beam="1">  1        2 0.87557875E-02 0.90664980E+02</pdfrwt>
<pdfrwt beam="2">  1       -2 0.88010183E-02 0.90664980E+02</pdfrwt>
<totfact> 0.52920621E+04</totfact>
</mgrwt>
</event>
<event>
 6    1  0.1535970E-002  0.9309502E+02  0.7546771E-02  0.1420734E+00
         -2   -1    0    0    0  501 -0.00000000000E+00  0.00000000000E+00  0.22755976213E+02  0.22755976213E+02  0.00000000000E+00 0.  1.
          2   -1    0    0  501    0  0.00000000000E+00 -0.00000000000E+00 -0.72948598021E+03  0.72948598021E+03  0.00000000000E+00 0. -1.
         23    2    1    2    0    0 -0.95943317910E+01 -0.58387596889E+01 -0.72491497147E+03  0.73086824923E+03  0.92415039631E+02 0.  0.
         13    1    3    3    0    0  0.38578133752E+02  0.52145004343E+01 -0.43808282268E+03  0.43980907556E+03  0.00000000000E+00 0. -1.
        -13    1    3    3    0    0 -0.48172465543E+02 -0.11053260123E+02 -0.28683214879E+03  0.29105917367E+03  0.00000000000E+00 0.  1.
         22    1    1    2    0    0  0.95943317910E+01  0.58387596889E+01  0.18184967473E+02  0.21373707194E+02  0.00000000000E+00 0.  1.
<mgrwt>
<rscale>  0 0.54865889E+02</rscale>
<asrwt>0</asrwt>
<pdfrwt beam="1">  1        2 0.11222862E+00 0.93095015E+02</pdfrwt>
<pdfrwt beam="2">  1       -2 0.35009193E-02 0.93095015E+02</pdfrwt>
<totfact> 0.12431487E+04</totfact>
</mgrwt>
</event>
<event>
 6    1  0.1535970E-002  0.1041752E+03  0.7546771E-02  0.1308229E+00
         -2   -1    0    0    0  501 -0.00000000000E+00  0.00000000000E+00  0.52060268653E+03  0.52060268653E+03  0.00000000000E+00 0.  1.
          2   -1    0    0  501    0  0.00000000000E+00 -0.00000000000E+00 -0.18087966843E+02  0.18087966843E+02  0.00000000000E+00 0. -1.
         23    2    1    2    0    0  0.49977228598E+02  0.16407822299E+02  0.45825138358E+03  0.46994341391E+03  0.89919640295E+02 0.  0.
         13    1    3    3    0    0  0.33699013707E+01  0.44662335372E+02  0.13797637208E+03  0.14506398481E+03  0.00000000000E+00 0. -1.
        -13    1    3    3    0    0  0.46607327228E+02 -0.28254513073E+02  0.32027501150E+03  0.32487942910E+03  0.00000000000E+00 0.  1.
         22    1    1    2    0    0 -0.49977228598E+02 -0.16407822299E+02  0.44263336108E+02  0.68747239467E+02  0.00000000000E+00 0. -1.
<mgrwt>
<rscale>  0 0.87815942E+02</rscale>
<asrwt>0</asrwt>
<pdfrwt beam="1">  1        2 0.27827645E-02 0.10417525E+03</pdfrwt>
<pdfrwt beam="2">  1       -2 0.80092710E-01 0.10417525E+03</pdfrwt>
<totfact> 0.45628007E+03</totfact>
</mgrwt>
</event>
<event>
 6    1  0.1535970E-002  0.8442953E+02  0.7546771E-02  0.1415870E+00
         -4   -1    0    0    0  501 -0.00000000000E+00  0.00000000000E+00  0.33448701362E+02  0.33448701362E+02  0.00000000000E+00 0.  1.
          4   -1    0    0  501    0  0.00000000000E+00 -0.00000000000E+00 -0.75730265978E+02  0.75730265978E+02  0.00000000000E+00 0. -1.
         23    2    1    2    0    0  0.77958380394E+00  0.16210468653E+02 -0.35611135455E+02  0.91632410126E+02  0.82855045545E+02 0.  0.
         13    1    3    3    0    0 -0.29429618920E+02  0.36927789881E+02 -0.25335550768E+02  0.53587818280E+02  0.00000000000E+00 0. -1.
        -13    1    3    3    0    0  0.30209202724E+02 -0.20717321228E+02 -0.10275584687E+02  0.38044591847E+02  0.00000000000E+00 0.  1.
         22    1    1    2    0    0 -0.77958380394E+00 -0.16210468653E+02 -0.66704291616E+01  0.17546557214E+02  0.00000000000E+00 0.  1.
<mgrwt>
<rscale>  0 0.55904283E+02</rscale>
<asrwt>0</asrwt>
<pdfrwt beam="1">  1        4 0.11650810E-01 0.84429530E+02</pdfrwt>
<pdfrwt beam="2">  1       -4 0.51459541E-02 0.84429530E+02</pdfrwt>
<totfact> 0.18713426E+04</totfact>
</mgrwt>
</event>
<event>
 6    1  0.1535970E-002  0.9910813E+02  0.7546771E-02  0.1339491E+00
         -2   -1    0    0    0  501 -0.00000000000E+00  0.00000000000E+00  0.19583318939E+02  0.19583318939E+02  0.00000000000E+00 0.  1.
          2   -1    0    0  501    0  0.00000000000E+00 -0.00000000000E+00 -0.41334941311E+03  0.41334941311E+03  0.00000000000E+00 0. -1.
         23    2    1    2    0    0 -0.13296229258E+02 -0.32438993751E+02 -0.38393740525E+03  0.39652282743E+03  0.92700288572E+02 0.  0.
         11    1    3    3    0    0  0.18685220983E+02 -0.23049750599E+02 -0.34040346463E+03  0.34169423059E+03  0.00000000000E+00 0. -1.
        -11    1    3    3    0    0 -0.31981450241E+02 -0.93892431516E+01 -0.43533940618E+02  0.54828596847E+02  0.00000000000E+00 0.  1.
         22    1    1    2    0    0  0.13296229258E+02  0.32438993751E+02 -0.98286889240E+01  0.36409904614E+02  0.00000000000E+00 0.  1.
<mgrwt>
<rscale>  0 0.76432734E+02</rscale>
<asrwt>0</asrwt>
<pdfrwt beam="1">  1        2 0.63592215E-01 0.99108130E+02</pdfrwt>
<pdfrwt beam="2">  1       -2 0.30128184E-02 0.99108130E+02</pdfrwt>
<totfact> 0.29211803E+04</totfact>
</mgrwt>
</event>
<event>
 6    1  0.1535970E-002  0.9090818E+02  0.7546771E-02  0.1410614E+00
         -2   -1    0    0    0  501 -0.00000000000E+00  0.00000000000E+00  0.30113302560E+02  0.30113302560E+02  0.00000000000E+00 0.  1.
          2   -1    0    0  501    0  0.00000000000E+00 -0.00000000000E+00 -0.11210729417E+03  0.11210729417E+03  0.00000000000E+00 0. -1.
         23    2    1    2    0    0  0.12979089690E+01  0.14046972040E+02 -0.88332328509E+02  0.12675526434E+03  0.89806986290E+02 0.  0.
         11    1    3    3    0    0 -0.14506221145E+02  0.17571760656E+02  0.11565907565E+02  0.25553227629E+02  0.00000000000E+00 0.  1.
        -11    1    3    3    0    0  0.15804130113E+02 -0.35247886154E+01 -0.99898236074E+02  0.10120203671E+03  0.00000000000E+00 0. -1.
         22    1    1    2    0    0 -0.12979089690E+01 -0.14046972040E+02  0.63383369028E+01  0.15465332388E+02  0.00000000000E+00 0.  1.
<mgrwt>
<rscale>  0 0.57057060E+02</rscale>
<asrwt>0</asrwt>
<pdfrwt beam="1">  1        2 0.17247276E-01 0.90908178E+02</pdfrwt>
<pdfrwt beam="2">  1       -2 0.46328158E-02 0.90908178E+02</pdfrwt>
<totfact> 0.62412760E+04</totfact>
</mgrwt>
</event>
<event>
 6    1  0.1535970E-002  0.1051246E+03  0.7546771E-02  0.1397435E+00
          2   -1    0    0  501    0  0.00000000000E+00  0.00000000000E+00  0.35123990568E+03  0.35123990568E+03  0.00000000000E+00 0. -1.
         -2   -1    0    0    0  501 -0.00000000000E+00 -0.00000000000E+00 -0.12708724419E+02  0.12708724419E+02  0.00000000000E+00 0.  1.
         23    2    1    2    0    0 -0.73399765907E+01 -0.84940780050E+01  0.33650223356E+03  0.35254068347E+03  0.10452346957E+03 0.  0.
         13    1    3    3    0    0 -0.45466792166E+01 -0.43571695870E+02  0.29452577177E+03  0.29776600748E+03  0.00000000000E+00 0. -1.
        -13    1    3    3    0    0 -0.27932973741E+01  0.35077617865E+02  0.41976461791E+02  0.54774675990E+02  0.00000000000E+00 0.  1.
         22    1    1    2    0    0  0.73399765907E+01  0.84940780050E+01  0.20289476974E+01  0.11407946628E+02  0.00000000000E+00 0. -1.
<mgrwt>
<rscale>  0 0.60094562E+02</rscale>
<asrwt>0</asrwt>
<pdfrwt beam="1">  1        2 0.54036901E-01 0.10512459E+03</pdfrwt>
<pdfrwt beam="2">  1       -2 0.19551886E-02 0.10512459E+03</pdfrwt>
<totfact> 0.65365544E+04</totfact>
</mgrwt>
</event>
<event>
 6    1  0.1535970E-002  0.9132634E+02  0.7546771E-02  0.1417693E+00
         -2   -1    0    0    0  501 -0.00000000000E+00  0.00000000000E+00  0.58928350518E+02  0.58928350518E+02  0.00000000000E+00 0.  1.
          2   -1    0    0  501    0  0.00000000000E+00 -0.00000000000E+00 -0.49592997923E+02  0.49592997923E+02  0.00000000000E+00 0. -1.
         23    2    1    2    0    0  0.11748701447E+02  0.41702691765E+01 -0.24590510178E+01  0.91359440410E+02  0.90471416975E+02 0.  0.
         11    1    3    3    0    0  0.15277752991E+02 -0.41995849633E+02  0.27123581272E+01  0.44770727149E+02  0.00000000000E+00 0. -1.
        -11    1    3    3    0    0 -0.35290515444E+01  0.46166118810E+02 -0.51714091450E+01  0.46588713261E+02  0.00000000000E+00 0.  1.
         22    1    1    2    0    0 -0.11748701447E+02 -0.41702691765E+01  0.11794403613E+02  0.17161908031E+02  0.00000000000E+00 0. -1.
<mgrwt>
<rscale>  0 0.55511952E+02</rscale>
<asrwt>0</asrwt>
<pdfrwt beam="1">  1        2 0.76296920E-02 0.91326340E+02</pdfrwt>
<pdfrwt beam="2">  1       -2 0.90659001E-02 0.91326340E+02</pdfrwt>
<totfact> 0.60009148E+04</totfact>
</mgrwt>
</event>
<event>
 6    1  0.1535970E-002  0.9140283E+02  0.7546771E-02  0.1397662E+00
         -2   -1    0    0    0  501 -0.00000000000E+00  0.00000000000E+00  0.24867202371E+02  0.24867202371E+02  0.00000000000E+00 0. -1.
          2   -1    0    0  501    0  0.00000000000E+00 -0.00000000000E+00 -0.31908192616E+03  0.31908192616E+03  0.00000000000E+00 0.  1.
         23    2    1    2    0    0 -0.45097329402E+00 -0.17011700824E+02 -0.30848422541E+03  0.32174057121E+03  0.89804657406E+02 0.  0.
         13    1    3    3    0    0 -0.30155580443E+02 -0.40398856833E+02 -0.21646132490E+03  0.22225420545E+03  0.00000000000E+00 0.  1.
        -13    1    3    3    0    0  0.29704607149E+02  0.23387156010E+02 -0.92022900514E+02  0.99486365755E+02  0.00000000000E+00 0. -1.
         22    1    1    2    0    0  0.45097329402E+00  0.17011700824E+02  0.14269501622E+02  0.22208557323E+02  0.00000000000E+00 0. -1.
<mgrwt>
<rscale>  0 0.60040571E+02</rscale>
<asrwt>0</asrwt>
<pdfrwt beam="1">  1        2 0.49089524E-01 0.91402833E+02</pdfrwt>
<pdfrwt beam="2">  1       -2 0.38257237E-02 0.91402833E+02</pdfrwt>
<totfact> 0.26796640E+04</totfact>
</mgrwt>
</event>
<event>
 6    1  0.1535970E-002  0.9045846E+02  0.7546771E-02  0.1386833E+00
          2   -1    0    0  501    0  0.00000000000E+00  0.00000000000E+00  0.10096198671E+04  0.10096198671E+04  0.00000000000E+00 0. -1.
         -2   -1    0    0    0  501 -0.00000000000E+00 -0.00000000000E+00 -0.32746541466E+01  0.32746541466E+01  0.00000000000E+00 0.  1.
         23    2    1    2    0    0  0.20680846028E+02  0.28879409848E+01  0.89882037429E+03  0.90336083454E+03  0.88015308522E+02 0.  0.
         11    1    3    3    0    0  0.21930155750E+02 -0.39370323224E+02  0.34532408948E+03  0.34825232355E+03  0.00000000000E+00 0.  1.
        -11    1    3    3    0    0 -0.12493097218E+01  0.42258264209E+02  0.55349628481E+03  0.55510851099E+03  0.00000000000E+00 0. -1.
         22    1    1    2    0    0 -0.20680846028E+02 -0.28879409848E+01  0.10752483869E+03  0.10953368674E+03  0.00000000000E+00 0.  1.
<mgrwt>
<rscale>  0 0.62701419E+02</rscale>
<asrwt>0</asrwt>
<pdfrwt beam="1">  1        2 0.15532588E+00 0.90458455E+02</pdfrwt>
<pdfrwt beam="2">  1       -2 0.50379375E-03 0.90458455E+02</pdfrwt>
<totfact> 0.13059126E+05</totfact>
</mgrwt>
</event>
<event>
 6    1  0.1535970E-002  0.9267163E+02  0.7546771E-02  0.1390781E+00
         -1   -1    0    0    0  501 -0.00000000000E+00  0.00000000000E+00  0.48799251974E+02  0.48799251974E+02  0.00000000000E+00 0.  1.
          1   -1    0    0  501    0  0.00000000000E+00 -0.00000000000E+00 -0.12342420742E+03  0.12342420742E+03  0.00000000000E+00 0. -1.
         23    2    1    2    0    0  0.12833304018E+02  0.12940378359E+02 -0.10296615870E+03  0.13852819435E+03  0.90861893587E+02 0.  0.
         11    1    3    3    0    0 -0.22944839798E+02  0.38351613631E+02 -0.72276400937E+02  0.84977585715E+02  0.00000000000E+00 0. -1.
        -11    1    3    3    0    0  0.35778143817E+02 -0.25411235271E+02 -0.30689757768E+02  0.53550608632E+02  0.00000000000E+00 0.  1.
         22    1    1    2    0    0 -0.12833304018E+02 -0.12940378359E+02  0.28341203262E+02  0.33695265045E+02  0.00000000000E+00 0.  1.
<mgrwt>
<rscale>  0 0.61712964E+02</rscale>
<asrwt>0</asrwt>
<pdfrwt beam="1">  1        1 0.18988340E-01 0.92671629E+02</pdfrwt>
<pdfrwt beam="2">  1       -1 0.75075773E-02 0.92671629E+02</pdfrwt>
<totfact> 0.22977619E+04</totfact>
</mgrwt>
</event>
<event>
 6    1  0.1535970E-002  0.8651380E+02  0.7546771E-02  0.1401894E+00
         -4   -1    0    0    0  501 -0.00000000000E+00  0.00000000000E+00  0.71388985157E+02  0.71388985157E+02  0.00000000000E+00 0.  1.
          4   -1    0    0  501    0  0.00000000000E+00 -0.00000000000E+00 -0.43655980281E+02  0.43655980281E+02  0.00000000000E+00 0. -1.
         23    2    1    2    0    0  0.12734579768E+02  0.13785856921E+02  0.65757177933E+01  0.86763342966E+02  0.84453645542E+02 0.  0.
         13    1    3    3    0    0  0.32573495695E+01  0.31170130628E+01  0.45284252911E+02  0.45508127388E+02  0.00000000000E+00 0.  1.
        -13    1    3    3    0    0  0.94772301983E+01  0.10668843858E+02 -0.38708535117E+02  0.41255215579E+02  0.00000000000E+00 0. -1.
         22    1    1    2    0    0 -0.12734579768E+02 -0.13785856921E+02  0.21157287083E+02  0.28281622471E+02  0.00000000000E+00 0. -1.
<mgrwt>
<rscale>  0 0.59042630E+02</rscale>
<asrwt>0</asrwt>
<pdfrwt beam="1">  1        4 0.67163047E-02 0.86513800E+02</pdfrwt>
<pdfrwt beam="2">  1       -4 0.10982921E-01 0.86513800E+02</pdfrwt>
<totfact> 0.13579557E+04</totfact>
</mgrwt>
</event>
<event>
 6    1  0.1535970E-002  0.9165382E+02  0.7546771E-02  0.1415199E+00
          1   -1    0    0  501    0  0.00000000000E+00  0.00000000000E+00  0.75987779727E+02  0.75987779727E+02  0.00000000000E+00 0. -1.
         -1   -1    0    0    0  501 -0.00000000000E+00 -0.00000000000E+00 -0.44201154901E+02  0.44201154901E+02  0.00000000000E+00 0.  1.
         23    2    1    2    0    0  0.56889018645E+01  0.11486994719E+02  0.44717859572E+02  0.10198092858E+03  0.90753006440E+02 0.  0.
         11    1    3    3    0    0 -0.13293870227E+02  0.48325801014E+02  0.26733247058E+02  0.56804722757E+02  0.00000000000E+00 0.  1.
        -11    1    3    3    0    0  0.18982772092E+02 -0.36838806296E+02  0.17984612514E+02  0.45176205826E+02  0.00000000000E+00 0. -1.
         22    1    1    2    0    0 -0.56889018645E+01 -0.11486994719E+02 -0.12931234745E+02  0.18208006045E+02  0.00000000000E+00 0.  1.
<mgrwt>
<rscale>  0 0.56049593E+02</rscale>
<asrwt>0</asrwt>
<pdfrwt beam="1">  1        1 0.11690428E-01 0.91653821E+02</pdfrwt>
<pdfrwt beam="2">  1       -1 0.68001777E-02 0.91653821E+02</pdfrwt>
<totfact> 0.49443608E+04</totfact>
</mgrwt>
</event>
<event>
 6    1  0.1535970E-002  0.9029748E+02  0.7546771E-02  0.1412868E+00
         -2   -1    0    0    0  501 -0.00000000000E+00  0.00000000000E+00  0.48028035264E+01  0.48028035264E+01  0.00000000000E+00 0.  1.
          2   -1    0    0  501    0  0.00000000000E+00 -0.00000000000E+00 -0.59667108796E+03  0.59667108796E+03  0.00000000000E+00 0. -1.
         23    2    1    2    0    0 -0.87861571368E+01 -0.10769133015E+02 -0.54989057245E+03  0.55725512753E+03  0.89221436313E+02 0.  0.
         13    1    3    3    0    0 -0.24415706460E+02 -0.11722897299E+02 -0.53487547402E+03  0.53556075823E+03  0.00000000000E+00 0. -1.
        -13    1    3    3    0    0  0.15629549323E+02  0.95376428428E+00 -0.15015098431E+02  0.21694369298E+02  0.00000000000E+00 0.  1.
         22    1    1    2    0    0  0.87861571368E+01  0.10769133015E+02 -0.41977711983E+02  0.44218763963E+02  0.00000000000E+00 0.  1.
<mgrwt>
<rscale>  0 0.56558699E+02</rscale>
<asrwt>0</asrwt>
<pdfrwt beam="1">  1        2 0.91795533E-01 0.90297483E+02</pdfrwt>
<pdfrwt beam="2">  1       -2 0.73889300E-03 0.90297483E+02</pdfrwt>
<totfact> 0.14461143E+05</totfact>
</mgrwt>
</event>
<event>
 6    1  0.1535970E-002  0.9200660E+02  0.7546771E-02  0.1419205E+00
         -2   -1    0    0    0  501 -0.00000000000E+00  0.00000000000E+00  0.92150309199E+01  0.92150309199E+01  0.00000000000E+00 0.  1.
          2   -1    0    0  501    0  0.00000000000E+00 -0.00000000000E+00 -0.30862215168E+03  0.30862215168E+03  0.00000000000E+00 0. -1.
         23    2    1    2    0    0  0.11882411746E+02 -0.83253015562E+00 -0.28286854398E+03  0.29745558950E+03  0.91232284509E+02 0.  0.
         11    1    3    3    0    0 -0.14527880588E+02 -0.40916021070E+02 -0.11769569590E+03  0.12544902123E+03  0.00000000000E+00 0. -1.
        -11    1    3    3    0    0  0.26410292333E+02  0.40083490915E+02 -0.16517284808E+03  0.17200656827E+03  0.00000000000E+00 0.  1.
         22    1    1    2    0    0 -0.11882411746E+02  0.83253015562E+00 -0.16538576783E+02  0.20381593102E+02  0.00000000000E+00 0. -1.
<mgrwt>
<rscale>  0 0.55189471E+02</rscale>
<asrwt>0</asrwt>
<pdfrwt beam="1">  1        2 0.47480328E-01 0.92006601E+02</pdfrwt>
<pdfrwt beam="2">  1       -2 0.14176971E-02 0.92006601E+02</pdfrwt>
<totfact> 0.11644735E+05</totfact>
</mgrwt>
</event>
<event>
 6    1  0.1535970E-002  0.9300479E+02  0.7546771E-02  0.1382085E+00
         -2   -1    0    0    0  501 -0.00000000000E+00  0.00000000000E+00  0.35154867098E+01  0.35154867098E+01  0.00000000000E+00 0.  1.
          2   -1    0    0  501    0  0.00000000000E+00 -0.00000000000E+00 -0.10238335955E+04  0.10238335955E+04  0.00000000000E+00 0. -1.
         23    2    1    2    0    0 -0.20595540239E+02 -0.25204482703E+01 -0.93187592770E+03  0.93650554456E+03  0.90660693926E+02 0.  0.
         11    1    3    3    0    0 -0.24245353936E+01 -0.16600103551E+02 -0.87498691035E+03  0.87514772187E+03  0.00000000000E+00 0. -1.
        -11    1    3    3    0    0 -0.18171004846E+02  0.14079655281E+02 -0.56889017348E+02  0.61357822686E+02  0.00000000000E+00 0.  1.
         22    1    1    2    0    0  0.20595540239E+02  0.25204482703E+01 -0.88442181100E+02  0.90843537662E+02  0.00000000000E+00 0.  1.
<mgrwt>
<rscale>  0 0.63918897E+02</rscale>
<asrwt>0</asrwt>
<pdfrwt beam="1">  1        2 0.15751302E+00 0.93004787E+02</pdfrwt>
<pdfrwt beam="2">  1       -2 0.54084356E-03 0.93004787E+02</pdfrwt>
<totfact> 0.11642357E+05</totfact>
</mgrwt>
</event>
<event>
 6    1  0.1535970E-002  0.1023709E+03  0.7546771E-02  0.1396938E+00
          2   -1    0    0  501    0  0.00000000000E+00  0.00000000000E+00  0.12059752087E+04  0.12059752087E+04  0.00000000000E+00 0. -1.
         -2   -1    0    0    0  501 -0.00000000000E+00 -0.00000000000E+00 -0.28641951327E+01  0.28641951327E+01  0.00000000000E+00 0.  1.
         23    2    1    2    0    0  0.10709231492E+02 -0.59541606967E+01  0.11372531934E+04  0.11418514038E+04  0.10163494889E+03 0.  0.
         11    1    3    3    0    0  0.16893846762E+02 -0.52367411609E+02  0.55652871679E+03  0.55924230926E+03  0.00000000000E+00 0.  1.
        -11    1    3    3    0    0 -0.61846152695E+01  0.46413250912E+02  0.58072447660E+03  0.58260909455E+03  0.00000000000E+00 0. -1.
         22    1    1    2    0    0 -0.10709231492E+02  0.59541606967E+01  0.65857820207E+02  0.66988000054E+02  0.00000000000E+00 0.  1.
<mgrwt>
<rscale>  0 0.60213565E+02</rscale>
<asrwt>0</asrwt>
<pdfrwt beam="1">  1        2 0.18553424E+00 0.10237091E+03</pdfrwt>
<pdfrwt beam="2">  1       -2 0.44064637E-03 0.10237091E+03</pdfrwt>
<totfact> 0.12418017E+05</totfact>
</mgrwt>
</event>
<event>
 6    1  0.1535970E-002  0.1179254E+03  0.7546771E-02  0.1268936E+00
         -2   -1    0    0    0  501 -0.00000000000E+00  0.00000000000E+00  0.13004260885E+03  0.13004260885E+03  0.00000000000E+00 0.  1.
          2   -1    0    0  501    0  0.00000000000E+00 -0.00000000000E+00 -0.72509115005E+02  0.72509115005E+02  0.00000000000E+00 0. -1.
         23    2    1    2    0    0  0.73746755588E+02  0.17685499235E+02  0.28291874135E+02  0.12127175605E+03  0.90305303450E+02 0.  0.
         13    1    3    3    0    0  0.16921063248E+02 -0.24796741520E+02  0.39319987184E+02  0.49469810628E+02  0.00000000000E+00 0.  1.
        -13    1    3    3    0    0  0.56825692339E+02  0.42482240755E+02 -0.11028113049E+02  0.71801945425E+02  0.00000000000E+00 0. -1.
         22    1    1    2    0    0 -0.73746755588E+02 -0.17685499235E+02  0.29241619714E+02  0.81279967805E+02  0.00000000000E+00 0.  1.
<mgrwt>
<rscale>  0 0.10560317E+03</rscale>
<asrwt>0</asrwt>
<pdfrwt beam="1">  1        2 0.11155248E-01 0.11792544E+03</pdfrwt>
<pdfrwt beam="2">  1       -2 0.20006555E-01 0.11792544E+03</pdfrwt>
<totfact> 0.10866229E+04</totfact>
</mgrwt>
</event>
<event>
 6    1  0.1535970E-002  0.9798358E+02  0.7546771E-02  0.1393972E+00
         -4   -1    0    0    0  501 -0.00000000000E+00  0.00000000000E+00  0.69059349907E+02  0.69059349907E+02  0.00000000000E+00 0.  1.
          4   -1    0    0  501    0  0.00000000000E+00 -0.00000000000E+00 -0.46633355871E+02  0.46633355871E+02  0.00000000000E+00 0. -1.
         23    2    1    2    0    0  0.12502323675E+01 -0.14597038506E+02  0.14545760244E+02  0.99057360914E+02  0.96882119073E+02 0.  0.
         13    1    3    3    0    0  0.45973978441E+02  0.58926555736E+01  0.18045722111E+02  0.49739101016E+02  0.00000000000E+00 0.  1.
        -13    1    3    3    0    0 -0.44723746073E+02 -0.20489694080E+02 -0.34999618668E+01  0.49318259898E+02  0.00000000000E+00 0. -1.
         22    1    1    2    0    0 -0.12502323675E+01  0.14597038506E+02  0.78802337923E+01  0.16635344864E+02  0.00000000000E+00 0.  1.
<mgrwt>
<rscale>  0 0.60929547E+02</rscale>
<asrwt>0</asrwt>
<pdfrwt beam="1">  1        4 0.71743624E-02 0.97983578E+02</pdfrwt>
<pdfrwt beam="2">  1       -4 0.10624515E-01 0.97983578E+02</pdfrwt>
<totfact> 0.13396405E+04</totfact>
</mgrwt>
</event>
<event>
 6    1  0.1535970E-002  0.9842285E+02  0.7546771E-02  0.1383733E+00
         -2   -1    0    0    0  501 -0.00000000000E+00  0.00000000000E+00  0.19872240399E+03  0.19872240399E+03  0.00000000000E+00 0. -1.
          2   -1    0    0  501    0  0.00000000000E+00 -0.00000000000E+00 -0.26204701523E+02  0.26204701523E+02  0.00000000000E+00 0.  1.
         23    2    1    2    0    0 -0.34106547342E+01 -0.16700715660E+02  0.69448866220E+02  0.12045829929E+03  0.96935599129E+02 0.  0.
         11    1    3    3    0    0 -0.22357678746E+02 -0.31373887950E+02  0.84006296944E+02  0.92418853976E+02  0.00000000000E+00 0. -1.
        -11    1    3    3    0    0  0.18947024012E+02  0.14673172290E+02 -0.14557430725E+02  0.28039445310E+02  0.00000000000E+00 0.  1.
         22    1    1    2    0    0  0.34106547342E+01  0.16700715660E+02  0.10306883624E+03  0.10446880623E+03  0.00000000000E+00 0. -1.
<mgrwt>
<rscale>  0 0.63492714E+02</rscale>
<asrwt>0</asrwt>
<pdfrwt beam="1">  1        2 0.40314927E-02 0.98422847E+02</pdfrwt>
<pdfrwt beam="2">  1       -2 0.30572677E-01 0.98422847E+02</pdfrwt>
<totfact> 0.18492651E+04</totfact>
</mgrwt>
</event>
<event>
 6    1  0.1535970E-002  0.8363078E+02  0.7546771E-02  0.1356746E+00
          2   -1    0    0  501    0  0.00000000000E+00  0.00000000000E+00  0.44624019396E+03  0.44624019396E+03  0.00000000000E+00 0. -1.
         -2   -1    0    0    0  501 -0.00000000000E+00 -0.00000000000E+00 -0.10587767452E+02  0.10587767452E+02  0.00000000000E+00 0.  1.
         23    2    1    2    0    0 -0.23871245795E+02 -0.36280595522E+02  0.36009016951E+03  0.36967423131E+03  0.71470197514E+02 0.  0.
         13    1    3    3    0    0 -0.33645366016E+01  0.91034325873E+01  0.46494366909E+01  0.10761498639E+02  0.00000000000E+00 0.  1.
        -13    1    3    3    0    0 -0.20506709193E+02 -0.45384028109E+02  0.35544073282E+03  0.35891273267E+03  0.00000000000E+00 0. -1.
         22    1    1    2    0    0  0.23871245795E+02  0.36280595522E+02  0.75562256996E+02  0.87153730096E+02  0.00000000000E+00 0. -1.
<mgrwt>
<rscale>  0 0.70993847E+02</rscale>
<asrwt>0</asrwt>
<pdfrwt beam="1">  1        2 0.68652323E-01 0.83630779E+02</pdfrwt>
<pdfrwt beam="2">  1       -2 0.16288876E-02 0.83630779E+02</pdfrwt>
<totfact> 0.63984910E+04</totfact>
</mgrwt>
</event>
<event>
 6    1  0.1535970E-002  0.9223287E+02  0.7546771E-02  0.1421568E+00
          2   -1    0    0  501    0  0.00000000000E+00  0.00000000000E+00  0.66816921363E+02  0.66816921363E+02  0.00000000000E+00 0. -1.
         -2   -1    0    0    0  501 -0.00000000000E+00 -0.00000000000E+00 -0.49342097429E+02  0.49342097429E+02  0.00000000000E+00 0.  1.
         23    2    1    2    0    0  0.10543169214E+01  0.11353445999E+02  0.32059786439E+02  0.97645957146E+02  0.91525355614E+02 0.  0.
         13    1    3    3    0    0 -0.35700288590E+01  0.28007306606E+02  0.59132058947E+02  0.65526748162E+02  0.00000000000E+00 0. -1.
        -13    1    3    3    0    0  0.46243457804E+01 -0.16653860607E+02 -0.27072272508E+02  0.32119208984E+02  0.00000000000E+00 0.  1.
         22    1    1    2    0    0 -0.10543169214E+01 -0.11353445999E+02 -0.14584962505E+02  0.18513061646E+02  0.00000000000E+00 0. -1.
<mgrwt>
<rscale>  0 0.54690560E+02</rscale>
<asrwt>0</asrwt>
<pdfrwt beam="1">  1        2 0.10279526E-01 0.92232874E+02</pdfrwt>
<pdfrwt beam="2">  1       -2 0.75910919E-02 0.92232874E+02</pdfrwt>
<totfact> 0.54710638E+04</totfact>
</mgrwt>
</event>
<event>
 6    1  0.1535970E-002  0.9521593E+02  0.7546771E-02  0.1368781E+00
         -1   -1    0    0    0  501 -0.00000000000E+00  0.00000000000E+00  0.57961798281E+01  0.57961798281E+01  0.00000000000E+00 0.  1.
          1   -1    0    0  501    0  0.00000000000E+00 -0.00000000000E+00 -0.61455257660E+03  0.61455257660E+03  0.00000000000E+00 0. -1.
         23    2    1    2    0    0  0.17982267477E+02  0.15983362520E+02 -0.49541677552E+03  0.50448375064E+03  0.92126236060E+02 0.  0.
         11    1    3    3    0    0  0.41371673075E+01 -0.33612477892E+02 -0.96763227056E+02  0.10251847118E+03  0.00000000000E+00 0. -1.
        -11    1    3    3    0    0  0.13845100169E+02  0.49595840412E+02 -0.39865354847E+03  0.40196527946E+03  0.00000000000E+00 0.  1.
         22    1    1    2    0    0 -0.17982267477E+02 -0.15983362520E+02 -0.11333962124E+03  0.11586500578E+03  0.00000000000E+00 0. -1.
<mgrwt>
<rscale>  0 0.67507352E+02</rscale>
<asrwt>0</asrwt>
<pdfrwt beam="1">  1        1 0.94546574E-01 0.95215929E+02</pdfrwt>
<pdfrwt beam="2">  1       -1 0.89171975E-03 0.95215929E+02</pdfrwt>
<totfact> 0.66918798E+04</totfact>
</mgrwt>
</event>
<event>
 6    1  0.1535970E-002  0.9940710E+02  0.7546771E-02  0.1382587E+00
         -2   -1    0    0    0  501 -0.00000000000E+00  0.00000000000E+00  0.10416217391E+03  0.10416217391E+03  0.00000000000E+00 0. -1.
          2   -1    0    0  501    0  0.00000000000E+00 -0.00000000000E+00 -0.32613754652E+02  0.32613754652E+02  0.00000000000E+00 0.  1.
         23    2    1    2    0    0  0.11587155204E+02 -0.12240122618E+02  0.57535554626E+02  0.11485691530E+03  0.97967791533E+02 0.  0.
         11    1    3    3    0    0  0.36178741089E+02  0.33761189311E+01  0.73243139177E+02  0.81760974323E+02  0.00000000000E+00 0. -1.
        -11    1    3    3    0    0 -0.24591585885E+02 -0.15616241549E+02 -0.15707584551E+02  0.33095940973E+02  0.00000000000E+00 0.  1.
         22    1    1    2    0    0 -0.11587155204E+02  0.12240122618E+02  0.14012864637E+02  0.21919013270E+02  0.00000000000E+00 0. -1.
<mgrwt>
<rscale>  0 0.63788686E+02</rscale>
<asrwt>0</asrwt>
<pdfrwt beam="1">  1        2 0.50175008E-02 0.99407097E+02</pdfrwt>
<pdfrwt beam="2">  1       -2 0.16024950E-01 0.99407097E+02</pdfrwt>
<totfact> 0.41921832E+04</totfact>
</mgrwt>
</event>
<event>
 6    1  0.1535970E-002  0.9263813E+02  0.7546771E-02  0.1386830E+00
         -2   -1    0    0    0  501 -0.00000000000E+00  0.00000000000E+00  0.51182137359E+01  0.51182137359E+01  0.00000000000E+00 0. -1.
          2   -1    0    0  501    0  0.00000000000E+00 -0.00000000000E+00 -0.76274675539E+03  0.76274675539E+03  0.00000000000E+00 0.  1.
         23    2    1    2    0    0  0.18421639274E+02 -0.62178056918E+01 -0.71543055239E+03  0.72140328385E+03  0.90574857153E+02 0.  0.
         13    1    3    3    0    0 -0.21787428032E+02  0.13681769422E+02 -0.72865710633E+02  0.77274152346E+02  0.00000000000E+00 0.  1.
        -13    1    3    3    0    0  0.40209067305E+02 -0.19899575114E+02 -0.64256484176E+03  0.64412913150E+03  0.00000000000E+00 0. -1.
         22    1    1    2    0    0 -0.18421639274E+02  0.62178056918E+01 -0.42197989257E+02  0.46461685274E+02  0.00000000000E+00 0.  1.
<mgrwt>
<rscale>  0 0.62701997E+02</rscale>
<asrwt>0</asrwt>
<pdfrwt beam="1">  1        2 0.11734564E+00 0.92638127E+02</pdfrwt>
<pdfrwt beam="2">  1       -2 0.78741759E-03 0.92638127E+02</pdfrwt>
<totfact> 0.99905191E+04</totfact>
</mgrwt>
</event>
<event>
 6    1  0.1535970E-002  0.9148740E+02  0.7546771E-02  0.1361740E+00
         -2   -1    0    0    0  501 -0.00000000000E+00  0.00000000000E+00  0.17939550171E+02  0.17939550171E+02  0.00000000000E+00 0.  1.
          2   -1    0    0  501    0  0.00000000000E+00 -0.00000000000E+00 -0.20900440960E+03  0.20900440960E+03  0.00000000000E+00 0. -1.
         23    2    1    2    0    0  0.17622020137E+02  0.24894417913E+02 -0.15160456230E+03  0.17707029251E+03  0.86253565381E+02 0.  0.
         13    1    3    3    0    0  0.17449780957E+02  0.55128945237E+02 -0.74915675030E+02  0.94636429685E+02  0.00000000000E+00 0.  1.
        -13    1    3    3    0    0  0.17223918003E+00 -0.30234527324E+02 -0.76688887272E+02  0.82433862822E+02  0.00000000000E+00 0. -1.
         22    1    1    2    0    0 -0.17622020137E+02 -0.24894417913E+02 -0.39460297125E+02  0.49873667261E+02  0.00000000000E+00 0.  1.
<mgrwt>
<rscale>  0 0.69517952E+02</rscale>
<asrwt>0</asrwt>
<pdfrwt beam="1">  1        2 0.32154524E-01 0.91487404E+02</pdfrwt>
<pdfrwt beam="2">  1       -2 0.27599308E-02 0.91487404E+02</pdfrwt>
<totfact> 0.67315193E+04</totfact>
</mgrwt>
</event>
<event>
 6    1  0.1535970E-002  0.9358855E+02  0.7546771E-02  0.1391145E+00
         -2   -1    0    0    0  501 -0.00000000000E+00  0.00000000000E+00  0.43471932421E+01  0.43471932421E+01  0.00000000000E+00 0. -1.
          2   -1    0    0  501    0  0.00000000000E+00 -0.00000000000E+00 -0.87629133129E+03  0.87629133129E+03  0.00000000000E+00 0.  1.
         23    2    1    2    0    0  0.96320513709E+01  0.14719858379E+02 -0.82848250396E+03  0.83375180699E+03  0.91920431061E+02 0.  0.
         11    1    3    3    0    0  0.13700960105E+01 -0.32083604736E+02 -0.57215039036E+03  0.57305087387E+03  0.00000000000E+00 0. -1.
        -11    1    3    3    0    0  0.82619553604E+01  0.46803463115E+02 -0.25633211360E+03  0.26070093312E+03  0.00000000000E+00 0.  1.
         22    1    1    2    0    0 -0.96320513709E+01 -0.14719858379E+02 -0.43461634088E+02  0.46886717543E+02  0.00000000000E+00 0. -1.
<mgrwt>
<rscale>  0 0.61622733E+02</rscale>
<asrwt>0</asrwt>
<pdfrwt beam="1">  1        2 0.13481397E+00 0.93588548E+02</pdfrwt>
<pdfrwt beam="2">  1       -2 0.66879935E-03 0.93588548E+02</pdfrwt>
<totfact> 0.10610723E+05</totfact>
</mgrwt>
</event>
<event>
 6    1  0.1535970E-002  0.9312496E+02  0.7546771E-02  0.1390540E+00
         -1   -1    0    0    0  501 -0.00000000000E+00  0.00000000000E+00  0.79777244905E+01  0.79777244905E+01  0.00000000000E+00 0.  1.
          1   -1    0    0  501    0  0.00000000000E+00 -0.00000000000E+00 -0.39636029246E+03  0.39636029246E+03  0.00000000000E+00 0. -1.
         23    2    1    2    0    0  0.18016763165E+02 -0.67836172142E+00 -0.34524941400E+03  0.35758833352E+03  0.91362981956E+02 0.  0.
         11    1    3    3    0    0  0.55280086086E+02  0.35561510003E+01 -0.19345224230E+03  0.20122699664E+03  0.00000000000E+00 0.  1.
        -11    1    3    3    0    0 -0.37263322921E+02 -0.42345127217E+01 -0.15179717171E+03  0.15636133688E+03  0.00000000000E+00 0. -1.
         22    1    1    2    0    0 -0.18016763165E+02  0.67836172142E+00 -0.43133153964E+02  0.46749683426E+02  0.00000000000E+00 0. -1.
<mgrwt>
<rscale>  0 0.61772571E+02</rscale>
<asrwt>0</asrwt>
<pdfrwt beam="1">  1        1 0.60978507E-01 0.93124961E+02</pdfrwt>
<pdfrwt beam="2">  1       -1 0.12273422E-02 0.93124961E+02</pdfrwt>
<totfact> 0.74733416E+04</totfact>
</mgrwt>
</event>
<event>
 6    1  0.1535970E-002  0.9801220E+02  0.7546771E-02  0.1412752E+00
         -2   -1    0    0    0  501 -0.00000000000E+00  0.00000000000E+00  0.24146179102E+03  0.24146179102E+03  0.00000000000E+00 0.  1.
          2   -1    0    0  501    0  0.00000000000E+00 -0.00000000000E+00 -0.12283481465E+02  0.12283481465E+02  0.00000000000E+00 0. -1.
         23    2    1    2    0    0 -0.85979227492E+01  0.66799487309E+01  0.20470658424E+03  0.22696073720E+03  0.97405567643E+02 0.  0.
         11    1    3    3    0    0 -0.47020445142E+02  0.19707576455E+02  0.72229787344E+02  0.88410706427E+02  0.00000000000E+00 0. -1.
        -11    1    3    3    0    0  0.38422522393E+02 -0.13027627724E+02  0.13247679689E+03  0.13855003077E+03  0.00000000000E+00 0.  1.
         22    1    1    2    0    0  0.85979227492E+01 -0.66799487309E+01  0.24471725317E+02  0.26784535289E+02  0.00000000000E+00 0. -1.
<mgrwt>
<rscale>  0 0.56584300E+02</rscale>
<asrwt>0</asrwt>
<pdfrwt beam="1">  1        2 0.18897666E-02 0.98012196E+02</pdfrwt>
<pdfrwt beam="2">  1       -2 0.37147964E-01 0.98012196E+02</pdfrwt>
<totfact> 0.35634092E+04</totfact>
</mgrwt>
</event>
<event>
 6    1  0.1535970E-002  0.1018546E+03  0.7546771E-02  0.1319599E+00
          2   -1    0    0  501    0  0.00000000000E+00  0.00000000000E+00  0.62337973888E+03  0.62337973888E+03  0.00000000000E+00 0. -1.
         -2   -1    0    0    0  501 -0.00000000000E+00 -0.00000000000E+00 -0.12112430981E+02  0.12112430981E+02  0.00000000000E+00 0.  1.
         23    2    1    2    0    0 -0.45483775072E+02  0.57331466836E+01  0.54786278407E+03  0.55725038814E+03  0.90954505888E+02 0.  0.
         11    1    3    3    0    0  0.13769206404E+02  0.17090942656E+02  0.34266484416E+03  0.34336698559E+03  0.00000000000E+00 0. -1.
        -11    1    3    3    0    0 -0.59252981477E+02 -0.11357795972E+02  0.20519793991E+03  0.21388340255E+03  0.00000000000E+00 0.  1.
         22    1    1    2    0    0  0.45483775072E+02 -0.57331466836E+01  0.63404523824E+02  0.78241781722E+02  0.00000000000E+00 0.  1.
<mgrwt>
<rscale>  0 0.83426770E+02</rscale>
<asrwt>0</asrwt>
<pdfrwt beam="1">  1        2 0.95904550E-01 0.10185463E+03</pdfrwt>
<pdfrwt beam="2">  1       -2 0.18634514E-02 0.10185463E+03</pdfrwt>
<totfact> 0.37517974E+04</totfact>
</mgrwt>
</event>
<event>
 6    1  0.1535970E-002  0.8996105E+02  0.7546771E-02  0.1426211E+00
          2   -1    0    0  501    0  0.00000000000E+00  0.00000000000E+00  0.23463903574E+02  0.23463903574E+02  0.00000000000E+00 0.  1.
         -2   -1    0    0    0  501 -0.00000000000E+00 -0.00000000000E+00 -0.11589948235E+03  0.11589948235E+03  0.00000000000E+00 0. -1.
         23    2    1    2    0    0 -0.10260577060E+02  0.50722255771E+01 -0.69324259941E+02  0.11357307821E+03  0.89229951043E+02 0.  0.
         13    1    3    3    0    0  0.96877900274E+01  0.24983365872E+02 -0.79276499710E+02  0.83682646063E+02  0.00000000000E+00 0. -1.
        -13    1    3    3    0    0 -0.19948367087E+02 -0.19911140295E+02  0.99522397691E+01  0.29890432143E+02  0.00000000000E+00 0.  1.
         22    1    1    2    0    0  0.10260577060E+02 -0.50722255771E+01 -0.23111318840E+02  0.25790307723E+02  0.00000000000E+00 0.  1.
<mgrwt>
<rscale>  0 0.53728248E+02</rscale>
<asrwt>0</asrwt>
<pdfrwt beam="1">  1        2 0.36098312E-02 0.89961053E+02</pdfrwt>
<pdfrwt beam="2">  1       -2 0.17830690E-01 0.89961053E+02</pdfrwt>
<totfact> 0.53301380E+04</totfact>
</mgrwt>
</event>
<event>
 6    1  0.1535970E-002  0.9216802E+02  0.7546771E-02  0.1394900E+00
         -2   -1    0    0    0  501 -0.00000000000E+00  0.00000000000E+00  0.87862224362E+02  0.87862224362E+02  0.00000000000E+00 0. -1.
          2   -1    0    0  501    0  0.00000000000E+00 -0.00000000000E+00 -0.35043216885E+02  0.35043216885E+02  0.00000000000E+00 0.  1.
         23    2    1    2    0    0  0.12661659826E+02 -0.11852114334E+02  0.36628945474E+02  0.99179751554E+02  0.90521562227E+02 0.  0.
         11    1    3    3    0    0 -0.32853284434E+02 -0.90800458272E+00 -0.87208365422E+01  0.34003172799E+02  0.00000000000E+00 0.  1.
        -11    1    3    3    0    0  0.45514944260E+02 -0.10944109751E+02  0.45349782016E+02  0.65176578755E+02  0.00000000000E+00 0. -1.
         22    1    1    2    0    0 -0.12661659826E+02  0.11852114334E+02  0.16190062003E+02  0.23725689693E+02  0.00000000000E+00 0. -1.
<mgrwt>
<rscale>  0 0.60704118E+02</rscale>
<asrwt>0</asrwt>
<pdfrwt beam="1">  1        2 0.53912641E-02 0.92168018E+02</pdfrwt>
<pdfrwt beam="2">  1       -2 0.13517265E-01 0.92168018E+02</pdfrwt>
<totfact> 0.49796432E+04</totfact>
</mgrwt>
</event>
<event>
 6    1  0.1535970E-002  0.9050981E+02  0.7546771E-02  0.1425179E+00
         -2   -1    0    0    0  501 -0.00000000000E+00  0.00000000000E+00  0.93863950407E+02  0.93863950407E+02  0.00000000000E+00 0.  1.
          2   -1    0    0  501    0  0.00000000000E+00 -0.00000000000E+00 -0.27891868884E+02  0.27891868884E+02  0.00000000000E+00 0. -1.
         23    2    1    2    0    0 -0.11406752237E+02 -0.48576875956E+00  0.54938814971E+02  0.10587869932E+03  0.89786834284E+02 0.  0.
         13    1    3    3    0    0  0.35309585346E+02  0.31262920939E+01  0.46171877000E+02  0.58209816571E+02  0.00000000000E+00 0.  1.
        -13    1    3    3    0    0 -0.46716337583E+02 -0.36120608535E+01  0.87669379709E+01  0.47668882745E+02  0.00000000000E+00 0. -1.
         22    1    1    2    0    0  0.11406752237E+02  0.48576875956E+00  0.11033266552E+02  0.15877119975E+02  0.00000000000E+00 0.  1.
<mgrwt>
<rscale>  0 0.53939958E+02</rscale>
<asrwt>0</asrwt>
<pdfrwt beam="1">  1        2 0.42910568E-02 0.90509809E+02</pdfrwt>
<pdfrwt beam="2">  1       -2 0.14440608E-01 0.90509809E+02</pdfrwt>
<totfact> 0.60000063E+04</totfact>
</mgrwt>
</event>
<event>
 6    1  0.1535970E-002  0.9702459E+02  0.7546771E-02  0.1366793E+00
          4   -1    0    0  501    0  0.00000000000E+00  0.00000000000E+00  0.13733224850E+03  0.13733224850E+03  0.00000000000E+00 0. -1.
         -4   -1    0    0    0  501 -0.00000000000E+00 -0.00000000000E+00 -0.29015546835E+02  0.29015546835E+02  0.00000000000E+00 0.  1.
         23    2    1    2    0    0 -0.23499482139E+02  0.30408923241E+00  0.10439659088E+03  0.14252164584E+03  0.94135292077E+02 0.  0.
         11    1    3    3    0    0  0.16816094638E+02 -0.85313202537E+01  0.99138295259E+02  0.10091563829E+03  0.00000000000E+00 0. -1.
        -11    1    3    3    0    0 -0.40315576777E+02  0.88354094861E+01  0.52582956228E+01  0.41606007553E+02  0.00000000000E+00 0.  1.
         22    1    1    2    0    0  0.23499482139E+02 -0.30408923241E+00  0.39201107809E+01  0.23826149491E+02  0.00000000000E+00 0. -1.
<mgrwt>
<rscale>  0 0.68066752E+02</rscale>
<asrwt>0</asrwt>
<pdfrwt beam="1">  1        4 0.21128038E-01 0.97024591E+02</pdfrwt>
<pdfrwt beam="2">  1       -4 0.44639304E-02 0.97024591E+02</pdfrwt>
<totfact> 0.86926055E+03</totfact>
</mgrwt>
</event>
<event>
 6    1  0.1535970E-002  0.1056014E+03  0.7546771E-02  0.1327733E+00
         -4   -1    0    0    0  501 -0.00000000000E+00  0.00000000000E+00  0.20078447242E+02  0.20078447242E+02  0.00000000000E+00 0.  1.
          4   -1    0    0  501    0  0.00000000000E+00 -0.00000000000E+00 -0.41010635001E+03  0.41010635001E+03  0.00000000000E+00 0. -1.
         23    2    1    2    0    0  0.33139019360E+02  0.13006252667E+02 -0.37820768616E+03  0.39267380242E+03  0.99419837183E+02 0.  0.
         13    1    3    3    0    0  0.68242285732E+02  0.71440151356E+01 -0.27769359181E+03  0.28604506192E+03  0.00000000000E+00 0. -1.
        -13    1    3    3    0    0 -0.35103266372E+02  0.58622375314E+01 -0.10051409435E+03  0.10662874050E+03  0.00000000000E+00 0.  1.
         22    1    1    2    0    0 -0.33139019360E+02 -0.13006252667E+02 -0.11820216609E+02  0.37510994832E+02  0.00000000000E+00 0.  1.
<mgrwt>
<rscale>  0 0.80466427E+02</rscale>
<asrwt>0</asrwt>
<pdfrwt beam="1">  1        4 0.63093282E-01 0.10560143E+03</pdfrwt>
<pdfrwt beam="2">  1       -4 0.30889920E-02 0.10560143E+03</pdfrwt>
<totfact> 0.19067645E+03</totfact>
</mgrwt>
</event>
<event>
 6    1  0.1535970E-002  0.9323084E+02  0.7546771E-02  0.1378140E+00
          2   -1    0    0  501    0  0.00000000000E+00  0.00000000000E+00  0.87378098308E+02  0.87378098308E+02  0.00000000000E+00 0. -1.
         -2   -1    0    0    0  501 -0.00000000000E+00 -0.00000000000E+00 -0.38015739728E+02  0.38015739728E+02  0.00000000000E+00 0.  1.
         23    2    1    2    0    0 -0.12046259047E+02 -0.18369686048E+02  0.41661093403E+02  0.10211579671E+03  0.90605913229E+02 0.  0.
         13    1    3    3    0    0  0.28690623796E+02  0.11752521768E+02  0.41056576734E+02  0.51448189033E+02  0.00000000000E+00 0. -1.
        -13    1    3    3    0    0 -0.40736882843E+02 -0.30122207816E+02  0.60451666936E+00  0.50667607679E+02  0.00000000000E+00 0.  1.
         22    1    1    2    0    0  0.12046259047E+02  0.18369686048E+02  0.77012651771E+01  0.23278041323E+02  0.00000000000E+00 0. -1.
<mgrwt>
<rscale>  0 0.64955114E+02</rscale>
<asrwt>0</asrwt>
<pdfrwt beam="1">  1        2 0.13442784E-01 0.93230838E+02</pdfrwt>
<pdfrwt beam="2">  1       -2 0.58485753E-02 0.93230838E+02</pdfrwt>
<totfact> 0.59029354E+04</totfact>
</mgrwt>
</event>
<event>
 6    1  0.1535970E-002  0.9186479E+02  0.7546771E-02  0.1403591E+00
         -2   -1    0    0    0  501 -0.00000000000E+00  0.00000000000E+00  0.14406286957E+02  0.14406286957E+02  0.00000000000E+00 0.  1.
          2   -1    0    0  501    0  0.00000000000E+00 -0.00000000000E+00 -0.34125291611E+03  0.34125291611E+03  0.00000000000E+00 0. -1.
         23    2    1    2    0    0  0.14115817718E+02 -0.58008536968E+01 -0.32774046426E+03  0.34037178489E+03  0.90588265359E+02 0.  0.
         11    1    3    3    0    0  0.25110413167E+02 -0.26113901034E+02 -0.30760104347E+03  0.30972709055E+03  0.00000000000E+00 0. -1.
        -11    1    3    3    0    0 -0.10994595449E+02  0.20313047337E+02 -0.20139420784E+02  0.30644694332E+02  0.00000000000E+00 0.  1.
         22    1    1    2    0    0 -0.14115817718E+02  0.58008536968E+01  0.89383510495E+00  0.15287418182E+02  0.00000000000E+00 0.  1.
<mgrwt>
<rscale>  0 0.58648844E+02</rscale>
<asrwt>0</asrwt>
<pdfrwt beam="1">  1        2 0.52500445E-01 0.91864792E+02</pdfrwt>
<pdfrwt beam="2">  1       -2 0.22163520E-02 0.91864792E+02</pdfrwt>
<totfact> 0.55255863E+04</totfact>
</mgrwt>
</event>
<event>
 6    1  0.1535970E-002  0.9174889E+02  0.7546771E-02  0.1404786E+00
         -4   -1    0    0    0  501 -0.00000000000E+00  0.00000000000E+00  0.62658129184E+02  0.62658129184E+02  0.00000000000E+00 0.  1.
          4   -1    0    0  501    0  0.00000000000E+00 -0.00000000000E+00 -0.51024058221E+02  0.51024058221E+02  0.00000000000E+00 0. -1.
         23    2    1    2    0    0 -0.55207475243E+01 -0.13983439148E+02 -0.42038928469E+01  0.91845147284E+02  0.90508801455E+02 0.  0.
         13    1    3    3    0    0 -0.37954885318E+02  0.21493554676E+02 -0.36873935289E+01  0.43773771635E+02  0.00000000000E+00 0. -1.
        -13    1    3    3    0    0  0.32434137793E+02 -0.35476993825E+02 -0.51649931805E+00  0.48071375649E+02  0.00000000000E+00 0.  1.
         22    1    1    2    0    0  0.55207475243E+01  0.13983439148E+02  0.15837963810E+02  0.21837040122E+02  0.00000000000E+00 0.  1.
<mgrwt>
<rscale>  0 0.58373780E+02</rscale>
<asrwt>0</asrwt>
<pdfrwt beam="1">  1        4 0.78498552E-02 0.91748888E+02</pdfrwt>
<pdfrwt beam="2">  1       -4 0.96397121E-02 0.91748888E+02</pdfrwt>
<totfact> 0.13341717E+04</totfact>
</mgrwt>
</event>
<event>
 6    1  0.1535970E-002  0.9548987E+02  0.7546771E-02  0.1360286E+00
          2   -1    0    0  501    0  0.00000000000E+00  0.00000000000E+00  0.19379962367E+03  0.19379962367E+03  0.00000000000E+00 0. -1.
         -2   -1    0    0    0  501 -0.00000000000E+00 -0.00000000000E+00 -0.20912302236E+02  0.20912302236E+02  0.00000000000E+00 0.  1.
         23    2    1    2    0    0  0.26250899398E+02  0.81462186618E+01  0.15455181773E+03  0.18167162787E+03  0.91448594381E+02 0.  0.
         13    1    3    3    0    0  0.22890306955E+02  0.18540235024E+02  0.16436720846E+03  0.16698588469E+03  0.00000000000E+00 0. -1.
        -13    1    3    3    0    0  0.33605924428E+01 -0.10394016362E+02 -0.98153907348E+01  0.14685743188E+02  0.00000000000E+00 0.  1.
         22    1    1    2    0    0 -0.26250899398E+02 -0.81462186618E+01  0.18335503704E+02  0.33040298028E+02  0.00000000000E+00 0.  1.
<mgrwt>
<rscale>  0 0.69943150E+02</rscale>
<asrwt>0</asrwt>
<pdfrwt beam="1">  1        2 0.29815325E-01 0.95489874E+02</pdfrwt>
<pdfrwt beam="2">  1       -2 0.32172774E-02 0.95489874E+02</pdfrwt>
<totfact> 0.58721266E+04</totfact>
</mgrwt>
</event>
<event>
 6    1  0.1535970E-002  0.9205966E+02  0.7546771E-02  0.1421668E+00
         -1   -1    0    0    0  501 -0.00000000000E+00  0.00000000000E+00  0.12412673245E+02  0.12412673245E+02  0.00000000000E+00 0.  1.
          1   -1    0    0  501    0  0.00000000000E+00 -0.00000000000E+00 -0.21634492171E+03  0.21634492171E+03  0.00000000000E+00 0. -1.
         23    2    1    2    0    0  0.11151601385E+02 -0.25934599783E+01 -0.18481464982E+03  0.20647381551E+03  0.91344936682E+02 0.  0.
         11    1    3    3    0    0  0.59943746671E+01  0.36325244909E+02 -0.32266440546E+02  0.48954868306E+02  0.00000000000E+00 0.  1.
        -11    1    3    3    0    0  0.51572267184E+01 -0.38918704887E+02 -0.15254820927E+03  0.15751894721E+03  0.00000000000E+00 0. -1.
         22    1    1    2    0    0 -0.11151601385E+02  0.25934599783E+01 -0.19117598649E+02  0.22283779442E+02  0.00000000000E+00 0. -1.
<mgrwt>
<rscale>  0 0.54669594E+02</rscale>
<asrwt>0</asrwt>
<pdfrwt beam="1">  1        1 0.33283833E-01 0.92059664E+02</pdfrwt>
<pdfrwt beam="2">  1       -1 0.19096421E-02 0.92059664E+02</pdfrwt>
<totfact> 0.83623902E+04</totfact>
</mgrwt>
</event>
<event>
 6    1  0.1535970E-002  0.9701500E+02  0.7546771E-02  0.1325772E+00
         -2   -1    0    0    0  501 -0.00000000000E+00  0.00000000000E+00  0.13499784324E+02  0.13499784324E+02  0.00000000000E+00 0.  1.
          2   -1    0    0  501    0  0.00000000000E+00 -0.00000000000E+00 -0.71092862558E+03  0.71092862558E+03  0.00000000000E+00 0. -1.
         23    2    1    2    0    0  0.22802589669E+02 -0.41706833182E+02 -0.65028161763E+03  0.65747858746E+03  0.84572411041E+02 0.  0.
         11    1    3    3    0    0 -0.29598704907E+02 -0.15030751600E+02 -0.14311182627E+03  0.14691154360E+03  0.00000000000E+00 0.  1.
        -11    1    3    3    0    0  0.52401294577E+02 -0.26676081582E+02 -0.50716979137E+03  0.51056704386E+03  0.00000000000E+00 0. -1.
         22    1    1    2    0    0 -0.22802589669E+02  0.41706833182E+02 -0.47147223620E+02  0.66949822440E+02  0.00000000000E+00 0.  1.
<mgrwt>
<rscale>  0 0.81166861E+02</rscale>
<asrwt>0</asrwt>
<pdfrwt beam="1">  1        2 0.10937362E+00 0.97015003E+02</pdfrwt>
<pdfrwt beam="2">  1       -2 0.20768902E-02 0.97015003E+02</pdfrwt>
<totfact> 0.27438495E+04</totfact>
</mgrwt>
</event>
<event>
 6    1  0.1535970E-002  0.9446480E+02  0.7546771E-02  0.1365392E+00
         -1   -1    0    0    0  501 -0.00000000000E+00  0.00000000000E+00  0.94095980685E+02  0.94095980685E+02  0.00000000000E+00 0.  1.
          1   -1    0    0  501    0  0.00000000000E+00 -0.00000000000E+00 -0.41428264681E+02  0.41428264681E+02  0.00000000000E+00 0. -1.
         23    2    1    2    0    0  0.12086476794E+02  0.23094018674E+02  0.25438309862E+02  0.97829986140E+02  0.90797477716E+02 0.  0.
         13    1    3    3    0    0  0.12124705335E+02 -0.23964506309E+02  0.40345127142E+02  0.48466847702E+02  0.00000000000E+00 0.  1.
        -13    1    3    3    0    0 -0.38228541243E-01  0.47058524983E+02 -0.14906817279E+02  0.49363138437E+02  0.00000000000E+00 0. -1.
         22    1    1    2    0    0 -0.12086476794E+02 -0.23094018674E+02  0.27229406141E+02  0.37694259226E+02  0.00000000000E+00 0.  1.
<mgrwt>
<rscale>  0 0.68465145E+02</rscale>
<asrwt>0</asrwt>
<pdfrwt beam="1">  1        1 0.63735792E-02 0.94464801E+02</pdfrwt>
<pdfrwt beam="2">  1       -1 0.14476305E-01 0.94464801E+02</pdfrwt>
<totfact> 0.35292365E+04</totfact>
</mgrwt>
</event>
<event>
 6    1  0.1535970E-002  0.1014558E+03  0.7546771E-02  0.1325083E+00
         -2   -1    0    0    0  501 -0.00000000000E+00  0.00000000000E+00  0.71087151695E+02  0.71087151695E+02  0.00000000000E+00 0.  1.
          2   -1    0    0  501    0  0.00000000000E+00 -0.00000000000E+00 -0.83227193423E+02  0.83227193423E+02  0.00000000000E+00 0. -1.
         23    2    1    2    0    0 -0.17869098459E+02  0.38088363338E+02 -0.33872806149E+02  0.10696098039E+03  0.92321483028E+02 0.  0.
         11    1    3    3    0    0 -0.66260884906E+01 -0.29437932477E+02 -0.22331056255E+02  0.37538952978E+02  0.00000000000E+00 0. -1.
        -11    1    3    3    0    0 -0.11243009968E+02  0.67526295815E+02 -0.11541749894E+02  0.69422027414E+02  0.00000000000E+00 0.  1.
         22    1    1    2    0    0  0.17869098459E+02 -0.38088363338E+02  0.21732764421E+02  0.47353364726E+02  0.00000000000E+00 0. -1.
<mgrwt>
<rscale>  0 0.81415156E+02</rscale>
<asrwt>0</asrwt>
<pdfrwt beam="1">  1        2 0.12804184E-01 0.10145582E+03</pdfrwt>
<pdfrwt beam="2">  1       -2 0.10936485E-01 0.10145582E+03</pdfrwt>
<totfact> 0.24211816E+04</totfact>
</mgrwt>
</event>
<event>
 6    1  0.1535970E-002  0.8497438E+02  0.7546771E-02  0.1423884E+00
          2   -1    0    0  501    0  0.00000000000E+00  0.00000000000E+00  0.81775041425E+03  0.81775041425E+03  0.00000000000E+00 0. -1.
         -2   -1    0    0    0  501 -0.00000000000E+00 -0.00000000000E+00 -0.34155240975E+01  0.34155240975E+01  0.00000000000E+00 0.  1.
         23    2    1    2    0    0  0.99300547361E+01  0.99714614772E+01  0.76942087476E+03  0.77409891370E+03  0.83801012132E+02 0.  0.
         11    1    3    3    0    0 -0.22177206682E+02  0.53008724477E-01  0.61423657924E+02  0.65304648065E+02  0.00000000000E+00 0.  1.
        -11    1    3    3    0    0  0.32107261418E+02  0.99184527527E+01  0.70799721684E+03  0.70879426563E+03  0.00000000000E+00 0. -1.
         22    1    1    2    0    0 -0.99300547361E+01 -0.99714614772E+01  0.44914015387E+02  0.47067024649E+02  0.00000000000E+00 0.  1.
<mgrwt>
<rscale>  0 0.54207458E+02</rscale>
<asrwt>0</asrwt>
<pdfrwt beam="1">  1        2 0.12580760E+00 0.84974382E+02</pdfrwt>
<pdfrwt beam="2">  1       -2 0.52546590E-03 0.84974382E+02</pdfrwt>
<totfact> 0.16006521E+05</totfact>
</mgrwt>
</event>
<event>
 6    1  0.1535970E-002  0.1004348E+03  0.7546771E-02  0.1325498E+00
          2   -1    0    0  501    0  0.00000000000E+00  0.00000000000E+00  0.39907355951E+03  0.39907355951E+03  0.00000000000E+00 0. -1.
         -2   -1    0    0    0  501 -0.00000000000E+00 -0.00000000000E+00 -0.13384661277E+02  0.13384661277E+02  0.00000000000E+00 0.  1.
         23    2    1    2    0    0 -0.40624644230E+02 -0.14246741048E+02  0.30335239906E+03  0.31954627083E+03  0.90740342929E+02 0.  0.
         11    1    3    3    0    0 -0.50299631146E+02  0.21705278229E+02  0.11290594592E+03  0.12549471950E+03  0.00000000000E+00 0. -1.
        -11    1    3    3    0    0  0.96749869159E+01 -0.35952019277E+02  0.19044645314E+03  0.19405155134E+03  0.00000000000E+00 0.  1.
         22    1    1    2    0    0  0.40624644230E+02  0.14246741048E+02  0.82336499168E+02  0.92911949956E+02  0.00000000000E+00 0.  1.
<mgrwt>
<rscale>  0 0.81265680E+02</rscale>
<asrwt>0</asrwt>
<pdfrwt beam="1">  1        2 0.61395923E-01 0.10043476E+03</pdfrwt>
<pdfrwt beam="2">  1       -2 0.20591790E-02 0.10043476E+03</pdfrwt>
<totfact> 0.52711340E+04</totfact>
</mgrwt>
</event>
<event>
 6    1  0.1535970E-002  0.9253896E+02  0.7546771E-02  0.1411230E+00
          2   -1    0    0  501    0  0.00000000000E+00  0.00000000000E+00  0.17885473206E+03  0.17885473206E+03  0.00000000000E+00 0. -1.
         -2   -1    0    0    0  501 -0.00000000000E+00 -0.00000000000E+00 -0.20070158160E+02  0.20070158160E+02  0.00000000000E+00 0.  1.
         23    2    1    2    0    0 -0.73507496384E+01 -0.11019542271E+02  0.16079963054E+03  0.18552622292E+03  0.91585994443E+02 0.  0.
         13    1    3    3    0    0  0.37508700865E+02  0.14242803280E+02  0.57584150849E+02  0.70183292277E+02  0.00000000000E+00 0. -1.
        -13    1    3    3    0    0 -0.44859450503E+02 -0.25262345551E+02  0.10321547969E+03  0.11534293064E+03  0.00000000000E+00 0.  1.
         22    1    1    2    0    0  0.73507496384E+01  0.11019542271E+02 -0.20150566393E+01  0.13398667298E+02  0.00000000000E+00 0.  1.
<mgrwt>
<rscale>  0 0.56920263E+02</rscale>
<asrwt>0</asrwt>
<pdfrwt beam="1">  1        2 0.27516112E-01 0.92538955E+02</pdfrwt>
<pdfrwt beam="2">  1       -2 0.30877168E-02 0.92538955E+02</pdfrwt>
<totfact> 0.67671754E+04</totfact>
</mgrwt>
</event>
<event>
 6    1  0.1535970E-002  0.9474850E+02  0.7546771E-02  0.1420617E+00
         -2   -1    0    0    0  501 -0.00000000000E+00  0.00000000000E+00  0.13158492835E+02  0.13158492835E+02  0.00000000000E+00 0.  1.
          2   -1    0    0  501    0  0.00000000000E+00 -0.00000000000E+00 -0.22658758506E+03  0.22658758506E+03  0.00000000000E+00 0. -1.
         23    2    1    2    0    0 -0.95059238864E+01  0.48521581482E+01 -0.16605411304E+03  0.19118380159E+03  0.94145480527E+02 0.  0.
         11    1    3    3    0    0  0.37478463040E+02  0.22895137657E+02 -0.87227547544E+02  0.97659958892E+02  0.00000000000E+00 0. -1.
        -11    1    3    3    0    0 -0.46984386926E+02 -0.18042979509E+02 -0.78826565500E+02  0.93523842698E+02  0.00000000000E+00 0.  1.
         22    1    1    2    0    0  0.95059238864E+01 -0.48521581482E+01 -0.47374979184E+02  0.48562276309E+02  0.00000000000E+00 0. -1.
<mgrwt>
<rscale>  0 0.54890550E+02</rscale>
<asrwt>0</asrwt>
<pdfrwt beam="1">  1        2 0.34859629E-01 0.94748496E+02</pdfrwt>
<pdfrwt beam="2">  1       -2 0.20243835E-02 0.94748496E+02</pdfrwt>
<totfact> 0.97153226E+04</totfact>
</mgrwt>
</event>
<event>
 6    1  0.1535970E-002  0.7500096E+02  0.7546771E-02  0.1462125E+00
          4   -1    0    0  501    0  0.00000000000E+00  0.00000000000E+00  0.36478350454E+03  0.36478350454E+03  0.00000000000E+00 0.  1.
         -4   -1    0    0    0  501 -0.00000000000E+00 -0.00000000000E+00 -0.27646198217E+02  0.27646198217E+02  0.00000000000E+00 0. -1.
         23    2    1    2    0    0 -0.11540381083E+02  0.99975455538E+00  0.35950254161E+03  0.36724272886E+03  0.74101042981E+02 0.  0.
         13    1    3    3    0    0  0.27927347641E+02  0.41923365354E+01  0.77719471407E+02  0.82691164387E+02  0.00000000000E+00 0. -1.
        -13    1    3    3    0    0 -0.39467728724E+02 -0.31925819800E+01  0.28178307020E+03  0.28455156447E+03  0.00000000000E+00 0.  1.
         22    1    1    2    0    0  0.11540381083E+02 -0.99975455538E+00 -0.22365235287E+02  0.25186973898E+02  0.00000000000E+00 0. -1.
<mgrwt>
<rscale>  0 0.47017666E+02</rscale>
<asrwt>0</asrwt>
<pdfrwt beam="1">  1        4 0.56120536E-01 0.75000963E+02</pdfrwt>
<pdfrwt beam="2">  1       -4 0.42532615E-02 0.75000963E+02</pdfrwt>
<totfact> 0.13483873E+03</totfact>
</mgrwt>
</event>
<event>
 6    1  0.1535970E-002  0.1019469E+03  0.7546771E-02  0.1322249E+00
         -2   -1    0    0    0  501 -0.00000000000E+00  0.00000000000E+00  0.34309594526E+02  0.34309594526E+02  0.00000000000E+00 0.  1.
          2   -1    0    0  501    0  0.00000000000E+00 -0.00000000000E+00 -0.93714809641E+03  0.93714809641E+03  0.00000000000E+00 0. -1.
         23    2    1    2    0    0  0.29459208334E+02  0.32152408715E+02 -0.91923391029E+03  0.92486979811E+03  0.92149548489E+02 0.  0.
         13    1    3    3    0    0  0.52002308584E+02 -0.36723274029E+01 -0.32742754303E+03  0.33155168831E+03  0.00000000000E+00 0. -1.
        -13    1    3    3    0    0 -0.22543100250E+02  0.35824736118E+02 -0.59180636726E+03  0.59331810980E+03  0.00000000000E+00 0.  1.
         22    1    1    2    0    0 -0.29459208334E+02 -0.32152408715E+02  0.16395408400E+02  0.46587892831E+02  0.00000000000E+00 0.  1.
<mgrwt>
<rscale>  0 0.82446251E+02</rscale>
<asrwt>0</asrwt>
<pdfrwt beam="1">  1        2 0.14417661E+00 0.10194686E+03</pdfrwt>
<pdfrwt beam="2">  1       -2 0.52783998E-02 0.10194686E+03</pdfrwt>
<totfact> 0.49894876E+03</totfact>
</mgrwt>
</event>
<event>
 6    1  0.1535970E-002  0.9167496E+02  0.7546771E-02  0.1407161E+00
         -4   -1    0    0    0  501 -0.00000000000E+00  0.00000000000E+00  0.63687564211E+02  0.63687564211E+02  0.00000000000E+00 0.  1.
          4   -1    0    0  501    0  0.00000000000E+00 -0.00000000000E+00 -0.46020442501E+02  0.46020442501E+02  0.00000000000E+00 0. -1.
         23    2    1    2    0    0 -0.14110289904E+02 -0.34187634202E+01  0.74954306303E+01  0.91980865828E+02  0.90518009112E+02 0.  0.
         13    1    3    3    0    0  0.22772516178E+02  0.32628238741E+02 -0.49858887158E+00  0.39792437061E+02  0.00000000000E+00 0. -1.
        -13    1    3    3    0    0 -0.36882806082E+02 -0.36047002161E+02  0.79940195019E+01  0.52188428766E+02  0.00000000000E+00 0.  1.
         22    1    1    2    0    0  0.14110289904E+02  0.34187634202E+01  0.10171691080E+02  0.17727140884E+02  0.00000000000E+00 0. -1.
<mgrwt>
<rscale>  0 0.57832083E+02</rscale>
<asrwt>0</asrwt>
<pdfrwt beam="1">  1        4 0.70800681E-02 0.91674959E+02</pdfrwt>
<pdfrwt beam="2">  1       -4 0.97980868E-02 0.91674959E+02</pdfrwt>
<totfact> 0.15366297E+04</totfact>
</mgrwt>
</event>
<event>
 6    1  0.1535970E-002  0.1033935E+03  0.7546771E-02  0.1311223E+00
         -2   -1    0    0    0  501 -0.00000000000E+00  0.00000000000E+00  0.56792045625E+01  0.56792045625E+01  0.00000000000E+00 0.  1.
          2   -1    0    0  501    0  0.00000000000E+00 -0.00000000000E+00 -0.13036405294E+04  0.13036405294E+04  0.00000000000E+00 0. -1.
         23    2    1    2    0    0 -0.50898466914E+02 -0.24346899935E+01 -0.11020642639E+04  0.11069037263E+04  0.89964637615E+02 0.  0.
         11    1    3    3    0    0 -0.12070778421E+02  0.24482507282E+02 -0.98055667247E+02  0.10178413793E+03  0.00000000000E+00 0.  1.
        -11    1    3    3    0    0 -0.38827688493E+02 -0.26917197275E+02 -0.10040085966E+04  0.10051195884E+04  0.00000000000E+00 0. -1.
         22    1    1    2    0    0  0.50898466914E+02  0.24346899935E+01 -0.19589706102E+03  0.20241600768E+03  0.00000000000E+00 0.  1.
<mgrwt>
<rscale>  0 0.86630377E+02</rscale>
<asrwt>0</asrwt>
<pdfrwt beam="1">  1        2 0.20055991E+00 0.10339351E+03</pdfrwt>
<pdfrwt beam="2">  1       -2 0.87372454E-03 0.10339351E+03</pdfrwt>
<totfact> 0.41952134E+04</totfact>
</mgrwt>
</event>
<event>
 6    1  0.1535970E-002  0.9175847E+02  0.7546771E-02  0.1403952E+00
          2   -1    0    0  501    0  0.00000000000E+00  0.00000000000E+00  0.46718092493E+02  0.46718092493E+02  0.00000000000E+00 0. -1.
         -2   -1    0    0    0  501 -0.00000000000E+00 -0.00000000000E+00 -0.61590049859E+02  0.61590049859E+02  0.00000000000E+00 0.  1.
         23    2    1    2    0    0  0.54822912492E+01 -0.14206546503E+02 -0.99081119384E+01  0.92291861812E+02  0.90486107186E+02 0.  0.
         11    1    3    3    0    0 -0.24926860186E+02 -0.20630968351E+01  0.31038908996E+02  0.39862496145E+02  0.00000000000E+00 0. -1.
        -11    1    3    3    0    0  0.30409151435E+02 -0.12143449668E+02 -0.40947020934E+02  0.52429365667E+02  0.00000000000E+00 0.  1.
         22    1    1    2    0    0 -0.54822912492E+01  0.14206546503E+02 -0.49638454278E+01  0.16016280539E+02  0.00000000000E+00 0.  1.
<mgrwt>
<rscale>  0 0.58565639E+02</rscale>
<asrwt>0</asrwt>
<pdfrwt beam="1">  1        2 0.71873988E-02 0.91758471E+02</pdfrwt>
<pdfrwt beam="2">  1       -2 0.94753924E-02 0.91758471E+02</pdfrwt>
<totfact> 0.60429980E+04</totfact>
</mgrwt>
</event>
<event>
 6    1  0.1535970E-002  0.9214862E+02  0.7546771E-02  0.1402587E+00
         -1   -1    0    0    0  501 -0.00000000000E+00  0.00000000000E+00  0.67674087878E+02  0.67674087878E+02  0.00000000000E+00 0.  1.
          1   -1    0    0  501    0  0.00000000000E+00 -0.00000000000E+00 -0.22795513099E+03  0.22795513099E+03  0.00000000000E+00 0. -1.
         23    2    1    2    0    0 -0.88510751785E+01  0.12555841793E+02 -0.21758945655E+03  0.23629756673E+03  0.90859109332E+02 0.  0.
         11    1    3    3    0    0  0.20462409221E+02 -0.89266983651E+00 -0.19693978017E+03  0.19800197995E+03  0.00000000000E+00 0. -1.
        -11    1    3    3    0    0 -0.29313484400E+02  0.13448511629E+02 -0.20649676380E+02  0.38295586786E+02  0.00000000000E+00 0.  1.
         22    1    1    2    0    0  0.88510751785E+01 -0.12555841793E+02  0.57308413433E+02  0.59331652136E+02  0.00000000000E+00 0.  1.
<mgrwt>
<rscale>  0 0.58881449E+02</rscale>
<asrwt>0</asrwt>
<pdfrwt beam="1">  1        1 0.35070021E-01 0.92148621E+02</pdfrwt>
<pdfrwt beam="2">  1       -1 0.10411398E-01 0.92148621E+02</pdfrwt>
<totfact> 0.65738567E+03</totfact>
</mgrwt>
</event>
<event>
 6    1  0.1535970E-002  0.8459501E+02  0.7546771E-02  0.1349438E+00
         -4   -1    0    0    0  501 -0.00000000000E+00  0.00000000000E+00  0.33106497595E+03  0.33106497595E+03  0.00000000000E+00 0.  1.
          4   -1    0    0  501    0  0.00000000000E+00 -0.00000000000E+00 -0.13742440925E+02  0.13742440925E+02  0.00000000000E+00 0. -1.
         23    2    1    2    0    0 -0.47280218728E+02 -0.46267338913E+01  0.16777396248E+03  0.18789469814E+03  0.69996352441E+02 0.  0.
         13    1    3    3    0    0 -0.45425646594E+02 -0.13787991812E+02  0.17141228538E+03  0.17786446993E+03  0.00000000000E+00 0.  1.
        -13    1    3    3    0    0 -0.18545721340E+01  0.91612579209E+01 -0.36383228952E+01  0.10030228212E+02  0.00000000000E+00 0. -1.
         22    1    1    2    0    0  0.47280218728E+02  0.46267338913E+01  0.14954857255E+03  0.15691271873E+03  0.00000000000E+00 0. -1.
<mgrwt>
<rscale>  0 0.73231141E+02</rscale>
<asrwt>0</asrwt>
<pdfrwt beam="1">  1        4 0.21142219E-02 0.84595006E+02</pdfrwt>
<pdfrwt beam="2">  1       -4 0.50933067E-01 0.84595006E+02</pdfrwt>
<totfact> 0.50168214E+03</totfact>
</mgrwt>
</event>
<event>
 6    1  0.1535970E-002  0.1350585E+03  0.7546771E-02  0.1241818E+00
         -2   -1    0    0    0  501 -0.00000000000E+00  0.00000000000E+00  0.34016310772E+02  0.34016310772E+02  0.00000000000E+00 0.  1.
          2   -1    0    0  501    0  0.00000000000E+00 -0.00000000000E+00 -0.12533207010E+04  0.12533207010E+04  0.00000000000E+00 0. -1.
         23    2    1    2    0    0  0.61570793821E+02 -0.60578791522E+02 -0.11877101571E+04  0.11953644713E+04  0.10382701645E+03 0.  0.
         11    1    3    3    0    0  0.30590855035E+02 -0.69484747622E+02 -0.10864047410E+04  0.10890542649E+04  0.00000000000E+00 0. -1.
        -11    1    3    3    0    0  0.30979938786E+02  0.89059561003E+01 -0.10130541612E+03  0.10631020646E+03  0.00000000000E+00 0.  1.
         22    1    1    2    0    0 -0.61570793821E+02  0.60578791522E+02 -0.31594233136E+02  0.91972540475E+02  0.00000000000E+00 0.  1.
<mgrwt>
<rscale>  0 0.12077841E+03</rscale>
<asrwt>0</asrwt>
<pdfrwt beam="1">  1        2 0.19281855E+00 0.13505851E+03</pdfrwt>
<pdfrwt beam="2">  1       -2 0.52332790E-02 0.13505851E+03</pdfrwt>
<totfact> 0.33634652E+03</totfact>
</mgrwt>
</event>
<event>
 6    1  0.1535970E-002  0.9140802E+02  0.7546771E-02  0.1426676E+00
          2   -1    0    0  501    0  0.00000000000E+00  0.00000000000E+00  0.76106016852E+03  0.76106016852E+03  0.00000000000E+00 0. -1.
         -2   -1    0    0    0  501 -0.00000000000E+00 -0.00000000000E+00 -0.39465369689E+01  0.39465369689E+01  0.00000000000E+00 0.  1.
         23    2    1    2    0    0 -0.62972632947E+01  0.88155347529E+01  0.73159932824E+03  0.73728759923E+03  0.90763746777E+02 0.  0.
         11    1    3    3    0    0  0.36940597410E+02 -0.13579803124E+02  0.42827885838E+03  0.43008347948E+03  0.00000000000E+00 0. -1.
        -11    1    3    3    0    0 -0.43237860704E+02  0.22395337876E+02  0.30332046986E+03  0.30720411975E+03  0.00000000000E+00 0.  1.
         22    1    1    2    0    0  0.62972632947E+01 -0.88155347529E+01  0.25514303314E+02  0.27719106255E+02  0.00000000000E+00 0. -1.
<mgrwt>
<rscale>  0 0.53633051E+02</rscale>
<asrwt>0</asrwt>
<pdfrwt beam="1">  1        2 0.11708606E+00 0.91408024E+02</pdfrwt>
<pdfrwt beam="2">  1       -2 0.60716014E-03 0.91408024E+02</pdfrwt>
<totfact> 0.14417179E+05</totfact>
</mgrwt>
</event>
<event>
 6    1  0.1535970E-002  0.9708130E+02  0.7546771E-02  0.1344216E+00
          3   -1    0    0  501    0  0.00000000000E+00  0.00000000000E+00  0.24006477248E+02  0.24006477248E+02  0.00000000000E+00 0.  1.
         -3   -1    0    0    0  501 -0.00000000000E+00 -0.00000000000E+00 -0.23512012543E+03  0.23512012543E+03  0.00000000000E+00 0. -1.
         23    2    1    2    0    0 -0.31013435534E+02  0.14828402598E+02 -0.87067155570E+02  0.13040501538E+03  0.90791319795E+02 0.  0.
         13    1    3    3    0    0 -0.13864702467E+02 -0.23792128177E+02 -0.83586023034E+02  0.88005219074E+02  0.00000000000E+00 0. -1.
        -13    1    3    3    0    0 -0.17148733066E+02  0.38620530775E+02 -0.34811325364E+01  0.42399796307E+02  0.00000000000E+00 0.  1.
         22    1    1    2    0    0  0.31013435534E+02 -0.14828402598E+02 -0.12404649261E+03  0.12872158730E+03  0.00000000000E+00 0.  1.
<mgrwt>
<rscale>  0 0.74888609E+02</rscale>
<asrwt>0</asrwt>
<pdfrwt beam="1">  1        3 0.36933043E-02 0.97081298E+02</pdfrwt>
<pdfrwt beam="2">  1       -3 0.36172326E-01 0.97081298E+02</pdfrwt>
<totfact> 0.58776758E+03</totfact>
</mgrwt>
</event>
<event>
 6    1  0.1535970E-002  0.1126030E+03  0.7546771E-02  0.1286956E+00
         -2   -1    0    0    0  501 -0.00000000000E+00  0.00000000000E+00  0.12153042853E+03  0.12153042853E+03  0.00000000000E+00 0.  1.
          2   -1    0    0  501    0  0.00000000000E+00 -0.00000000000E+00 -0.75183639555E+02  0.75183639555E+02  0.00000000000E+00 0. -1.
         23    2    1    2    0    0 -0.21230368711E+00 -0.61747679768E+02 -0.10098198060E+02  0.11305489291E+03  0.94162700564E+02 0.  0.
         13    1    3    3    0    0  0.44872935156E+02 -0.35522559390E+02  0.81250233925E+01  0.57805263949E+02  0.00000000000E+00 0.  1.
        -13    1    3    3    0    0 -0.45085238843E+02 -0.26225120378E+02 -0.18223221452E+02  0.55249628962E+02  0.00000000000E+00 0. -1.
         22    1    1    2    0    0  0.21230368711E+00  0.61747679768E+02  0.56444987035E+02  0.83659175175E+02  0.00000000000E+00 0.  1.
<mgrwt>
<rscale>  0 0.96898771E+02</rscale>
<asrwt>0</asrwt>
<pdfrwt beam="1">  1        2 0.11566714E-01 0.11260300E+03</pdfrwt>
<pdfrwt beam="2">  1       -2 0.18696989E-01 0.11260300E+03</pdfrwt>
<totfact> 0.11605615E+04</totfact>
</mgrwt>
</event>
<event>
 6    1  0.1535970E-002  0.9589011E+02  0.7546771E-02  0.1364420E+00
         -4   -1    0    0    0  501 -0.00000000000E+00  0.00000000000E+00  0.60546987689E+02  0.60546987689E+02  0.00000000000E+00 0.  1.
          4   -1    0    0  501    0  0.00000000000E+00 -0.00000000000E+00 -0.88328874278E+02  0.88328874278E+02  0.00000000000E+00 0. -1.
         23    2    1    2    0    0 -0.22500118397E+02 -0.11629314094E+02 -0.55930629700E+02  0.11100967635E+03  0.92484683226E+02 0.  0.
         11    1    3    3    0    0 -0.56499675805E+02 -0.21964805871E+01 -0.49492060901E+02  0.75143209842E+02  0.00000000000E+00 0. -1.
        -11    1    3    3    0    0  0.33999557408E+02 -0.94328335071E+01 -0.64385687992E+01  0.35866466512E+02  0.00000000000E+00 0.  1.
         22    1    1    2    0    0  0.22500118397E+02  0.11629314094E+02  0.28148743111E+02  0.37866185614E+02  0.00000000000E+00 0.  1.
<mgrwt>
<rscale>  0 0.68743181E+02</rscale>
<asrwt>0</asrwt>
<pdfrwt beam="1">  1        4 0.13589058E-01 0.95890108E+02</pdfrwt>
<pdfrwt beam="2">  1       -4 0.93149212E-02 0.95890108E+02</pdfrwt>
<totfact> 0.57014378E+03</totfact>
</mgrwt>
</event>
<event>
 6    1  0.1535970E-002  0.1043083E+03  0.7546771E-02  0.1313943E+00
         -2   -1    0    0    0  501 -0.00000000000E+00  0.00000000000E+00  0.41748372610E+02  0.41748372610E+02  0.00000000000E+00 0.  1.
          2   -1    0    0  501    0  0.00000000000E+00 -0.00000000000E+00 -0.26452200016E+03  0.26452200016E+03  0.00000000000E+00 0. -1.
         23    2    1    2    0    0 -0.33875969791E+02  0.32935125578E+02 -0.23530615486E+03  0.25738921007E+03  0.92994167111E+02 0.  0.
         11    1    3    3    0    0 -0.47964454222E+02  0.22988978486E+02 -0.23413864887E+03  0.24010412095E+03  0.00000000000E+00 0. -1.
        -11    1    3    3    0    0  0.14088484431E+02  0.99461470926E+01 -0.11675059888E+01  0.17285089117E+02  0.00000000000E+00 0.  1.
         22    1    1    2    0    0  0.33875969791E+02 -0.32935125578E+02  0.12532527315E+02  0.48881162701E+02  0.00000000000E+00 0.  1.
<mgrwt>
<rscale>  0 0.85572314E+02</rscale>
<asrwt>0</asrwt>
<pdfrwt beam="1">  1        2 0.40695691E-01 0.10430829E+03</pdfrwt>
<pdfrwt beam="2">  1       -2 0.64228268E-02 0.10430829E+03</pdfrwt>
<totfact> 0.15289139E+04</totfact>
</mgrwt>
</event>
<event>
 6    1  0.1535970E-002  0.9273337E+02  0.7546771E-02  0.1424673E+00
         -4   -1    0    0    0  501 -0.00000000000E+00  0.00000000000E+00  0.74844117988E+02  0.74844117988E+02  0.00000000000E+00 0.  1.
          4   -1    0    0  501    0  0.00000000000E+00 -0.00000000000E+00 -0.37777477935E+02  0.37777477935E+02  0.00000000000E+00 0. -1.
         23    2    1    2    0    0  0.28504349011E+01 -0.10310988800E+02  0.24104227160E+02  0.95814882467E+02  0.92114257670E+02 0.  0.
         11    1    3    3    0    0  0.36028190117E+02 -0.35496314162E+02  0.18162493720E+02  0.53739138255E+02  0.00000000000E+00 0.  1.
        -11    1    3    3    0    0 -0.33177755216E+02  0.25185325362E+02  0.59417334399E+01  0.42075744213E+02  0.00000000000E+00 0. -1.
         22    1    1    2    0    0 -0.28504349011E+01  0.10310988800E+02  0.12962412893E+02  0.16806713456E+02  0.00000000000E+00 0.  1.
<mgrwt>
<rscale>  0 0.54044308E+02</rscale>
<asrwt>0</asrwt>
<pdfrwt beam="1">  1        4 0.58119197E-02 0.92733370E+02</pdfrwt>
<pdfrwt beam="2">  1       -4 0.11514480E-01 0.92733370E+02</pdfrwt>
<totfact> 0.16185405E+04</totfact>
</mgrwt>
</event>
<event>
 6    1  0.1535970E-002  0.9807284E+02  0.7546771E-02  0.1340821E+00
          3   -1    0    0  501    0  0.00000000000E+00  0.00000000000E+00  0.51232987446E+03  0.51232987446E+03  0.00000000000E+00 0. -1.
         -3   -1    0    0    0  501 -0.00000000000E+00 -0.00000000000E+00 -0.13160340615E+02  0.13160340615E+02  0.00000000000E+00 0.  1.
         23    2    1    2    0    0  0.35206047288E+02 -0.32565155555E+01  0.46859403964E+03  0.47874696417E+03  0.91477926623E+02 0.  0.
         13    1    3    3    0    0 -0.28500267468E+02 -0.16437053104E+02  0.16860472458E+03  0.17178473480E+03  0.00000000000E+00 0.  1.
        -13    1    3    3    0    0  0.63706314756E+02  0.13180537548E+02  0.29998931506E+03  0.30696222937E+03  0.00000000000E+00 0. -1.
         22    1    1    2    0    0 -0.35206047288E+02  0.32565155555E+01  0.30575494210E+02  0.46743250907E+02  0.00000000000E+00 0.  1.
<mgrwt>
<rscale>  0 0.75993838E+02</rscale>
<asrwt>0</asrwt>
<pdfrwt beam="1">  1        3 0.78819965E-01 0.98072839E+02</pdfrwt>
<pdfrwt beam="2">  1       -3 0.20246682E-02 0.98072839E+02</pdfrwt>
<totfact> 0.30964458E+03</totfact>
</mgrwt>
</event>
<event>
 6    1  0.1535970E-002  0.9278541E+02  0.7546771E-02  0.1396887E+00
         -2   -1    0    0    0  501 -0.00000000000E+00  0.00000000000E+00  0.23443065335E+02  0.23443065335E+02  0.00000000000E+00 0.  1.
          2   -1    0    0  501    0  0.00000000000E+00 -0.00000000000E+00 -0.27161924716E+03  0.27161924716E+03  0.00000000000E+00 0. -1.
         23    2    1    2    0    0 -0.16643103267E+01 -0.16385498271E+02 -0.25915789527E+03  0.27526704759E+03  0.91311983453E+02 0.  0.
         13    1    3    3    0    0 -0.11190495455E-01  0.37656681875E+02 -0.86492836000E+02  0.94334704613E+02  0.00000000000E+00 0.  1.
        -13    1    3    3    0    0 -0.16531198312E+01 -0.54042180146E+02 -0.17266505927E+03  0.18093234297E+03  0.00000000000E+00 0. -1.
         22    1    1    2    0    0  0.16643103267E+01  0.16385498271E+02  0.10981713450E+02  0.19795264907E+02  0.00000000000E+00 0.  1.
<mgrwt>
<rscale>  0 0.60225705E+02</rscale>
<asrwt>0</asrwt>
<pdfrwt beam="1">  1        2 0.41787578E-01 0.92785413E+02</pdfrwt>
<pdfrwt beam="2">  1       -2 0.36066253E-02 0.92785413E+02</pdfrwt>
<totfact> 0.34634654E+04</totfact>
</mgrwt>
</event>
<event>
 6    1  0.1535970E-002  0.9216678E+02  0.7546771E-02  0.1429881E+00
          2   -1    0    0  501    0  0.00000000000E+00  0.00000000000E+00  0.37197226582E+03  0.37197226582E+03  0.00000000000E+00 0. -1.
         -2   -1    0    0    0  501 -0.00000000000E+00 -0.00000000000E+00 -0.70621808652E+01  0.70621808652E+01  0.00000000000E+00 0.  1.
         23    2    1    2    0    0 -0.95373151425E+01  0.32191448521E+01  0.31989716998E+03  0.33290977012E+03  0.91615459430E+02 0.  0.
         11    1    3    3    0    0  0.20468481105E+02 -0.36318675679E+02  0.16866271757E+03  0.17373864630E+03  0.00000000000E+00 0.  1.
        -11    1    3    3    0    0 -0.30005796248E+02  0.39537820531E+02  0.15123445242E+03  0.15917112382E+03  0.00000000000E+00 0. -1.
         22    1    1    2    0    0  0.95373151425E+01 -0.32191448521E+01  0.45012914974E+02  0.46124676564E+02  0.00000000000E+00 0. -1.
<mgrwt>
<rscale>  0 0.52983967E+02</rscale>
<asrwt>0</asrwt>
<pdfrwt beam="1">  1        2 0.57226487E-01 0.92166782E+02</pdfrwt>
<pdfrwt beam="2">  1       -2 0.10864897E-02 0.92166782E+02</pdfrwt>
<totfact> 0.13983457E+05</totfact>
</mgrwt>
</event>
<event>
 6    1  0.1535970E-002  0.9516209E+02  0.7546771E-02  0.1365729E+00
         -2   -1    0    0    0  501 -0.00000000000E+00  0.00000000000E+00  0.33488369825E+03  0.33488369825E+03  0.00000000000E+00 0.  1.
          2   -1    0    0  501    0  0.00000000000E+00 -0.00000000000E+00 -0.10940956752E+02  0.10940956752E+02  0.00000000000E+00 0. -1.
         23    2    1    2    0    0 -0.11565787731E+02 -0.22561945187E+02  0.24155562901E+03  0.25962462530E+03  0.91722490917E+02 0.  0.
         11    1    3    3    0    0 -0.51723266012E+02 -0.14064383596E+02  0.12326894740E+03  0.13441851258E+03  0.00000000000E+00 0. -1.
        -11    1    3    3    0    0  0.40157478280E+02 -0.84975615904E+01  0.11828668162E+03  0.12520611272E+03  0.00000000000E+00 0.  1.
         22    1    1    2    0    0  0.11565787731E+02  0.22561945187E+02  0.82387112486E+02  0.86200029700E+02  0.00000000000E+00 0. -1.
<mgrwt>
<rscale>  0 0.68368842E+02</rscale>
<asrwt>0</asrwt>
<pdfrwt beam="1">  1        2 0.16832244E-02 0.95162094E+02</pdfrwt>
<pdfrwt beam="2">  1       -2 0.51520561E-01 0.95162094E+02</pdfrwt>
<totfact> 0.22208081E+04</totfact>
</mgrwt>
</event>
<event>
 6    1  0.1535970E-002  0.9339826E+02  0.7546771E-02  0.1404175E+00
         -2   -1    0    0    0  501 -0.00000000000E+00  0.00000000000E+00  0.36334494731E+01  0.36334494731E+01  0.00000000000E+00 0.  1.
          2   -1    0    0  501    0  0.00000000000E+00 -0.00000000000E+00 -0.80717161857E+03  0.80717161857E+03  0.00000000000E+00 0. -1.
         23    2    1    2    0    0  0.10187024497E+02 -0.10162060358E+02 -0.72066644374E+03  0.72669344101E+03  0.92283211543E+02 0.  0.
         13    1    3    3    0    0 -0.15626641451E+02  0.27330495773E+02 -0.11238941207E+03  0.11671558537E+03  0.00000000000E+00 0.  1.
        -13    1    3    3    0    0  0.25813665948E+02 -0.37492556130E+02 -0.60827703167E+03  0.60997785564E+03  0.00000000000E+00 0. -1.
         22    1    1    2    0    0 -0.10187024497E+02  0.10162060358E+02 -0.82871725357E+02  0.84111627035E+02  0.00000000000E+00 0.  1.
<mgrwt>
<rscale>  0 0.58514248E+02</rscale>
<asrwt>0</asrwt>
<pdfrwt beam="1">  1        2 0.12418015E+00 0.93398255E+02</pdfrwt>
<pdfrwt beam="2">  1       -2 0.55899266E-03 0.93398255E+02</pdfrwt>
<totfact> 0.15123979E+05</totfact>
</mgrwt>
</event>
<event>
 6    1  0.1535970E-002  0.9220698E+02  0.7546771E-02  0.1378004E+00
          2   -1    0    0  501    0  0.00000000000E+00  0.00000000000E+00  0.15050864832E+04  0.15050864832E+04  0.00000000000E+00 0. -1.
         -2   -1    0    0    0  501 -0.00000000000E+00 -0.00000000000E+00 -0.45313002554E+01  0.45313002554E+01  0.00000000000E+00 0.  1.
         23    2    1    2    0    0 -0.20575503575E+02 -0.97243743149E+01  0.14615742014E+04  0.14644798645E+04  0.89354421360E+02 0.  0.
         11    1    3    3    0    0 -0.34263669098E+02 -0.42137600361E+02  0.10503552061E+04  0.10517583541E+04  0.00000000000E+00 0. -1.
        -11    1    3    3    0    0  0.13688165523E+02  0.32413226046E+02  0.41121899522E+03  0.41272151037E+03  0.00000000000E+00 0.  1.
         22    1    1    2    0    0  0.20575503575E+02  0.97243743149E+01  0.38980981593E+02  0.45137918973E+02  0.00000000000E+00 0.  1.
<mgrwt>
<rscale>  0 0.64991288E+02</rscale>
<asrwt>0</asrwt>
<pdfrwt beam="1">  1        2 0.23155137E+00 0.92206981E+02</pdfrwt>
<pdfrwt beam="2">  1       -2 0.69712432E-03 0.92206981E+02</pdfrwt>
<totfact> 0.44855669E+04</totfact>
</mgrwt>
</event>
<event>
 6    1  0.1535970E-002  0.1215413E+03  0.7546771E-02  0.1355792E+00
         -2   -1    0    0    0  501 -0.00000000000E+00  0.00000000000E+00  0.26313644100E+01  0.26313644100E+01  0.00000000000E+00 0.  1.
          2   -1    0    0  501    0  0.00000000000E+00 -0.00000000000E+00 -0.21507329729E+04  0.21507329729E+04  0.00000000000E+00 0. -1.
         23    2    1    2    0    0 -0.13162976806E+02 -0.57858897147E+01 -0.20892278980E+04  0.20927602594E+04  0.12068783231E+03 0.  0.
         13    1    3    3    0    0 -0.34471027450E+02 -0.43314053729E+01 -0.20203135136E+04  0.20206122107E+04  0.00000000000E+00 0. -1.
        -13    1    3    3    0    0  0.21308050644E+02 -0.14544843418E+01 -0.68914384425E+02  0.72148048675E+02  0.00000000000E+00 0.  1.
         22    1    1    2    0    0  0.13162976806E+02  0.57858897147E+01 -0.58873710489E+02  0.60604077956E+02  0.00000000000E+00 0.  1.
<mgrwt>
<rscale>  0 0.71280569E+02</rscale>
<asrwt>0</asrwt>
<pdfrwt beam="1">  1        2 0.33088160E+00 0.12154132E+03</pdfrwt>
<pdfrwt beam="2">  1       -2 0.40482577E-03 0.12154132E+03</pdfrwt>
<totfact> 0.46390690E+04</totfact>
</mgrwt>
</event>
<event>
 6    1  0.1535970E-002  0.9370727E+02  0.7546771E-02  0.1400282E+00
          2   -1    0    0  501    0  0.00000000000E+00  0.00000000000E+00  0.39208262557E+02  0.39208262557E+02  0.00000000000E+00 0. -1.
         -2   -1    0    0    0  501 -0.00000000000E+00 -0.00000000000E+00 -0.76486717753E+02  0.76486717753E+02  0.00000000000E+00 0.  1.
         23    2    1    2    0    0  0.41667105094E+00  0.15144121114E+02 -0.27483397802E+02  0.97654437955E+02  0.92474505019E+02 0.  0.
         13    1    3    3    0    0 -0.11199377426E+02 -0.20436734668E+02  0.24359865369E+02  0.33711855769E+02  0.00000000000E+00 0. -1.
        -13    1    3    3    0    0  0.11616048477E+02  0.35580855782E+02 -0.51843263170E+02  0.63942582186E+02  0.00000000000E+00 0.  1.
         22    1    1    2    0    0 -0.41667105094E+00 -0.15144121114E+02 -0.97950573944E+01  0.18040542354E+02  0.00000000000E+00 0.  1.
<mgrwt>
<rscale>  0 0.59419919E+02</rscale>
<asrwt>0</asrwt>
<pdfrwt beam="1">  1        2 0.60320404E-02 0.93707268E+02</pdfrwt>
<pdfrwt beam="2">  1       -2 0.11767187E-01 0.93707268E+02</pdfrwt>
<totfact> 0.53900276E+04</totfact>
</mgrwt>
</event>
<event>
 6    1  0.1535970E-002  0.9828269E+02  0.7546771E-02  0.1404923E+00
          1   -1    0    0  501    0  0.00000000000E+00  0.00000000000E+00  0.80057107179E+02  0.80057107179E+02  0.00000000000E+00 0. -1.
         -1   -1    0    0    0  501 -0.00000000000E+00 -0.00000000000E+00 -0.85632616053E+02  0.85632616053E+02  0.00000000000E+00 0.  1.
         23    2    1    2    0    0  0.99865743394E+01 -0.70146807213E+01  0.48962096922E+02  0.10980333975E+03  0.97522044034E+02 0.  0.
         11    1    3    3    0    0  0.28279416753E+02  0.21921679021E+02  0.63280474990E+02  0.72695969200E+02  0.00000000000E+00 0. -1.
        -11    1    3    3    0    0 -0.18292842414E+02 -0.28936359742E+02 -0.14318378067E+02  0.37107370551E+02  0.00000000000E+00 0.  1.
         22    1    1    2    0    0 -0.99865743394E+01  0.70146807213E+01 -0.54537605796E+02  0.55886383481E+02  0.00000000000E+00 0.  1.
<mgrwt>
<rscale>  0 0.58342259E+02</rscale>
<asrwt>0</asrwt>
<pdfrwt beam="1">  1        1 0.12316478E-01 0.98282687E+02</pdfrwt>
<pdfrwt beam="2">  1       -1 0.13174249E-01 0.98282687E+02</pdfrwt>
<totfact> 0.17189152E+04</totfact>
</mgrwt>
</event>
<event>
 6    1  0.1535970E-002  0.9992071E+02  0.7546771E-02  0.1327092E+00
          2   -1    0    0  501    0  0.00000000000E+00  0.00000000000E+00  0.10952554699E+04  0.10952554699E+04  0.00000000000E+00 0. -1.
         -2   -1    0    0    0  501 -0.00000000000E+00 -0.00000000000E+00 -0.56396868483E+01  0.56396868483E+01  0.00000000000E+00 0.  1.
         23    2    1    2    0    0 -0.17441674316E+02 -0.38758722652E+02  0.94193455386E+03  0.94721953721E+03  0.90430621659E+02 0.  0.
         13    1    3    3    0    0 -0.51232408756E+02 -0.22187092948E+02  0.71585100421E+03  0.71802485126E+03  0.00000000000E+00 0. -1.
        -13    1    3    3    0    0  0.33790734440E+02 -0.16571629705E+02  0.22608354965E+03  0.22919468595E+03  0.00000000000E+00 0.  1.
         22    1    1    2    0    0  0.17441674316E+02  0.38758722652E+02  0.14768122918E+03  0.15367561953E+03  0.00000000000E+00 0.  1.
<mgrwt>
<rscale>  0 0.80694677E+02</rscale>
<asrwt>0</asrwt>
<pdfrwt beam="1">  1        2 0.16850067E+00 0.99920708E+02</pdfrwt>
<pdfrwt beam="2">  1       -2 0.86764500E-03 0.99920708E+02</pdfrwt>
<totfact> 0.54894509E+04</totfact>
</mgrwt>
</event>
<event>
 6    1  0.1535970E-002  0.9567171E+02  0.7546771E-02  0.1382797E+00
         -2   -1    0    0    0  501 -0.00000000000E+00  0.00000000000E+00  0.31149533436E+01  0.31149533436E+01  0.00000000000E+00 0.  1.
          2   -1    0    0  501    0  0.00000000000E+00 -0.00000000000E+00 -0.11092412180E+04  0.11092412180E+04  0.00000000000E+00 0. -1.
         23    2    1    2    0    0  0.15434740170E+02  0.10808116886E+02 -0.10003682606E+04  0.10049327009E+04  0.93797813360E+02 0.  0.
         11    1    3    3    0    0  0.38821325724E+02 -0.17111902624E+02 -0.81009251132E+03  0.81120268087E+03  0.00000000000E+00 0. -1.
        -11    1    3    3    0    0 -0.23386585554E+02  0.27920019511E+02 -0.19027574931E+03  0.19373002000E+03  0.00000000000E+00 0.  1.
         22    1    1    2    0    0 -0.15434740170E+02 -0.10808116886E+02 -0.10575800404E+03  0.10742347050E+03  0.00000000000E+00 0.  1.
<mgrwt>
<rscale>  0 0.63734316E+02</rscale>
<asrwt>0</asrwt>
<pdfrwt beam="1">  1        2 0.17065272E+00 0.95671712E+02</pdfrwt>
<pdfrwt beam="2">  1       -2 0.47922297E-03 0.95671712E+02</pdfrwt>
<totfact> 0.12377727E+05</totfact>
</mgrwt>
</event>
<event>
 6    1  0.1535970E-002  0.1005946E+03  0.7546771E-02  0.1326503E+00
         -1   -1    0    0    0  501 -0.00000000000E+00  0.00000000000E+00  0.49565417068E+02  0.49565417068E+02  0.00000000000E+00 0.  1.
          1   -1    0    0  501    0  0.00000000000E+00 -0.00000000000E+00 -0.10805911593E+03  0.10805911593E+03  0.00000000000E+00 0. -1.
         23    2    1    2    0    0 -0.32741000773E+02  0.26448812927E+02 -0.56751942070E+02  0.11549916590E+03  0.91366085378E+02 0.  0.
         13    1    3    3    0    0  0.20433226720E+02 -0.70858906068E+01 -0.47191114991E+02  0.51910768960E+02  0.00000000000E+00 0. -1.
        -13    1    3    3    0    0 -0.53174227493E+02  0.33534703534E+02 -0.95608270783E+01  0.63588396937E+02  0.00000000000E+00 0.  1.
         22    1    1    2    0    0  0.32741000773E+02 -0.26448812927E+02 -0.17417567945E+01  0.42125367103E+02  0.00000000000E+00 0.  1.
<mgrwt>
<rscale>  0 0.80904756E+02</rscale>
<asrwt>0</asrwt>
<pdfrwt beam="1">  1        1 0.16624480E-01 0.10059460E+03</pdfrwt>
<pdfrwt beam="2">  1       -1 0.76254487E-02 0.10059460E+03</pdfrwt>
<totfact> 0.26823593E+04</totfact>
</mgrwt>
</event>
<event>
 6    1  0.1535970E-002  0.9252488E+02  0.7546771E-02  0.1406485E+00
          1   -1    0    0  501    0  0.00000000000E+00  0.00000000000E+00  0.93297054324E+02  0.93297054324E+02  0.00000000000E+00 0. -1.
         -1   -1    0    0    0  501 -0.00000000000E+00 -0.00000000000E+00 -0.31776203419E+02  0.31776203419E+02  0.00000000000E+00 0.  1.
         23    2    1    2    0    0  0.13315649477E+02  0.51381011199E+01  0.60936767797E+02  0.11078872915E+03  0.91417428495E+02 0.  0.
         11    1    3    3    0    0 -0.26506337137E+01  0.38482318427E+02  0.62879304553E+02  0.73768025808E+02  0.00000000000E+00 0. -1.
        -11    1    3    3    0    0  0.15966283190E+02 -0.33344217307E+02 -0.19425367560E+01  0.37020703340E+02  0.00000000000E+00 0.  1.
         22    1    1    2    0    0 -0.13315649477E+02 -0.51381011199E+01  0.58408310788E+00  0.14284528595E+02  0.00000000000E+00 0.  1.
<mgrwt>
<rscale>  0 0.57985516E+02</rscale>
<asrwt>0</asrwt>
<pdfrwt beam="1">  1        1 0.14353393E-01 0.92524877E+02</pdfrwt>
<pdfrwt beam="2">  1       -1 0.48886467E-02 0.92524877E+02</pdfrwt>
<totfact> 0.61746305E+04</totfact>
</mgrwt>
</event>
<event>
 6    1  0.1535970E-002  0.8419219E+02  0.7546771E-02  0.1415856E+00
         -4   -1    0    0    0  501 -0.00000000000E+00  0.00000000000E+00  0.43599502215E+02  0.43599502215E+02  0.00000000000E+00 0. -1.
          4   -1    0    0  501    0  0.00000000000E+00 -0.00000000000E+00 -0.58908748599E+02  0.58908748599E+02  0.00000000000E+00 0.  1.
         23    2    1    2    0    0  0.14766779902E+02 -0.70665436482E+01 -0.17500246497E+02  0.85991764830E+02  0.82585296290E+02 0.  0.
         13    1    3    3    0    0 -0.28124244407E+02 -0.21807556853E+02 -0.19525773516E+02  0.40593084273E+02  0.00000000000E+00 0.  1.
        -13    1    3    3    0    0  0.42891024309E+02  0.14741013205E+02  0.20255270191E+01  0.45398680557E+02  0.00000000000E+00 0. -1.
         22    1    1    2    0    0 -0.14766779902E+02  0.70665436482E+01  0.21910001132E+01  0.16516485985E+02  0.00000000000E+00 0.  1.
<mgrwt>
<rscale>  0 0.55907421E+02</rscale>
<asrwt>0</asrwt>
<pdfrwt beam="1">  1        4 0.90628843E-02 0.84192191E+02</pdfrwt>
<pdfrwt beam="2">  1       -4 0.67076158E-02 0.84192191E+02</pdfrwt>
<totfact> 0.18584990E+04</totfact>
</mgrwt>
</event>
<event>
 6    1  0.1535970E-002  0.8608089E+02  0.7546771E-02  0.1404046E+00
         -2   -1    0    0    0  501 -0.00000000000E+00  0.00000000000E+00  0.72526188158E+01  0.72526188158E+01  0.00000000000E+00 0.  1.
          2   -1    0    0  501    0  0.00000000000E+00 -0.00000000000E+00 -0.74338591748E+03  0.74338591748E+03  0.00000000000E+00 0. -1.
         23    2    1    2    0    0  0.12414999722E+02 -0.13602545145E+02 -0.72278637271E+03  0.72789426482E+03  0.84087803696E+02 0.  0.
         11    1    3    3    0    0 -0.12720693776E+02 -0.10699194162E+02 -0.27399313053E+02  0.32047014863E+02  0.00000000000E+00 0.  1.
        -11    1    3    3    0    0  0.25135693498E+02 -0.29033509834E+01 -0.69538705965E+03  0.69584724995E+03  0.00000000000E+00 0. -1.
         22    1    1    2    0    0 -0.12414999722E+02  0.13602545145E+02 -0.13346925954E+02  0.22744271475E+02  0.00000000000E+00 0.  1.
<mgrwt>
<rscale>  0 0.58543797E+02</rscale>
<asrwt>0</asrwt>
<pdfrwt beam="1">  1        2 0.11436707E+00 0.86080893E+02</pdfrwt>
<pdfrwt beam="2">  1       -2 0.11157874E-02 0.86080893E+02</pdfrwt>
<totfact> 0.62343990E+04</totfact>
</mgrwt>
</event>
<event>
 6    1  0.1535970E-002  0.9826319E+02  0.7546771E-02  0.1340313E+00
         -2   -1    0    0    0  501 -0.00000000000E+00  0.00000000000E+00  0.95426062196E+01  0.95426062196E+01  0.00000000000E+00 0.  1.
          2   -1    0    0  501    0  0.00000000000E+00 -0.00000000000E+00 -0.87429563347E+03  0.87429563347E+03  0.00000000000E+00 0. -1.
         23    2    1    2    0    0  0.21865313166E+02 -0.27918637333E+02 -0.82390823885E+03  0.82974721483E+03  0.91641214804E+02 0.  0.
         11    1    3    3    0    0 -0.82421948730E+01 -0.20678173542E+02 -0.73955272529E+03  0.73988766317E+03  0.00000000000E+00 0. -1.
        -11    1    3    3    0    0  0.30107508039E+02 -0.72404637906E+01 -0.84355513562E+02  0.89859551660E+02  0.00000000000E+00 0.  1.
         22    1    1    2    0    0 -0.21865313166E+02  0.27918637333E+02 -0.40844788400E+02  0.54091024855E+02  0.00000000000E+00 0.  1.
<mgrwt>
<rscale>  0 0.76161145E+02</rscale>
<asrwt>0</asrwt>
<pdfrwt beam="1">  1        2 0.13450704E+00 0.98263190E+02</pdfrwt>
<pdfrwt beam="2">  1       -2 0.14680930E-02 0.98263190E+02</pdfrwt>
<totfact> 0.35107440E+04</totfact>
</mgrwt>
</event>
<event>
 6    1  0.1535970E-002  0.9295359E+02  0.7546771E-02  0.1403539E+00
          1   -1    0    0  501    0  0.00000000000E+00  0.00000000000E+00  0.44084717263E+03  0.44084717263E+03  0.00000000000E+00 0. -1.
         -1   -1    0    0    0  501 -0.00000000000E+00 -0.00000000000E+00 -0.70255927234E+01  0.70255927234E+01  0.00000000000E+00 0.  1.
         23    2    1    2    0    0 -0.28080465030E+01  0.14473511664E+02  0.40462631560E+03  0.41516602105E+03  0.91776914813E+02 0.  0.
         11    1    3    3    0    0 -0.16617400999E+01 -0.30846567302E+02  0.59177023587E+02  0.66754716800E+02  0.00000000000E+00 0.  1.
        -11    1    3    3    0    0 -0.11463064032E+01  0.45320078966E+02  0.34544929201E+03  0.34841130425E+03  0.00000000000E+00 0. -1.
         22    1    1    2    0    0  0.28080465030E+01 -0.14473511664E+02  0.29195264306E+02  0.32706744303E+02  0.00000000000E+00 0. -1.
<mgrwt>
<rscale>  0 0.58660936E+02</rscale>
<asrwt>0</asrwt>
<pdfrwt beam="1">  1        1 0.67822620E-01 0.92953589E+02</pdfrwt>
<pdfrwt beam="2">  1       -1 0.10808608E-02 0.92953589E+02</pdfrwt>
<totfact> 0.78289722E+04</totfact>
</mgrwt>
</event>
<event>
 6    1  0.1535970E-002  0.1013457E+03  0.7546771E-02  0.1325402E+00
          2   -1    0    0  501    0  0.00000000000E+00  0.00000000000E+00  0.97254649621E+02  0.97254649621E+02  0.00000000000E+00 0. -1.
         -2   -1    0    0    0  501 -0.00000000000E+00 -0.00000000000E+00 -0.63045068713E+02  0.63045068713E+02  0.00000000000E+00 0.  1.
         23    2    1    2    0    0 -0.39006867204E+02 -0.15492519337E+02  0.52939113430E+02  0.11433941772E+03  0.92246403011E+02 0.  0.
         11    1    3    3    0    0 -0.46413923213E+02 -0.11736667953E+02 -0.11606535486E+02  0.49261681951E+02  0.00000000000E+00 0.  1.
        -11    1    3    3    0    0  0.74070560094E+01 -0.37558513842E+01  0.64545648916E+02  0.65077735765E+02  0.00000000000E+00 0. -1.
         22    1    1    2    0    0  0.39006867204E+02  0.15492519337E+02 -0.18729532522E+02  0.45960300618E+02  0.00000000000E+00 0. -1.
<mgrwt>
<rscale>  0 0.81300088E+02</rscale>
<asrwt>0</asrwt>
<pdfrwt beam="1">  1        2 0.14962254E-01 0.10134571E+03</pdfrwt>
<pdfrwt beam="2">  1       -2 0.96992413E-02 0.10134571E+03</pdfrwt>
<totfact> 0.24336119E+04</totfact>
</mgrwt>
</event>
<event>
 6    1  0.1535970E-002  0.9372982E+02  0.7546771E-02  0.1401302E+00
         -2   -1    0    0    0  501 -0.00000000000E+00  0.00000000000E+00  0.10034921036E+02  0.10034921036E+02  0.00000000000E+00 0.  1.
          2   -1    0    0  501    0  0.00000000000E+00 -0.00000000000E+00 -0.29396620067E+03  0.29396620067E+03  0.00000000000E+00 0. -1.
         23    2    1    2    0    0  0.35548625233E+01 -0.14466272481E+02 -0.24503670855E+03  0.26235141886E+03  0.92538469598E+02 0.  0.
         11    1    3    3    0    0 -0.15636393303E+02 -0.50496250451E+02 -0.13418652707E+03  0.14422341056E+03  0.00000000000E+00 0. -1.
        -11    1    3    3    0    0  0.19191255826E+02  0.36029977969E+02 -0.11085018148E+03  0.11812800831E+03  0.00000000000E+00 0.  1.
         22    1    1    2    0    0 -0.35548625233E+01  0.14466272481E+02 -0.38894571087E+02  0.41649702846E+02  0.00000000000E+00 0. -1.
<mgrwt>
<rscale>  0 0.59180749E+02</rscale>
<asrwt>0</asrwt>
<pdfrwt beam="1">  1        2 0.45225562E-01 0.93729816E+02</pdfrwt>
<pdfrwt beam="2">  1       -2 0.15438343E-02 0.93729816E+02</pdfrwt>
<totfact> 0.10879570E+05</totfact>
</mgrwt>
</event>
<event>
 6    1  0.1535970E-002  0.9376794E+02  0.7546771E-02  0.1381506E+00
         -2   -1    0    0    0  501 -0.00000000000E+00  0.00000000000E+00  0.71899467139E+01  0.71899467139E+01  0.00000000000E+00 0.  1.
          2   -1    0    0  501    0  0.00000000000E+00 -0.00000000000E+00 -0.47472467841E+03  0.47472467841E+03  0.00000000000E+00 0. -1.
         23    2    1    2    0    0  0.18894028538E+02  0.77937586465E+01 -0.41680980432E+03  0.42722691859E+03  0.91513387028E+02 0.  0.
         11    1    3    3    0    0 -0.35315585516E+02 -0.61722060958E+01 -0.20678240448E+03  0.20986721877E+03  0.00000000000E+00 0.  1.
        -11    1    3    3    0    0  0.54209614055E+02  0.13965964742E+02 -0.21002739983E+03  0.21735969982E+03  0.00000000000E+00 0. -1.
         22    1    1    2    0    0 -0.18894028538E+02 -0.77937586465E+01 -0.50724927379E+02  0.54687706533E+02  0.00000000000E+00 0.  1.
<mgrwt>
<rscale>  0 0.64069651E+02</rscale>
<asrwt>0</asrwt>
<pdfrwt beam="1">  1        2 0.73034554E-01 0.93767942E+02</pdfrwt>
<pdfrwt beam="2">  1       -2 0.11061458E-02 0.93767942E+02</pdfrwt>
<totfact> 0.10555511E+05</totfact>
</mgrwt>
</event>
<event>
 6    1  0.1535970E-002  0.9190647E+02  0.7546771E-02  0.1425627E+00
         -1   -1    0    0    0  501 -0.00000000000E+00  0.00000000000E+00  0.92156411629E+02  0.92156411629E+02  0.00000000000E+00 0.  1.
          1   -1    0    0  501    0  0.00000000000E+00 -0.00000000000E+00 -0.38987440905E+02  0.38987440905E+02  0.00000000000E+00 0. -1.
         23    2    1    2    0    0 -0.71135993179E+01  0.81665150860E+01  0.17099690192E+02  0.93483684426E+02  0.91266119591E+02 0.  0.
         11    1    3    3    0    0 -0.15345146180E+01 -0.40008193150E+02 -0.47002899061E+01  0.40312566024E+02  0.00000000000E+00 0. -1.
        -11    1    3    3    0    0 -0.55790846998E+01  0.48174708236E+02  0.21799980098E+02  0.53171118401E+02  0.00000000000E+00 0.  1.
         22    1    1    2    0    0  0.71135993179E+01 -0.81665150860E+01  0.36069280532E+02  0.37660168109E+02  0.00000000000E+00 0.  1.
<mgrwt>
<rscale>  0 0.53848007E+02</rscale>
<asrwt>0</asrwt>
<pdfrwt beam="1">  1        1 0.59980679E-02 0.91906473E+02</pdfrwt>
<pdfrwt beam="2">  1       -1 0.14177909E-01 0.91906473E+02</pdfrwt>
<totfact> 0.39396492E+04</totfact>
</mgrwt>
</event>
<event>
 6    1  0.1535970E-002  0.9670600E+02  0.7546771E-02  0.1352255E+00
         -2   -1    0    0    0  501 -0.00000000000E+00  0.00000000000E+00  0.12586023473E+02  0.12586023473E+02  0.00000000000E+00 0.  1.
          2   -1    0    0  501    0  0.00000000000E+00 -0.00000000000E+00 -0.34624393615E+03  0.34624393615E+03  0.00000000000E+00 0. -1.
         23    2    1    2    0    0 -0.16772286485E+02  0.25245145035E+02 -0.28986852096E+03  0.30557455832E+03  0.91833677387E+02 0.  0.
         11    1    3    3    0    0 -0.26206545512E+02 -0.51069681032E+01 -0.26183790593E+03  0.26319565561E+03  0.00000000000E+00 0. -1.
        -11    1    3    3    0    0  0.94342590268E+01  0.30352113138E+02 -0.28030615036E+02  0.42378902706E+02  0.00000000000E+00 0.  1.
         22    1    1    2    0    0  0.16772286485E+02 -0.25245145035E+02 -0.43789391710E+02  0.53255401305E+02  0.00000000000E+00 0.  1.
<mgrwt>
<rscale>  0 0.72357321E+02</rscale>
<asrwt>0</asrwt>
<pdfrwt beam="1">  1        2 0.53268294E-01 0.96706004E+02</pdfrwt>
<pdfrwt beam="2">  1       -2 0.19363114E-02 0.96706004E+02</pdfrwt>
<totfact> 0.66548817E+04</totfact>
</mgrwt>
</event>
<event>
 6    1  0.1535970E-002  0.8893124E+02  0.7546771E-02  0.1406379E+00
          4   -1    0    0  501    0  0.00000000000E+00  0.00000000000E+00  0.52138588859E+02  0.52138588859E+02  0.00000000000E+00 0. -1.
         -4   -1    0    0    0  501 -0.00000000000E+00 -0.00000000000E+00 -0.53397323246E+02  0.53397323246E+02  0.00000000000E+00 0.  1.
         23    2    1    2    0    0 -0.12023539885E+02  0.10708094441E+02  0.26384967957E+01  0.88970369288E+02  0.87461626717E+02 0.  0.
         13    1    3    3    0    0  0.19057265967E+02 -0.31000737828E+02 -0.36651052158E+01  0.36574008918E+02  0.00000000000E+00 0. -1.
        -13    1    3    3    0    0 -0.31080805852E+02  0.41708832270E+02  0.63036020116E+01  0.52396360370E+02  0.00000000000E+00 0.  1.
         22    1    1    2    0    0  0.12023539885E+02 -0.10708094441E+02 -0.38972311827E+01  0.16565542817E+02  0.00000000000E+00 0. -1.
<mgrwt>
<rscale>  0 0.58009772E+02</rscale>
<asrwt>0</asrwt>
<pdfrwt beam="1">  1        4 0.80213214E-02 0.88931237E+02</pdfrwt>
<pdfrwt beam="2">  1       -4 0.82149728E-02 0.88931237E+02</pdfrwt>
<totfact> 0.16615775E+04</totfact>
</mgrwt>
</event>
<event>
 6    1  0.1535970E-002  0.9127928E+02  0.7546771E-02  0.1404161E+00
         -4   -1    0    0    0  501 -0.00000000000E+00  0.00000000000E+00  0.31711036499E+03  0.31711036499E+03  0.00000000000E+00 0.  1.
          4   -1    0    0  501    0  0.00000000000E+00 -0.00000000000E+00 -0.92499074276E+01  0.92499074276E+01  0.00000000000E+00 0. -1.
         23    2    1    2    0    0 -0.15417268467E+02  0.13273380193E+00  0.24004199031E+03  0.25681133795E+03  0.89967752011E+02 0.  0.
         13    1    3    3    0    0 -0.29176759453E+02  0.36113031228E+02  0.17650606941E+03  0.18250979934E+03  0.00000000000E+00 0.  1.
        -13    1    3    3    0    0  0.13759490986E+02 -0.35980297427E+02  0.63535920905E+02  0.74301538614E+02  0.00000000000E+00 0. -1.
         22    1    1    2    0    0  0.15417268467E+02 -0.13273380193E+00  0.67818467250E+02  0.69548934466E+02  0.00000000000E+00 0.  1.
<mgrwt>
<rscale>  0 0.58517400E+02</rscale>
<asrwt>0</asrwt>
<pdfrwt beam="1">  1        4 0.14230629E-02 0.91279276E+02</pdfrwt>
<pdfrwt beam="2">  1       -4 0.48786202E-01 0.91279276E+02</pdfrwt>
<totfact> 0.10210676E+04</totfact>
</mgrwt>
</event>
<event>
 6    1  0.1535970E-002  0.9364250E+02  0.7546771E-02  0.1394183E+00
          1   -1    0    0  501    0  0.00000000000E+00  0.00000000000E+00  0.39999620788E+03  0.39999620788E+03  0.00000000000E+00 0. -1.
         -1   -1    0    0    0  501 -0.00000000000E+00 -0.00000000000E+00 -0.31103245683E+02  0.31103245683E+02  0.00000000000E+00 0.  1.
         23    2    1    2    0    0  0.90563231259E+01 -0.14063708022E+02  0.39174378081E+03  0.40278047082E+03  0.92136382627E+02 0.  0.
         11    1    3    3    0    0  0.33451091103E+02 -0.30467589258E+02  0.34214886264E+03  0.34512764841E+03  0.00000000000E+00 0. -1.
        -11    1    3    3    0    0 -0.24394767977E+02  0.16403881236E+02  0.49594918170E+02  0.57652822416E+02  0.00000000000E+00 0.  1.
         22    1    1    2    0    0 -0.90563231259E+01  0.14063708022E+02 -0.22850818614E+02  0.28318982736E+02  0.00000000000E+00 0.  1.
<mgrwt>
<rscale>  0 0.60878180E+02</rscale>
<asrwt>0</asrwt>
<pdfrwt beam="1">  1        1 0.61537875E-01 0.93642500E+02</pdfrwt>
<pdfrwt beam="2">  1       -1 0.47851150E-02 0.93642500E+02</pdfrwt>
<totfact> 0.10484290E+04</totfact>
</mgrwt>
</event>
<event>
 6    1  0.1535970E-002  0.8770659E+02  0.7546771E-02  0.1401290E+00
          2   -1    0    0  501    0  0.00000000000E+00  0.00000000000E+00  0.16204292835E+03  0.16204292835E+03  0.00000000000E+00 0. -1.
         -2   -1    0    0    0  501 -0.00000000000E+00 -0.00000000000E+00 -0.17992737362E+02  0.17992737362E+02  0.00000000000E+00 0.  1.
         23    2    1    2    0    0 -0.17235314454E+02  0.57996729386E+01  0.13101162259E+03  0.15765941633E+03  0.85800664524E+02 0.  0.
         11    1    3    3    0    0 -0.23833621860E+02  0.43320108891E+02  0.78782610860E+02  0.93012757938E+02  0.00000000000E+00 0. -1.
        -11    1    3    3    0    0  0.65983074063E+01 -0.37520435953E+02  0.52229011729E+02  0.64646658389E+02  0.00000000000E+00 0.  1.
         22    1    1    2    0    0  0.17235314454E+02 -0.57996729386E+01  0.13038568395E+02  0.22376249380E+02  0.00000000000E+00 0.  1.
<mgrwt>
<rscale>  0 0.59183710E+02</rscale>
<asrwt>0</asrwt>
<pdfrwt beam="1">  1        2 0.24929680E-01 0.87706592E+02</pdfrwt>
<pdfrwt beam="2">  1       -2 0.27681135E-02 0.87706592E+02</pdfrwt>
<totfact> 0.87569179E+04</totfact>
</mgrwt>
</event>
<event>
 6    1  0.1535970E-002  0.8899561E+02  0.7546771E-02  0.1435052E+00
         -2   -1    0    0    0  501 -0.00000000000E+00  0.00000000000E+00  0.21449247039E+02  0.21449247039E+02  0.00000000000E+00 0.  1.
          2   -1    0    0  501    0  0.00000000000E+00 -0.00000000000E+00 -0.55786761158E+03  0.55786761158E+03  0.00000000000E+00 0. -1.
         23    2    1    2    0    0  0.61622996493E+01 -0.83038132477E+01 -0.55281455271E+03  0.55993227099E+03  0.88392822943E+02 0.  0.
         11    1    3    3    0    0  0.98798550607E+01  0.11193984309E+02 -0.52774537554E+03  0.52795653062E+03  0.00000000000E+00 0. -1.
        -11    1    3    3    0    0 -0.37175554114E+01 -0.19497797556E+02 -0.25069177176E+02  0.31975740368E+02  0.00000000000E+00 0.  1.
         22    1    1    2    0    0 -0.61622996493E+01  0.83038132477E+01  0.16396188168E+02  0.19384587637E+02  0.00000000000E+00 0.  1.
<mgrwt>
<rscale>  0 0.51959203E+02</rscale>
<asrwt>0</asrwt>
<pdfrwt beam="1">  1        2 0.85825791E-01 0.88995609E+02</pdfrwt>
<pdfrwt beam="2">  1       -2 0.32998840E-02 0.88995609E+02</pdfrwt>
<totfact> 0.18319114E+04</totfact>
</mgrwt>
</event>
<event>
 6    1  0.1535970E-002  0.9530713E+02  0.7546771E-02  0.1360858E+00
          2   -1    0    0  501    0  0.00000000000E+00  0.00000000000E+00  0.55683133580E+03  0.55683133580E+03  0.00000000000E+00 0.  1.
         -2   -1    0    0    0  501 -0.00000000000E+00 -0.00000000000E+00 -0.91388396596E+01  0.91388396596E+01  0.00000000000E+00 0. -1.
         23    2    1    2    0    0  0.25150291182E+02  0.10822813195E+02  0.51298255146E+03  0.52176100569E+03  0.91289531301E+02 0.  0.
         11    1    3    3    0    0  0.32795643558E+01 -0.21516013790E+02  0.29267219958E+02  0.36472791994E+02  0.00000000000E+00 0. -1.
        -11    1    3    3    0    0  0.21870726827E+02  0.32338826985E+02  0.48371533150E+03  0.48528821369E+03  0.00000000000E+00 0.  1.
         22    1    1    2    0    0 -0.25150291182E+02 -0.10822813195E+02  0.34709944685E+02  0.44209169773E+02  0.00000000000E+00 0.  1.
<mgrwt>
<rscale>  0 0.69775481E+02</rscale>
<asrwt>0</asrwt>
<pdfrwt beam="1">  1        2 0.85666333E-01 0.95307130E+02</pdfrwt>
<pdfrwt beam="2">  1       -2 0.14059758E-02 0.95307130E+02</pdfrwt>
<totfact> 0.63223853E+04</totfact>
</mgrwt>
</event>
<event>
 6    1  0.1535970E-002  0.8746884E+02  0.7546771E-02  0.1335803E+00
         -2   -1    0    0    0  501 -0.00000000000E+00  0.00000000000E+00  0.38950340771E+01  0.38950340771E+01  0.00000000000E+00 0.  1.
          2   -1    0    0  501    0  0.00000000000E+00 -0.00000000000E+00 -0.16137002760E+04  0.16137002760E+04  0.00000000000E+00 0. -1.
         23    2    1    2    0    0  0.15202185684E+02 -0.52207274361E+02 -0.13086931838E+04  0.13116129944E+04  0.68513442979E+02 0.  0.
         11    1    3    3    0    0  0.32990935445E+02 -0.29438918006E+02 -0.39569661245E+03  0.39815934100E+03  0.00000000000E+00 0.  1.
        -11    1    3    3    0    0 -0.17788749762E+02 -0.22768356354E+02 -0.91299657135E+03  0.91345365343E+03  0.00000000000E+00 0. -1.
         22    1    1    2    0    0 -0.15202185684E+02  0.52207274361E+02 -0.30111205809E+03  0.30598231562E+03  0.00000000000E+00 0.  1.
<mgrwt>
<rscale>  0 0.77667806E+02</rscale>
<asrwt>0</asrwt>
<pdfrwt beam="1">  1        2 0.24826158E+00 0.87468839E+02</pdfrwt>
<pdfrwt beam="2">  1       -2 0.59923601E-03 0.87468839E+02</pdfrwt>
<totfact> 0.48630303E+04</totfact>
</mgrwt>
</event>
<event>
 6    1  0.1535970E-002  0.9432057E+02  0.7546771E-02  0.1375884E+00
         -2   -1    0    0    0  501 -0.00000000000E+00  0.00000000000E+00  0.12205093493E+02  0.12205093493E+02  0.00000000000E+00 0. -1.
          2   -1    0    0  501    0  0.00000000000E+00 -0.00000000000E+00 -0.29100210710E+03  0.29100210710E+03  0.00000000000E+00 0.  1.
         23    2    1    2    0    0  0.50433967068E+01  0.21428003331E+02 -0.24817102686E+03  0.26549054325E+03  0.91715728229E+02 0.  0.
         13    1    3    3    0    0 -0.27387768421E+02  0.89203932232E+00 -0.19530412810E+02  0.33650001750E+02  0.00000000000E+00 0. -1.
        -13    1    3    3    0    0  0.32431165128E+02  0.20535964008E+02 -0.22864061405E+03  0.23184054150E+03  0.00000000000E+00 0.  1.
         22    1    1    2    0    0 -0.50433967068E+01 -0.21428003331E+02 -0.30625986749E+02  0.37716657347E+02  0.00000000000E+00 0.  1.
<mgrwt>
<rscale>  0 0.65558227E+02</rscale>
<asrwt>0</asrwt>
<pdfrwt beam="1">  1        2 0.44769554E-01 0.94320570E+02</pdfrwt>
<pdfrwt beam="2">  1       -2 0.18777067E-02 0.94320570E+02</pdfrwt>
<totfact> 0.83149029E+04</totfact>
</mgrwt>
</event>
<event>
 6    1  0.1535970E-002  0.9153553E+02  0.7546771E-02  0.1420174E+00
         -2   -1    0    0    0  501 -0.00000000000E+00  0.00000000000E+00  0.19184909580E+03  0.19184909580E+03  0.00000000000E+00 0.  1.
          2   -1    0    0  501    0  0.00000000000E+00 -0.00000000000E+00 -0.16398678357E+02  0.16398678357E+02  0.00000000000E+00 0. -1.
         23    2    1    2    0    0  0.11692627412E+02  0.23037029365E+01  0.11677870797E+03  0.14837796478E+03  0.90756427941E+02 0.  0.
         13    1    3    3    0    0  0.67377382014E+00 -0.15734324238E+02 -0.10776762243E+02  0.19083016922E+02  0.00000000000E+00 0. -1.
        -13    1    3    3    0    0  0.11018853592E+02  0.18038027175E+02  0.12755547022E+03  0.12929494786E+03  0.00000000000E+00 0.  1.
         22    1    1    2    0    0 -0.11692627412E+02 -0.23037029365E+01  0.58671709469E+02  0.59869809379E+02  0.00000000000E+00 0.  1.
<mgrwt>
<rscale>  0 0.54984177E+02</rscale>
<asrwt>0</asrwt>
<pdfrwt beam="1">  1        2 0.25228737E-02 0.91535533E+02</pdfrwt>
<pdfrwt beam="2">  1       -2 0.29515244E-01 0.91535533E+02</pdfrwt>
<totfact> 0.36308646E+04</totfact>
</mgrwt>
</event>
<event>
 6    1  0.1535970E-002  0.9221199E+02  0.7546771E-02  0.1425950E+00
         -3   -1    0    0    0  501 -0.00000000000E+00  0.00000000000E+00  0.10622889028E+03  0.10622889028E+03  0.00000000000E+00 0.  1.
          3   -1    0    0  501    0  0.00000000000E+00 -0.00000000000E+00 -0.24912400131E+02  0.24912400131E+02  0.00000000000E+00 0. -1.
         23    2    1    2    0    0 -0.66261244340E+01  0.83634690507E+01  0.73253415395E+02  0.11776719926E+03  0.91592560918E+02 0.  0.
         11    1    3    3    0    0  0.34644026132E+02 -0.63333043440E+01  0.63912587590E+02  0.72973544131E+02  0.00000000000E+00 0.  1.
        -11    1    3    3    0    0 -0.41270150566E+02  0.14696773395E+02  0.93408278047E+01  0.44793655132E+02  0.00000000000E+00 0. -1.
         22    1    1    2    0    0  0.66261244340E+01 -0.83634690507E+01  0.80630747536E+01  0.13374091149E+02  0.00000000000E+00 0. -1.
<mgrwt>
<rscale>  0 0.53781593E+02</rscale>
<asrwt>0</asrwt>
<pdfrwt beam="1">  1        3 0.38326770E-02 0.92211986E+02</pdfrwt>
<pdfrwt beam="2">  1       -3 0.16342906E-01 0.92211986E+02</pdfrwt>
<totfact> 0.22714574E+04</totfact>
</mgrwt>
</event>
<event>
 6    1  0.1535970E-002  0.9263322E+02  0.7546771E-02  0.1368763E+00
         -2   -1    0    0    0  501 -0.00000000000E+00  0.00000000000E+00  0.22898530459E+02  0.22898530459E+02  0.00000000000E+00 0.  1.
          2   -1    0    0  501    0  0.00000000000E+00 -0.00000000000E+00 -0.25670159673E+03  0.25670159673E+03  0.00000000000E+00 0. -1.
         23    2    1    2    0    0  0.19739875684E+02 -0.17129087278E+02 -0.23584526190E+03  0.25338488571E+03  0.88869817283E+02 0.  0.
         13    1    3    3    0    0  0.39152903163E+01  0.35574710506E+02 -0.69496293580E+02  0.78170482583E+02  0.00000000000E+00 0.  1.
        -13    1    3    3    0    0  0.15824585368E+02 -0.52703797785E+02 -0.16634896832E+03  0.17521440313E+03  0.00000000000E+00 0. -1.
         22    1    1    2    0    0 -0.19739875684E+02  0.17129087278E+02  0.20421956220E+01  0.26215241482E+02  0.00000000000E+00 0.  1.
<mgrwt>
<rscale>  0 0.67512327E+02</rscale>
<asrwt>0</asrwt>
<pdfrwt beam="1">  1        2 0.39492551E-01 0.92633216E+02</pdfrwt>
<pdfrwt beam="2">  1       -2 0.35228510E-02 0.92633216E+02</pdfrwt>
<totfact> 0.38026035E+04</totfact>
</mgrwt>
</event>
<event>
 6    1  0.1535970E-002  0.1337806E+03  0.7546771E-02  0.1236536E+00
          2   -1    0    0  501    0  0.00000000000E+00  0.00000000000E+00  0.52441477242E+03  0.52441477242E+03  0.00000000000E+00 0. -1.
         -2   -1    0    0    0  501 -0.00000000000E+00 -0.00000000000E+00 -0.26470988729E+02  0.26470988729E+02  0.00000000000E+00 0.  1.
         23    2    1    2    0    0 -0.66823304649E+02 -0.72984243759E+02  0.24265935210E+03  0.27709351346E+03  0.90028885137E+02 0.  0.
         11    1    3    3    0    0 -0.52156065801E+02 -0.27293276105E+02  0.46121739979E+02  0.74782304184E+02  0.00000000000E+00 0.  1.
        -11    1    3    3    0    0 -0.14667238848E+02 -0.45690967654E+02  0.19653761213E+03  0.20231120928E+03  0.00000000000E+00 0. -1.
         22    1    1    2    0    0  0.66823304649E+02  0.72984243759E+02  0.25528443159E+03  0.27379224768E+03  0.00000000000E+00 0.  1.
<mgrwt>
<rscale>  0 0.12406638E+03</rscale>
<asrwt>0</asrwt>
<pdfrwt beam="1">  1        2 0.80679188E-01 0.13378062E+03</pdfrwt>
<pdfrwt beam="2">  1       -2 0.40724602E-02 0.13378062E+03</pdfrwt>
<totfact> 0.14908678E+04</totfact>
</mgrwt>
</event>
<event>
 6    1  0.1535970E-002  0.9513749E+02  0.7546771E-02  0.1364338E+00
         -2   -1    0    0    0  501 -0.00000000000E+00  0.00000000000E+00  0.32357969760E+01  0.32357969760E+01  0.00000000000E+00 0.  1.
          2   -1    0    0  501    0  0.00000000000E+00 -0.00000000000E+00 -0.13154321226E+04  0.13154321226E+04  0.00000000000E+00 0. -1.
         23    2    1    2    0    0 -0.19485494050E+02  0.17167060197E+02 -0.11870061950E+04  0.11908126841E+04  0.91524582469E+02 0.  0.
         11    1    3    3    0    0 -0.21683294217E+02 -0.68580762599E+01 -0.71160047407E+02  0.74705761525E+02  0.00000000000E+00 0.  1.
        -11    1    3    3    0    0  0.21978001666E+01  0.24025136457E+02 -0.11158461476E+04  0.11161069226E+04  0.00000000000E+00 0. -1.
         22    1    1    2    0    0  0.19485494050E+02 -0.17167060197E+02 -0.12519013055E+03  0.12785523541E+03  0.00000000000E+00 0. -1.
<mgrwt>
<rscale>  0 0.68766647E+02</rscale>
<asrwt>0</asrwt>
<pdfrwt beam="1">  1        2 0.20237430E+00 0.95137488E+02</pdfrwt>
<pdfrwt beam="2">  1       -2 0.49781460E-03 0.95137488E+02</pdfrwt>
<totfact> 0.90609221E+04</totfact>
</mgrwt>
</event>
<event>
 6    1  0.1535970E-002  0.9539734E+02  0.7546771E-02  0.1393048E+00
         -4   -1    0    0    0  501 -0.00000000000E+00  0.00000000000E+00  0.38958316770E+03  0.38958316770E+03  0.00000000000E+00 0. -1.
          4   -1    0    0  501    0  0.00000000000E+00 -0.00000000000E+00 -0.79953281230E+01  0.79953281230E+01  0.00000000000E+00 0.  1.
         23    2    1    2    0    0  0.10098780138E+02  0.12552842710E+02  0.31987384649E+03  0.33379623996E+03  0.94027086108E+02 0.  0.
         13    1    3    3    0    0 -0.12518189995E+01  0.20539252170E+02  0.31924058894E+03  0.31990308150E+03  0.00000000000E+00 0. -1.
        -13    1    3    3    0    0  0.11350599137E+02 -0.79864094603E+01  0.63325755683E+00  0.13893158459E+02  0.00000000000E+00 0.  1.
         22    1    1    2    0    0 -0.10098780138E+02 -0.12552842710E+02  0.61713993080E+02  0.63782255858E+02  0.00000000000E+00 0. -1.
<mgrwt>
<rscale>  0 0.61154969E+02</rscale>
<asrwt>0</asrwt>
<pdfrwt beam="1">  1        4 0.12300508E-02 0.95397338E+02</pdfrwt>
<pdfrwt beam="2">  1       -4 0.59935857E-01 0.95397338E+02</pdfrwt>
<totfact> 0.84537202E+03</totfact>
</mgrwt>
</event>
<event>
 6    1  0.1535970E-002  0.9684906E+02  0.7546771E-02  0.1354952E+00
         -2   -1    0    0    0  501 -0.00000000000E+00  0.00000000000E+00  0.64048682881E+01  0.64048682881E+01  0.00000000000E+00 0.  1.
          2   -1    0    0  501    0  0.00000000000E+00 -0.00000000000E+00 -0.12208070152E+04  0.12208070152E+04  0.00000000000E+00 0. -1.
         23    2    1    2    0    0 -0.12750357858E+02  0.25851667820E+02 -0.11716740952E+04  0.11756699902E+04  0.92460046914E+02 0.  0.
         13    1    3    3    0    0  0.34701896732E+02 -0.11029369177E+02 -0.49058194128E+03  0.49193140754E+03  0.00000000000E+00 0. -1.
        -13    1    3    3    0    0 -0.47452254591E+02  0.36881036997E+02 -0.68109215388E+03  0.68373858267E+03  0.00000000000E+00 0.  1.
         22    1    1    2    0    0  0.12750357858E+02 -0.25851667820E+02 -0.42728051709E+02  0.51541893227E+02  0.00000000000E+00 0.  1.
<mgrwt>
<rscale>  0 0.71534224E+02</rscale>
<asrwt>0</asrwt>
<pdfrwt beam="1">  1        2 0.18781653E+00 0.96849061E+02</pdfrwt>
<pdfrwt beam="2">  1       -2 0.98536400E-03 0.96849061E+02</pdfrwt>
<totfact> 0.38948981E+04</totfact>
</mgrwt>
</event>
<event>
 6    1  0.1535970E-002  0.9131251E+02  0.7546771E-02  0.1415376E+00
          2   -1    0    0  501    0  0.00000000000E+00  0.00000000000E+00  0.11804622750E+03  0.11804622750E+03  0.00000000000E+00 0. -1.
         -2   -1    0    0    0  501 -0.00000000000E+00 -0.00000000000E+00 -0.32177514104E+02  0.32177514104E+02  0.00000000000E+00 0.  1.
         23    2    1    2    0    0  0.12606404435E+02 -0.28625554214E+01  0.96961321679E+02  0.13318961073E+03  0.90392803077E+02 0.  0.
         13    1    3    3    0    0 -0.26317269834E+02  0.70835466342E+01  0.87869898117E+02  0.91999425648E+02  0.00000000000E+00 0. -1.
        -13    1    3    3    0    0  0.38923674269E+02 -0.99461020556E+01  0.90914235624E+01  0.41190185082E+02  0.00000000000E+00 0.  1.
         22    1    1    2    0    0 -0.12606404435E+02  0.28625554214E+01 -0.11092608280E+02  0.17034130878E+02  0.00000000000E+00 0. -1.
<mgrwt>
<rscale>  0 0.56011197E+02</rscale>
<asrwt>0</asrwt>
<pdfrwt beam="1">  1        2 0.18160958E-01 0.91312510E+02</pdfrwt>
<pdfrwt beam="2">  1       -2 0.49503868E-02 0.91312510E+02</pdfrwt>
<totfact> 0.53386817E+04</totfact>
</mgrwt>
</event>
<event>
 6    1  0.1535970E-002  0.8826309E+02  0.7546771E-02  0.1431475E+00
         -2   -1    0    0    0  501 -0.00000000000E+00  0.00000000000E+00  0.14358905893E+02  0.14358905893E+02  0.00000000000E+00 0.  1.
          2   -1    0    0  501    0  0.00000000000E+00 -0.00000000000E+00 -0.34774613051E+03  0.34774613051E+03  0.00000000000E+00 0. -1.
         23    2    1    2    0    0  0.10650609343E+02  0.34260413947E+01 -0.33848993997E+03  0.34980825052E+03  0.87551124679E+02 0.  0.
         11    1    3    3    0    0 -0.10372925739E+01  0.14376946120E+02 -0.40328057066E+01  0.14967834763E+02  0.00000000000E+00 0.  1.
        -11    1    3    3    0    0  0.11687901917E+02 -0.10950904725E+02 -0.33445713426E+03  0.33484041576E+03  0.00000000000E+00 0. -1.
         22    1    1    2    0    0 -0.10650609343E+02 -0.34260413947E+01  0.51027153546E+01  0.12296785881E+02  0.00000000000E+00 0.  1.
<mgrwt>
<rscale>  0 0.52665144E+02</rscale>
<asrwt>0</asrwt>
<pdfrwt beam="1">  1        2 0.53499404E-01 0.88263088E+02</pdfrwt>
<pdfrwt beam="2">  1       -2 0.22090625E-02 0.88263088E+02</pdfrwt>
<totfact> 0.54145390E+04</totfact>
</mgrwt>
</event>
<event>
 6    1  0.1535970E-002  0.9074679E+02  0.7546771E-02  0.1425960E+00
         -2   -1    0    0    0  501 -0.00000000000E+00  0.00000000000E+00  0.52236083320E+01  0.52236083320E+01  0.00000000000E+00 0. -1.
          2   -1    0    0  501    0  0.00000000000E+00 -0.00000000000E+00 -0.12907953193E+04  0.12907953193E+04  0.00000000000E+00 0.  1.
         23    2    1    2    0    0 -0.95827124375E+01 -0.57854044923E+01 -0.12805313051E+04  0.12837427322E+04  0.90053761370E+02 0.  0.
         13    1    3    3    0    0  0.23503843529E+01  0.19149805474E+02 -0.11568063526E+04  0.11569672323E+04  0.00000000000E+00 0.  1.
        -13    1    3    3    0    0 -0.11933096790E+02 -0.24935209967E+02 -0.12372495251E+03  0.12677549988E+03  0.00000000000E+00 0. -1.
         22    1    1    2    0    0  0.95827124375E+01  0.57854044923E+01 -0.50404059119E+01  0.12276195443E+02  0.00000000000E+00 0. -1.
<mgrwt>
<rscale>  0 0.53779531E+02</rscale>
<asrwt>0</asrwt>
<pdfrwt beam="1">  1        2 0.19858392E+00 0.90746786E+02</pdfrwt>
<pdfrwt beam="2">  1       -2 0.80363195E-03 0.90746786E+02</pdfrwt>
<totfact> 0.47362464E+04</totfact>
</mgrwt>
</event>
<event>
 6    1  0.1535970E-002  0.9799216E+02  0.7546771E-02  0.1343108E+00
         -2   -1    0    0    0  501 -0.00000000000E+00  0.00000000000E+00  0.31255315501E+03  0.31255315501E+03  0.00000000000E+00 0.  1.
          2   -1    0    0  501    0  0.00000000000E+00 -0.00000000000E+00 -0.14871977622E+02  0.14871977622E+02  0.00000000000E+00 0. -1.
         23    2    1    2    0    0  0.34034107115E+02  0.15829275187E+01  0.18041403995E+03  0.20530876342E+03  0.91878378410E+02 0.  0.
         13    1    3    3    0    0  0.70425157040E+01 -0.42328773402E+02  0.55319465704E+02  0.70011180328E+02  0.00000000000E+00 0. -1.
        -13    1    3    3    0    0  0.26991591411E+02  0.43911700921E+02  0.12509457424E+03  0.13529758309E+03  0.00000000000E+00 0.  1.
         22    1    1    2    0    0 -0.34034107115E+02 -0.15829275187E+01  0.11726713744E+03  0.12211636922E+03  0.00000000000E+00 0.  1.
<mgrwt>
<rscale>  0 0.75247033E+02</rscale>
<asrwt>0</asrwt>
<pdfrwt beam="1">  1        2 0.22879968E-02 0.97992155E+02</pdfrwt>
<pdfrwt beam="2">  1       -2 0.48085096E-01 0.97992155E+02</pdfrwt>
<totfact> 0.16857136E+04</totfact>
</mgrwt>
</event>
<event>
 6    1  0.1535970E-002  0.8797808E+02  0.7546771E-02  0.1389006E+00
          1   -1    0    0  501    0  0.00000000000E+00  0.00000000000E+00  0.41842539206E+03  0.41842539206E+03  0.00000000000E+00 0. -1.
         -1   -1    0    0    0  501 -0.00000000000E+00 -0.00000000000E+00 -0.80425752208E+01  0.80425752208E+01  0.00000000000E+00 0.  1.
         23    2    1    2    0    0 -0.84407896638E+01  0.20225797263E+02  0.37206552951E+03  0.38232564843E+03  0.85204538577E+02 0.  0.
         11    1    3    3    0    0 -0.73210373119E+01 -0.33341955033E+02  0.13065409843E+03  0.13503990887E+03  0.00000000000E+00 0.  1.
        -11    1    3    3    0    0 -0.11197523519E+01  0.53567752296E+02  0.24141143109E+03  0.24728573956E+03  0.00000000000E+00 0. -1.
         22    1    1    2    0    0  0.84407896638E+01 -0.20225797263E+02  0.38317287324E+02  0.44142318845E+02  0.00000000000E+00 0.  1.
<mgrwt>
<rscale>  0 0.62154606E+02</rscale>
<asrwt>0</asrwt>
<pdfrwt beam="1">  1        1 0.64373120E-01 0.87978084E+02</pdfrwt>
<pdfrwt beam="2">  1       -1 0.12373196E-02 0.87978084E+02</pdfrwt>
<totfact> 0.68514822E+04</totfact>
</mgrwt>
</event>
<event>
 6    1  0.1535970E-002  0.9116383E+02  0.7546771E-02  0.1427376E+00
          2   -1    0    0  501    0  0.00000000000E+00  0.00000000000E+00  0.81776577321E+03  0.81776577321E+03  0.00000000000E+00 0. -1.
         -2   -1    0    0    0  501 -0.00000000000E+00 -0.00000000000E+00 -0.72826708788E+01  0.72826708788E+01  0.00000000000E+00 0.  1.
         23    2    1    2    0    0 -0.31115359133E+01 -0.10347552617E+02  0.80902514227E+03  0.81414527260E+03  0.90521216111E+02 0.  0.
         11    1    3    3    0    0  0.45912165396E+01 -0.52152179593E+01  0.80315446517E+03  0.80318451971E+03  0.00000000000E+00 0. -1.
        -11    1    3    3    0    0 -0.77027524530E+01 -0.51323346576E+01  0.58706770994E+01  0.10960752894E+02  0.00000000000E+00 0.  1.
         22    1    1    2    0    0  0.31115359133E+01  0.10347552617E+02  0.14579600537E+01  0.10903171484E+02  0.00000000000E+00 0. -1.
<mgrwt>
<rscale>  0 0.53490378E+02</rscale>
<asrwt>0</asrwt>
<pdfrwt beam="1">  1        2 0.12581005E+00 0.91163831E+02</pdfrwt>
<pdfrwt beam="2">  1       -2 0.11204116E-02 0.91163831E+02</pdfrwt>
<totfact> 0.55623075E+04</totfact>
</mgrwt>
</event>
<event>
 6    1  0.1535970E-002  0.8787779E+02  0.7546771E-02  0.1433273E+00
         -2   -1    0    0    0  501 -0.00000000000E+00  0.00000000000E+00  0.16555109228E+02  0.16555109228E+02  0.00000000000E+00 0. -1.
          2   -1    0    0  501    0  0.00000000000E+00 -0.00000000000E+00 -0.15573169589E+03  0.15573169589E+03  0.00000000000E+00 0.  1.
         23    2    1    2    0    0  0.75009874085E+01 -0.80895081125E+01 -0.13363795832E+03  0.15994252071E+03  0.87182573223E+02 0.  0.
         13    1    3    3    0    0  0.85766074642E+01 -0.89808286631E+01 -0.14648968054E+03  0.14701510121E+03  0.00000000000E+00 0.  1.
        -13    1    3    3    0    0 -0.10756200557E+01  0.89132055058E+00  0.12851722222E+02  0.12927419499E+02  0.00000000000E+00 0. -1.
         22    1    1    2    0    0 -0.75009874085E+01  0.80895081125E+01 -0.55386283416E+01  0.12344284407E+02  0.00000000000E+00 0. -1.
<mgrwt>
<rscale>  0 0.52308574E+02</rscale>
<asrwt>0</asrwt>
<pdfrwt beam="1">  1        2 0.23958722E-01 0.87877790E+02</pdfrwt>
<pdfrwt beam="2">  1       -2 0.25469399E-02 0.87877790E+02</pdfrwt>
<totfact> 0.10318607E+05</totfact>
</mgrwt>
</event>
<event>
 6    1  0.1535970E-002  0.9414167E+02  0.7546771E-02  0.1379205E+00
         -2   -1    0    0    0  501 -0.00000000000E+00  0.00000000000E+00  0.23266737682E+03  0.23266737682E+03  0.00000000000E+00 0.  1.
          2   -1    0    0  501    0  0.00000000000E+00 -0.00000000000E+00 -0.14299603590E+02  0.14299603590E+02  0.00000000000E+00 0. -1.
         23    2    1    2    0    0  0.20623684832E+02 -0.37832370401E+01  0.17198550508E+03  0.19606546710E+03  0.91776926143E+02 0.  0.
         13    1    3    3    0    0  0.80654137720E+01 -0.77072993118E+01  0.18020630344E+03  0.18055128125E+03  0.00000000000E+00 0.  1.
        -13    1    3    3    0    0  0.12558271060E+02  0.39240622717E+01 -0.82207983619E+01  0.15514185845E+02  0.00000000000E+00 0. -1.
         22    1    1    2    0    0 -0.20623684832E+02  0.37832370401E+01  0.46382268151E+02  0.50901513311E+02  0.00000000000E+00 0.  1.
<mgrwt>
<rscale>  0 0.64673253E+02</rscale>
<asrwt>0</asrwt>
<pdfrwt beam="1">  1        2 0.21999392E-02 0.94141667E+02</pdfrwt>
<pdfrwt beam="2">  1       -2 0.35794978E-01 0.94141667E+02</pdfrwt>
<totfact> 0.30908033E+04</totfact>
</mgrwt>
</event>
<event>
 6    1  0.1535970E-002  0.9043846E+02  0.7546771E-02  0.1372502E+00
         -2   -1    0    0    0  501 -0.00000000000E+00  0.00000000000E+00  0.80142130002E+01  0.80142130002E+01  0.00000000000E+00 0.  1.
          2   -1    0    0  501    0  0.00000000000E+00 -0.00000000000E+00 -0.59113204831E+03  0.59113204831E+03  0.00000000000E+00 0. -1.
         23    2    1    2    0    0 -0.13364767754E+02 -0.22767835001E+02 -0.54690117320E+03  0.55432843068E+03  0.86499274504E+02 0.  0.
         13    1    3    3    0    0 -0.33381763470E+02 -0.25774637527E+02 -0.51380584729E+03  0.51553382312E+03  0.00000000000E+00 0. -1.
        -13    1    3    3    0    0  0.20016995717E+02  0.30068025252E+01 -0.33095325912E+02  0.38794607566E+02  0.00000000000E+00 0.  1.
         22    1    1    2    0    0  0.13364767754E+02  0.22767835001E+02 -0.36216662117E+02  0.44817830633E+02  0.00000000000E+00 0.  1.
<mgrwt>
<rscale>  0 0.66476525E+02</rscale>
<asrwt>0</asrwt>
<pdfrwt beam="1">  1        2 0.90943383E-01 0.90438464E+02</pdfrwt>
<pdfrwt beam="2">  1       -2 0.12329560E-02 0.90438464E+02</pdfrwt>
<totfact> 0.70849411E+04</totfact>
</mgrwt>
</event>
<event>
 6    1  0.1535970E-002  0.9344611E+02  0.7546771E-02  0.1393124E+00
          2   -1    0    0  501    0  0.00000000000E+00  0.00000000000E+00  0.31366580624E+04  0.31366580624E+04  0.00000000000E+00 0. -1.
         -2   -1    0    0    0  501 -0.00000000000E+00 -0.00000000000E+00 -0.19222888306E+01  0.19222888306E+01  0.00000000000E+00 0.  1.
         23    2    1    2    0    0  0.17034111350E+02 -0.17168404042E+01  0.30755206438E+04  0.30769399418E+04  0.91864389457E+02 0.  0.
         11    1    3    3    0    0 -0.23536129203E+02 -0.28820266726E+02  0.19595192572E+04  0.19598725154E+04  0.00000000000E+00 0. -1.
        -11    1    3    3    0    0  0.40570240553E+02  0.27103426322E+02  0.11160013866E+04  0.11170674263E+04  0.00000000000E+00 0.  1.
         22    1    1    2    0    0 -0.17034111350E+02  0.17168404042E+01  0.59215129773E+02  0.61640409509E+02  0.00000000000E+00 0. -1.
<mgrwt>
<rscale>  0 0.61136342E+02</rscale>
<asrwt>0</asrwt>
<pdfrwt beam="1">  1        2 0.48255868E+00 0.93446105E+02</pdfrwt>
<pdfrwt beam="2">  1       -2 0.29573925E-03 0.93446105E+02</pdfrwt>
<totfact> 0.20715339E+04</totfact>
</mgrwt>
</event>
<event>
 6    1  0.1535970E-002  0.9361731E+02  0.7546771E-02  0.1392662E+00
         -1   -1    0    0    0  501 -0.00000000000E+00  0.00000000000E+00  0.15316064557E+02  0.15316064557E+02  0.00000000000E+00 0.  1.
          1   -1    0    0  501    0  0.00000000000E+00 -0.00000000000E+00 -0.20179401561E+03  0.20179401561E+03  0.00000000000E+00 0. -1.
         23    2    1    2    0    0 -0.69295542916E+01 -0.15690928259E+02 -0.16394359447E+03  0.18879010172E+03  0.92032474645E+02 0.  0.
         13    1    3    3    0    0  0.18360352817E+02  0.64983282146E+01 -0.15176460708E+03  0.15300923759E+03  0.00000000000E+00 0. -1.
        -13    1    3    3    0    0 -0.25289907109E+02 -0.22189256473E+02 -0.12178987387E+02  0.35780864134E+02  0.00000000000E+00 0.  1.
         22    1    1    2    0    0  0.69295542916E+01  0.15690928259E+02 -0.22534356580E+02  0.28319978439E+02  0.00000000000E+00 0.  1.
<mgrwt>
<rscale>  0 0.61249404E+02</rscale>
<asrwt>0</asrwt>
<pdfrwt beam="1">  1        1 0.31045232E-01 0.93617308E+02</pdfrwt>
<pdfrwt beam="2">  1       -1 0.23563177E-02 0.93617308E+02</pdfrwt>
<totfact> 0.67603051E+04</totfact>
</mgrwt>
</event>
<event>
 6    1  0.1535970E-002  0.9357411E+02  0.7546771E-02  0.1410210E+00
         -2   -1    0    0    0  501 -0.00000000000E+00  0.00000000000E+00  0.34615256868E+02  0.34615256868E+02  0.00000000000E+00 0.  1.
          2   -1    0    0  501    0  0.00000000000E+00 -0.00000000000E+00 -0.12082415682E+03  0.12082415682E+03  0.00000000000E+00 0. -1.
         23    2    1    2    0    0  0.11381560952E+02  0.63166677181E+01 -0.99671242312E+02  0.13671309845E+03  0.92664310944E+02 0.  0.
         13    1    3    3    0    0  0.86069618619E+01  0.11003284837E+02 -0.11736839437E+03  0.11819683611E+03  0.00000000000E+00 0. -1.
        -13    1    3    3    0    0  0.27745990901E+01 -0.46866171190E+01  0.17697152056E+02  0.18516262340E+02  0.00000000000E+00 0.  1.
         22    1    1    2    0    0 -0.11381560952E+02 -0.63166677181E+01  0.13462342357E+02  0.18726315241E+02  0.00000000000E+00 0.  1.
<mgrwt>
<rscale>  0 0.57147055E+02</rscale>
<asrwt>0</asrwt>
<pdfrwt beam="1">  1        2 0.18588332E-01 0.93574114E+02</pdfrwt>
<pdfrwt beam="2">  1       -2 0.53254241E-02 0.93574114E+02</pdfrwt>
<totfact> 0.46799671E+04</totfact>
</mgrwt>
</event>
<event>
 6    1  0.1535970E-002  0.9026401E+02  0.7546771E-02  0.1409068E+00
         -2   -1    0    0    0  501 -0.00000000000E+00  0.00000000000E+00  0.57013233497E+02  0.57013233497E+02  0.00000000000E+00 0. -1.
          2   -1    0    0  501    0  0.00000000000E+00 -0.00000000000E+00 -0.79899258196E+02  0.79899258196E+02  0.00000000000E+00 0.  1.
         23    2    1    2    0    0 -0.16748114769E+01  0.14667670454E+02 -0.52070755502E+02  0.10420631396E+03  0.89048563939E+02 0.  0.
         11    1    3    3    0    0 -0.91660805725E+01  0.81690047271E+01  0.24283347035E+02  0.27210854719E+02  0.00000000000E+00 0. -1.
        -11    1    3    3    0    0  0.74912690956E+01  0.64986657273E+01 -0.76354102537E+02  0.76995459238E+02  0.00000000000E+00 0.  1.
         22    1    1    2    0    0  0.16748114769E+01 -0.14667670454E+02  0.29184730804E+02  0.32706177737E+02  0.00000000000E+00 0. -1.
<mgrwt>
<rscale>  0 0.57402325E+02</rscale>
<asrwt>0</asrwt>
<pdfrwt beam="1">  1        2 0.12292194E-01 0.90264014E+02</pdfrwt>
<pdfrwt beam="2">  1       -2 0.87712667E-02 0.90264014E+02</pdfrwt>
<totfact> 0.35304619E+04</totfact>
</mgrwt>
</event>
<event>
 6    1  0.1535970E-002  0.1056007E+03  0.7546771E-02  0.1304605E+00
          2   -1    0    0  501    0  0.00000000000E+00  0.00000000000E+00  0.57547309168E+02  0.57547309168E+02  0.00000000000E+00 0. -1.
         -2   -1    0    0    0  501 -0.00000000000E+00 -0.00000000000E+00 -0.11567974176E+03  0.11567974176E+03  0.00000000000E+00 0.  1.
         23    2    1    2    0    0 -0.43754133745E+02 -0.31566900439E+02 -0.20832223458E+02  0.10763590043E+03  0.90777817241E+02 0.  0.
         13    1    3    3    0    0 -0.65977207128E+02 -0.21309540905E+02 -0.36718789514E+02  0.78456088975E+02  0.00000000000E+00 0.  1.
        -13    1    3    3    0    0  0.22223073383E+02 -0.10257359535E+02  0.15886566056E+02  0.29179811450E+02  0.00000000000E+00 0. -1.
         22    1    1    2    0    0  0.43754133745E+02  0.31566900439E+02 -0.37300209138E+02  0.65591150507E+02  0.00000000000E+00 0.  1.
<mgrwt>
<rscale>  0 0.89279829E+02</rscale>
<asrwt>0</asrwt>
<pdfrwt beam="1">  1        2 0.88534324E-02 0.10560069E+03</pdfrwt>
<pdfrwt beam="2">  1       -2 0.17796883E-01 0.10560069E+03</pdfrwt>
<totfact> 0.17330016E+04</totfact>
</mgrwt>
</event>
<event>
 6    1  0.1535970E-002  0.9340575E+02  0.7546771E-02  0.1383022E+00
         -2   -1    0    0    0  501 -0.00000000000E+00  0.00000000000E+00  0.31264755841E+02  0.31264755841E+02  0.00000000000E+00 0.  1.
          2   -1    0    0  501    0  0.00000000000E+00 -0.00000000000E+00 -0.10560154165E+03  0.10560154165E+03  0.00000000000E+00 0. -1.
         23    2    1    2    0    0 -0.12938143437E+02 -0.15478424093E+02 -0.68607378304E+02  0.11589481022E+03  0.91201192487E+02 0.  0.
         13    1    3    3    0    0  0.16055884542E+02  0.31465112798E+02 -0.13227615287E+02  0.37720214183E+02  0.00000000000E+00 0.  1.
        -13    1    3    3    0    0 -0.28994027978E+02 -0.46943536891E+02 -0.55379763017E+02  0.78174596041E+02  0.00000000000E+00 0. -1.
         22    1    1    2    0    0  0.12938143437E+02  0.15478424093E+02 -0.57294075077E+01  0.20971487271E+02  0.00000000000E+00 0. -1.
<mgrwt>
<rscale>  0 0.63676103E+02</rscale>
<asrwt>0</asrwt>
<pdfrwt beam="1">  1        2 0.16246391E-01 0.93405753E+02</pdfrwt>
<pdfrwt beam="2">  1       -2 0.48099624E-02 0.93405753E+02</pdfrwt>
<totfact> 0.63448535E+04</totfact>
</mgrwt>
</event>
<event>
 6    1  0.1535970E-002  0.8816129E+02  0.7546771E-02  0.1399174E+00
          2   -1    0    0  501    0  0.00000000000E+00  0.00000000000E+00  0.14429361341E+03  0.14429361341E+03  0.00000000000E+00 0. -1.
         -2   -1    0    0    0  501 -0.00000000000E+00 -0.00000000000E+00 -0.19721693936E+02  0.19721693936E+02  0.00000000000E+00 0.  1.
         23    2    1    2    0    0  0.18514784510E+02  0.41654573014E-01  0.10395916267E+03  0.13630818329E+03  0.86195210700E+02 0.  0.
         11    1    3    3    0    0 -0.22236576243E+02  0.29929571768E+01  0.90576676505E+02  0.93314293881E+02  0.00000000000E+00 0. -1.
        -11    1    3    3    0    0  0.40751360753E+02 -0.29513026038E+01  0.13382486162E+02  0.42993889405E+02  0.00000000000E+00 0.  1.
         22    1    1    2    0    0 -0.18514784510E+02 -0.41654573014E-01  0.20612756811E+02  0.27707124064E+02  0.00000000000E+00 0. -1.
<mgrwt>
<rscale>  0 0.59681317E+02</rscale>
<asrwt>0</asrwt>
<pdfrwt beam="1">  1        2 0.22199017E-01 0.88161292E+02</pdfrwt>
<pdfrwt beam="2">  1       -2 0.30341069E-02 0.88161292E+02</pdfrwt>
<totfact> 0.87108886E+04</totfact>
</mgrwt>
</event>
<event>
 6    1  0.1535970E-002  0.1231405E+03  0.7546771E-02  0.1342059E+00
          4   -1    0    0  501    0  0.00000000000E+00  0.00000000000E+00  0.23209723246E+03  0.23209723246E+03  0.00000000000E+00 0. -1.
         -4   -1    0    0    0  501 -0.00000000000E+00 -0.00000000000E+00 -0.28907605149E+02  0.28907605149E+02  0.00000000000E+00 0.  1.
         23    2    1    2    0    0 -0.92499954475E+01  0.14835635071E+02  0.20900211164E+03  0.24258084624E+03  0.12189309172E+03 0.  0.
         11    1    3    3    0    0 -0.62910946838E+02  0.24669735469E+02  0.13088229743E+03  0.14729751817E+03  0.00000000000E+00 0. -1.
        -11    1    3    3    0    0  0.53660951391E+02 -0.98341003974E+01  0.78119814216E+02  0.95283328069E+02  0.00000000000E+00 0.  1.
         22    1    1    2    0    0  0.92499954475E+01 -0.14835635071E+02 -0.58124843327E+01  0.18423991366E+02  0.00000000000E+00 0. -1.
<mgrwt>
<rscale>  0 0.75588418E+02</rscale>
<asrwt>0</asrwt>
<pdfrwt beam="1">  1        4 0.35707265E-01 0.12314051E+03</pdfrwt>
<pdfrwt beam="2">  1       -4 0.44473240E-02 0.12314051E+03</pdfrwt>
<totfact> 0.35091759E+03</totfact>
</mgrwt>
</event>
<event>
 6    1  0.1535970E-002  0.9462790E+02  0.7546771E-02  0.1365494E+00
         -2   -1    0    0    0  501 -0.00000000000E+00  0.00000000000E+00  0.48109909350E+02  0.48109909350E+02  0.00000000000E+00 0. -1.
          2   -1    0    0  501    0  0.00000000000E+00 -0.00000000000E+00 -0.76031971790E+02  0.76031971790E+02  0.00000000000E+00 0.  1.
         23    2    1    2    0    0  0.20828800325E+02  0.15371940429E+02 -0.17483205386E+02  0.96229424923E+02  0.91018153546E+02 0.  0.
         11    1    3    3    0    0  0.39330888109E+02  0.13548867484E+02  0.25918838696E+02  0.49013026523E+02  0.00000000000E+00 0. -1.
        -11    1    3    3    0    0 -0.18502087784E+02  0.18230729446E+01 -0.43402044082E+02  0.47216398400E+02  0.00000000000E+00 0.  1.
         22    1    1    2    0    0 -0.20828800325E+02 -0.15371940429E+02 -0.10438857053E+02  0.27912456217E+02  0.00000000000E+00 0. -1.
<mgrwt>
<rscale>  0 0.68436018E+02</rscale>
<asrwt>0</asrwt>
<pdfrwt beam="1">  1        2 0.11697226E-01 0.94627902E+02</pdfrwt>
<pdfrwt beam="2">  1       -2 0.74015245E-02 0.94627902E+02</pdfrwt>
<totfact> 0.48859028E+04</totfact>
</mgrwt>
</event>
<event>
 6    1  0.1535970E-002  0.9028374E+02  0.7546771E-02  0.1414866E+00
         -1   -1    0    0    0  501 -0.00000000000E+00  0.00000000000E+00  0.19654107405E+03  0.19654107405E+03  0.00000000000E+00 0.  1.
          1   -1    0    0  501    0  0.00000000000E+00 -0.00000000000E+00 -0.13695669714E+02  0.13695669714E+02  0.00000000000E+00 0. -1.
         23    2    1    2    0    0  0.53570444886E+01  0.12370354020E+02  0.15896927542E+03  0.18281789776E+03  0.89271661960E+02 0.  0.
         11    1    3    3    0    0  0.18891225406E+02  0.23734438875E+02  0.87624583890E+01  0.31575032273E+02  0.00000000000E+00 0. -1.
        -11    1    3    3    0    0 -0.13534180917E+02 -0.11364084855E+02  0.15020681703E+03  0.15124286548E+03  0.00000000000E+00 0.  1.
         22    1    1    2    0    0 -0.53570444886E+01 -0.12370354020E+02  0.23876128916E+02  0.27418846005E+02  0.00000000000E+00 0.  1.
<mgrwt>
<rscale>  0 0.56122054E+02</rscale>
<asrwt>0</asrwt>
<pdfrwt beam="1">  1        1 0.21070262E-02 0.90283737E+02</pdfrwt>
<pdfrwt beam="2">  1       -1 0.30237086E-01 0.90283737E+02</pdfrwt>
<totfact> 0.48761324E+04</totfact>
</mgrwt>
</event>
<event>
 6    1  0.1535970E-002  0.8917903E+02  0.7546771E-02  0.1431424E+00
         -2   -1    0    0    0  501 -0.00000000000E+00  0.00000000000E+00  0.19181087578E+01  0.19181087578E+01  0.00000000000E+00 0.  1.
          2   -1    0    0  501    0  0.00000000000E+00 -0.00000000000E+00 -0.14863875719E+04  0.14863875719E+04  0.00000000000E+00 0. -1.
         23    2    1    2    0    0  0.33369054897E+01  0.10329565300E+02 -0.14292424181E+04  0.14320219231E+04  0.88515895557E+02 0.  0.
         11    1    3    3    0    0  0.37353288712E+01 -0.33656595945E+02 -0.99077901124E+03  0.99135753805E+03  0.00000000000E+00 0. -1.
        -11    1    3    3    0    0 -0.39842338150E+00  0.43986161245E+02 -0.43846340685E+03  0.44066438507E+03  0.00000000000E+00 0.  1.
         22    1    1    2    0    0 -0.33369054897E+01 -0.10329565300E+02 -0.55227045037E+02  0.56283757524E+02  0.00000000000E+00 0. -1.
<mgrwt>
<rscale>  0 0.52675209E+02</rscale>
<asrwt>0</asrwt>
<pdfrwt beam="1">  1        2 0.22867462E+00 0.89179026E+02</pdfrwt>
<pdfrwt beam="2">  1       -2 0.29509416E-03 0.89179026E+02</pdfrwt>
<totfact> 0.15215611E+05</totfact>
</mgrwt>
</event>
<event>
 6    1  0.1535970E-002  0.9485008E+02  0.7546771E-02  0.1401226E+00
          2   -1    0    0  501    0  0.00000000000E+00  0.00000000000E+00  0.12753116680E+03  0.12753116680E+03  0.00000000000E+00 0. -1.
         -2   -1    0    0    0  501 -0.00000000000E+00 -0.00000000000E+00 -0.29527684634E+02  0.29527684634E+02  0.00000000000E+00 0.  1.
         23    2    1    2    0    0  0.87262296882E+01  0.11445360689E+02  0.10462225889E+03  0.14121740039E+03  0.93751766656E+02 0.  0.
         13    1    3    3    0    0  0.59042791712E+01  0.54840007927E+00  0.12110919906E+03  0.12125427560E+03  0.00000000000E+00 0. -1.
        -13    1    3    3    0    0  0.28219505170E+01  0.10896960610E+02 -0.16486940166E+02  0.19963124788E+02  0.00000000000E+00 0.  1.
         22    1    1    2    0    0 -0.87262296882E+01 -0.11445360689E+02 -0.66187767259E+01  0.15841451045E+02  0.00000000000E+00 0. -1.
<mgrwt>
<rscale>  0 0.59198697E+02</rscale>
<asrwt>0</asrwt>
<pdfrwt beam="1">  1        2 0.19620179E-01 0.94850077E+02</pdfrwt>
<pdfrwt beam="2">  1       -2 0.45427208E-02 0.94850077E+02</pdfrwt>
<totfact> 0.55878067E+04</totfact>
</mgrwt>
</event>
<event>
 6    1  0.1535970E-002  0.1085443E+03  0.7546771E-02  0.1295270E+00
         -4   -1    0    0    0  501 -0.00000000000E+00  0.00000000000E+00  0.41132826384E+03  0.41132826384E+03  0.00000000000E+00 0.  1.
          4   -1    0    0  501    0  0.00000000000E+00 -0.00000000000E+00 -0.17355217488E+02  0.17355217488E+02  0.00000000000E+00 0. -1.
         23    2    1    2    0    0  0.38151711637E+02  0.45021119122E+02  0.28079721472E+03  0.30104640547E+03  0.91101087723E+02 0.  0.
         11    1    3    3    0    0  0.59469633037E+02  0.51534771457E+01  0.19682452475E+03  0.20567714779E+03  0.00000000000E+00 0. -1.
        -11    1    3    3    0    0 -0.21317921400E+02  0.39867641976E+02  0.83972689966E+02  0.95369257676E+02  0.00000000000E+00 0.  1.
         22    1    1    2    0    0 -0.38151711637E+02 -0.45021119122E+02  0.11317583163E+03  0.12763707585E+03  0.00000000000E+00 0.  1.
<mgrwt>
<rscale>  0 0.93205364E+02</rscale>
<asrwt>0</asrwt>
<pdfrwt beam="1">  1        4 0.26700338E-02 0.10854429E+03</pdfrwt>
<pdfrwt beam="2">  1       -4 0.63281264E-01 0.10854429E+03</pdfrwt>
<totfact> 0.23935097E+03</totfact>
</mgrwt>
</event>
<event>
 6    1  0.1535970E-002  0.9747269E+02  0.7546771E-02  0.1339980E+00
         -1   -1    0    0    0  501 -0.00000000000E+00  0.00000000000E+00  0.21532553866E+02  0.21532553866E+02  0.00000000000E+00 0.  1.
          1   -1    0    0  501    0  0.00000000000E+00 -0.00000000000E+00 -0.73079307094E+03  0.73079307094E+03  0.00000000000E+00 0. -1.
         23    2    1    2    0    0  0.32701962705E+02 -0.16305072622E+02 -0.70911615828E+03  0.71578394179E+03  0.90363995214E+02 0.  0.
         11    1    3    3    0    0 -0.87172445334E+01 -0.37441920759E+02 -0.50394655748E+03  0.50541074443E+03  0.00000000000E+00 0. -1.
        -11    1    3    3    0    0  0.41419207239E+02  0.21136848137E+02 -0.20516960080E+03  0.21037319737E+03  0.00000000000E+00 0.  1.
         22    1    1    2    0    0 -0.32701962705E+02  0.16305072622E+02 -0.14435879032E+00  0.36541683014E+02  0.00000000000E+00 0.  1.
<mgrwt>
<rscale>  0 0.76270836E+02</rscale>
<asrwt>0</asrwt>
<pdfrwt beam="1">  1        1 0.11242972E+00 0.97472690E+02</pdfrwt>
<pdfrwt beam="2">  1       -1 0.33127002E-02 0.97472690E+02</pdfrwt>
<totfact> 0.81112857E+03</totfact>
</mgrwt>
</event>
<event>
 6    1  0.1535970E-002  0.1030829E+03  0.7546771E-02  0.1315667E+00
          1   -1    0    0  501    0  0.00000000000E+00  0.00000000000E+00  0.19978550673E+03  0.19978550673E+03  0.00000000000E+00 0. -1.
         -1   -1    0    0    0  501 -0.00000000000E+00 -0.00000000000E+00 -0.28592118739E+02  0.28592118739E+02  0.00000000000E+00 0.  1.
         23    2    1    2    0    0  0.47441292759E+02  0.11410018921E+01  0.10734949121E+03  0.14882876438E+03  0.91510161736E+02 0.  0.
         13    1    3    3    0    0 -0.14912374979E+02  0.14942831145E+02 -0.30088003357E+01  0.21324164921E+02  0.00000000000E+00 0. -1.
        -13    1    3    3    0    0  0.62353667738E+02 -0.13801829253E+02  0.11035829155E+03  0.12750459946E+03  0.00000000000E+00 0.  1.
         22    1    1    2    0    0 -0.47441292759E+02 -0.11410018921E+01  0.63843896782E+02  0.79548861087E+02  0.00000000000E+00 0. -1.
<mgrwt>
<rscale>  0 0.84910334E+02</rscale>
<asrwt>0</asrwt>
<pdfrwt beam="1">  1        1 0.30736231E-01 0.10308292E+03</pdfrwt>
<pdfrwt beam="2">  1       -1 0.43987876E-02 0.10308292E+03</pdfrwt>
<totfact> 0.28085771E+04</totfact>
</mgrwt>
</event>
<event>
 6    1  0.1535970E-002  0.9225817E+02  0.7546771E-02  0.1423281E+00
         -2   -1    0    0    0  501 -0.00000000000E+00  0.00000000000E+00  0.16889278412E+02  0.16889278412E+02  0.00000000000E+00 0.  1.
          2   -1    0    0  501    0  0.00000000000E+00 -0.00000000000E+00 -0.29211787566E+03  0.29211787566E+03  0.00000000000E+00 0. -1.
         23    2    1    2    0    0 -0.93525836383E+01 -0.59739926856E+01 -0.28151891423E+03  0.29625068524E+03  0.91588263577E+02 0.  0.
         11    1    3    3    0    0 -0.58937315728E+01 -0.18976555282E+02 -0.65058012748E+01  0.20908638704E+02  0.00000000000E+00 0.  1.
        -11    1    3    3    0    0 -0.34588520655E+01  0.13002562597E+02 -0.27501311296E+03  0.27534204654E+03  0.00000000000E+00 0. -1.
         22    1    1    2    0    0  0.93525836383E+01  0.59739926856E+01  0.62903169836E+01  0.12756468832E+02  0.00000000000E+00 0.  1.
<mgrwt>
<rscale>  0 0.54332798E+02</rscale>
<asrwt>0</asrwt>
<pdfrwt beam="1">  1        2 0.44941213E-01 0.92258167E+02</pdfrwt>
<pdfrwt beam="2">  1       -2 0.25983505E-02 0.92258167E+02</pdfrwt>
<totfact> 0.51698834E+04</totfact>
</mgrwt>
</event>
<event>
 6    1  0.1535970E-002  0.9343544E+02  0.7546771E-02  0.1382309E+00
          1   -1    0    0  501    0  0.00000000000E+00  0.00000000000E+00  0.12981144721E+02  0.12981144721E+02  0.00000000000E+00 0. -1.
         -1   -1    0    0    0  501 -0.00000000000E+00 -0.00000000000E+00 -0.25166230518E+03  0.25166230518E+03  0.00000000000E+00 0.  1.
         23    2    1    2    0    0 -0.17306115612E+02  0.10780624669E+02 -0.18587647457E+03  0.20803904762E+03  0.91183650013E+02 0.  0.
         13    1    3    3    0    0  0.20421026088E+02  0.20682679459E+01 -0.25676696067E+01  0.20685477176E+02  0.00000000000E+00 0. -1.
        -13    1    3    3    0    0 -0.37727141700E+02  0.87123567226E+01 -0.18330880496E+03  0.18735357044E+03  0.00000000000E+00 0.  1.
         22    1    1    2    0    0  0.17306115612E+02 -0.10780624669E+02 -0.52804685888E+02  0.56604402281E+02  0.00000000000E+00 0. -1.
<mgrwt>
<rscale>  0 0.63860792E+02</rscale>
<asrwt>0</asrwt>
<pdfrwt beam="1">  1        1 0.19970994E-02 0.93435440E+02</pdfrwt>
<pdfrwt beam="2">  1       -1 0.38717273E-01 0.93435440E+02</pdfrwt>
<totfact> 0.34709392E+04</totfact>
</mgrwt>
</event>
<event>
 6    1  0.1535970E-002  0.8865042E+02  0.7546771E-02  0.1436540E+00
          2   -1    0    0  501    0  0.00000000000E+00  0.00000000000E+00  0.37860806277E+03  0.37860806277E+03  0.00000000000E+00 0. -1.
         -2   -1    0    0    0  501 -0.00000000000E+00 -0.00000000000E+00 -0.81929415103E+01  0.81929415103E+01  0.00000000000E+00 0.  1.
         23    2    1    2    0    0  0.70640588670E+01  0.73999919658E+01  0.36419263985E+03  0.37482686199E+03  0.88058144078E+02 0.  0.
         11    1    3    3    0    0  0.28694389584E+02 -0.19560332114E+02  0.29925386986E+03  0.30126210053E+03  0.00000000000E+00 0. -1.
        -11    1    3    3    0    0 -0.21630330717E+02  0.26960324080E+02  0.64938769986E+02  0.73564761461E+02  0.00000000000E+00 0.  1.
         22    1    1    2    0    0 -0.70640588670E+01 -0.73999919658E+01  0.62224814128E+01  0.11974142295E+02  0.00000000000E+00 0. -1.
<mgrwt>
<rscale>  0 0.51669424E+02</rscale>
<asrwt>0</asrwt>
<pdfrwt beam="1">  1        2 0.58247381E-01 0.88650423E+02</pdfrwt>
<pdfrwt beam="2">  1       -2 0.12604528E-02 0.88650423E+02</pdfrwt>
<totfact> 0.11051265E+05</totfact>
</mgrwt>
</event>
<event>
 6    1  0.1535970E-002  0.1075728E+03  0.7546771E-02  0.1295220E+00
         -2   -1    0    0    0  501 -0.00000000000E+00  0.00000000000E+00  0.95772047181E+02  0.95772047181E+02  0.00000000000E+00 0.  1.
          2   -1    0    0  501    0  0.00000000000E+00 -0.00000000000E+00 -0.10270870147E+03  0.10270870147E+03  0.00000000000E+00 0. -1.
         23    2    1    2    0    0  0.59568171789E+02 -0.11574086341E+02 -0.55234176502E+02  0.12092446446E+03  0.88823337505E+02 0.  0.
         13    1    3    3    0    0 -0.12567153922E+02 -0.11083612420E+02  0.13322191111E+02  0.21407022165E+02  0.00000000000E+00 0.  1.
        -13    1    3    3    0    0  0.72135325711E+02 -0.49047392074E+00 -0.68556367613E+02  0.99517442292E+02  0.00000000000E+00 0. -1.
         22    1    1    2    0    0 -0.59568171789E+02  0.11574086341E+02  0.48297522218E+02  0.77556284190E+02  0.00000000000E+00 0.  1.
<mgrwt>
<rscale>  0 0.93227107E+02</rscale>
<asrwt>0</asrwt>
<pdfrwt beam="1">  1        2 0.15801339E-01 0.10757282E+03</pdfrwt>
<pdfrwt beam="2">  1       -2 0.14734161E-01 0.10757282E+03</pdfrwt>
<totfact> 0.11840718E+04</totfact>
</mgrwt>
</event>
<event>
 6    1  0.1535970E-002  0.1178146E+03  0.7546771E-02  0.1294512E+00
          2   -1    0    0  501    0  0.00000000000E+00  0.00000000000E+00  0.22949775343E+03  0.22949775343E+03  0.00000000000E+00 0. -1.
         -2   -1    0    0    0  501 -0.00000000000E+00 -0.00000000000E+00 -0.35437738545E+02  0.35437738545E+02  0.00000000000E+00 0.  1.
         23    2    1    2    0    0  0.24028528435E+01  0.46742832310E+02  0.18165460494E+03  0.21651483243E+03  0.10811850487E+03 0.  0.
         13    1    3    3    0    0 -0.90175781971E+01  0.47913200686E+02  0.17259343906E+02  0.51719207927E+02  0.00000000000E+00 0.  1.
        -13    1    3    3    0    0  0.11420431041E+02 -0.11703683760E+01  0.16439526103E+03  0.16479562451E+03  0.00000000000E+00 0. -1.
         22    1    1    2    0    0 -0.24028528435E+01 -0.46742832310E+02  0.12405409944E+02  0.48420659538E+02  0.00000000000E+00 0. -1.
<mgrwt>
<rscale>  0 0.93534391E+02</rscale>
<asrwt>0</asrwt>
<pdfrwt beam="1">  1        2 0.35307346E-01 0.11781459E+03</pdfrwt>
<pdfrwt beam="2">  1       -2 0.54519599E-02 0.11781459E+03</pdfrwt>
<totfact> 0.23024005E+04</totfact>
</mgrwt>
</event>
<event>
 6    1  0.1535970E-002  0.9417940E+02  0.7546771E-02  0.1411999E+00
          2   -1    0    0  501    0  0.00000000000E+00  0.00000000000E+00  0.38760171918E+02  0.38760171918E+02  0.00000000000E+00 0.  1.
         -2   -1    0    0    0  501 -0.00000000000E+00 -0.00000000000E+00 -0.73309310398E+02  0.73309310398E+02  0.00000000000E+00 0. -1.
         23    2    1    2    0    0 -0.69411105076E+00  0.12397128802E+02 -0.29914691001E+02  0.98816230032E+02  0.93357313518E+02 0.  0.
         11    1    3    3    0    0  0.30450318448E+02 -0.18471554193E+02  0.12562682726E+02  0.37765608762E+02  0.00000000000E+00 0.  1.
        -11    1    3    3    0    0 -0.31144429498E+02  0.30868682996E+02 -0.42477373727E+02  0.61050621270E+02  0.00000000000E+00 0. -1.
         22    1    1    2    0    0  0.69411105076E+00 -0.12397128802E+02 -0.46344474786E+01  0.13253252285E+02  0.00000000000E+00 0.  1.
<mgrwt>
<rscale>  0 0.56750164E+02</rscale>
<asrwt>0</asrwt>
<pdfrwt beam="1">  1        2 0.59631035E-02 0.94179396E+02</pdfrwt>
<pdfrwt beam="2">  1       -2 0.11278355E-01 0.94179396E+02</pdfrwt>
<totfact> 0.58519199E+04</totfact>
</mgrwt>
</event>
<event>
 6    1  0.1535970E-002  0.9475208E+02  0.7546771E-02  0.1354888E+00
          4   -1    0    0  501    0  0.00000000000E+00  0.00000000000E+00  0.52159528173E+02  0.52159528173E+02  0.00000000000E+00 0. -1.
         -4   -1    0    0    0  501 -0.00000000000E+00 -0.00000000000E+00 -0.78612277336E+02  0.78612277336E+02  0.00000000000E+00 0.  1.
         23    2    1    2    0    0 -0.94490263544E+01 -0.29330277694E+02 -0.85575607133E+01  0.95137733915E+02  0.89601379903E+02 0.  0.
         13    1    3    3    0    0  0.35364967315E+02 -0.28186609492E+02 -0.19091391397E+02  0.49088156345E+02  0.00000000000E+00 0.  1.
        -13    1    3    3    0    0 -0.44813993669E+02 -0.11436682022E+01  0.10533830684E+02  0.46049577571E+02  0.00000000000E+00 0. -1.
         22    1    1    2    0    0  0.94490263544E+01  0.29330277694E+02 -0.17895188450E+02  0.35634071593E+02  0.00000000000E+00 0.  1.
<mgrwt>
<rscale>  0 0.71553561E+02</rscale>
<asrwt>0</asrwt>
<pdfrwt beam="1">  1        4 0.80245428E-02 0.94752079E+02</pdfrwt>
<pdfrwt beam="2">  1       -4 0.12094197E-01 0.94752079E+02</pdfrwt>
<totfact> 0.88712258E+03</totfact>
</mgrwt>
</event>
<event>
 6    1  0.1535970E-002  0.9807486E+02  0.7546771E-02  0.1353514E+00
         -2   -1    0    0    0  501 -0.00000000000E+00  0.00000000000E+00  0.28091211136E+02  0.28091211136E+02  0.00000000000E+00 0.  1.
          2   -1    0    0  501    0  0.00000000000E+00 -0.00000000000E+00 -0.14401454219E+03  0.14401454219E+03  0.00000000000E+00 0. -1.
         23    2    1    2    0    0  0.25410067388E+02 -0.12779602174E+02 -0.82017321065E+02  0.12784959816E+03  0.93859943744E+02 0.  0.
         13    1    3    3    0    0 -0.27060736582E+02 -0.32210041126E+02 -0.33119825914E+02  0.53541508032E+02  0.00000000000E+00 0. -1.
        -13    1    3    3    0    0  0.52470803971E+02  0.19430438952E+02 -0.48897495151E+02  0.74308090133E+02  0.00000000000E+00 0.  1.
         22    1    1    2    0    0 -0.25410067388E+02  0.12779602174E+02 -0.33906009989E+02  0.44256155162E+02  0.00000000000E+00 0.  1.
<mgrwt>
<rscale>  0 0.71971601E+02</rscale>
<asrwt>0</asrwt>
<pdfrwt beam="1">  1        2 0.22156083E-01 0.98074863E+02</pdfrwt>
<pdfrwt beam="2">  1       -2 0.43217249E-02 0.98074863E+02</pdfrwt>
<totfact> 0.52779214E+04</totfact>
</mgrwt>
</event>
<event>
 6    1  0.1535970E-002  0.9228855E+02  0.7546771E-02  0.1406708E+00
          4   -1    0    0  501    0  0.00000000000E+00  0.00000000000E+00  0.48061794003E+02  0.48061794003E+02  0.00000000000E+00 0. -1.
         -4   -1    0    0    0  501 -0.00000000000E+00 -0.00000000000E+00 -0.63462273125E+02  0.63462273125E+02  0.00000000000E+00 0.  1.
         23    2    1    2    0    0 -0.12553783971E+02 -0.69150637379E+01 -0.23264960374E+02  0.95175805329E+02  0.91168854003E+02 0.  0.
         13    1    3    3    0    0  0.36559559363E+02  0.99204015784E+01  0.93719410248E+00  0.37893193070E+02  0.00000000000E+00 0.  1.
        -13    1    3    3    0    0 -0.49113343334E+02 -0.16835465316E+02 -0.24202154477E+02  0.57282612259E+02  0.00000000000E+00 0. -1.
         22    1    1    2    0    0  0.12553783971E+02  0.69150637379E+01  0.78644812527E+01  0.16348261799E+02  0.00000000000E+00 0. -1.
<mgrwt>
<rscale>  0 0.57934869E+02</rscale>
<asrwt>0</asrwt>
<pdfrwt beam="1">  1        4 0.73941221E-02 0.92288545E+02</pdfrwt>
<pdfrwt beam="2">  1       -4 0.97634267E-02 0.92288545E+02</pdfrwt>
<totfact> 0.14430000E+04</totfact>
</mgrwt>
</event>
<event>
 6    1  0.1535970E-002  0.1021500E+03  0.7546771E-02  0.1343380E+00
          2   -1    0    0  501    0  0.00000000000E+00  0.00000000000E+00  0.21779539140E+04  0.21779539140E+04  0.00000000000E+00 0.  1.
         -2   -1    0    0    0  501 -0.00000000000E+00 -0.00000000000E+00 -0.72990056824E+01  0.72990056824E+01  0.00000000000E+00 0. -1.
         23    2    1    2    0    0  0.28654059569E+01 -0.29799205236E+02  0.21398889464E+04  0.21423256836E+04  0.97664878551E+02 0.  0.
         13    1    3    3    0    0  0.11107194859E+01 -0.59322748665E+01  0.67587575282E+01  0.90612574289E+01  0.00000000000E+00 0. -1.
        -13    1    3    3    0    0  0.17546864711E+01 -0.23866930369E+02  0.21331301889E+04  0.21332644262E+04  0.00000000000E+00 0.  1.
         22    1    1    2    0    0 -0.28654059569E+01  0.29799205236E+02  0.30765961878E+02  0.42927236042E+02  0.00000000000E+00 0. -1.
<mgrwt>
<rscale>  0 0.75158782E+02</rscale>
<asrwt>0</asrwt>
<pdfrwt beam="1">  1        2 0.33506932E+00 0.10215004E+03</pdfrwt>
<pdfrwt beam="2">  1       -2 0.11229257E-02 0.10215004E+03</pdfrwt>
<totfact> 0.10509509E+04</totfact>
</mgrwt>
</event>
<event>
 6    1  0.1535970E-002  0.9210970E+02  0.7546771E-02  0.1423049E+00
         -3   -1    0    0    0  501 -0.00000000000E+00  0.00000000000E+00  0.55554628464E+02  0.55554628464E+02  0.00000000000E+00 0.  1.
          3   -1    0    0  501    0  0.00000000000E+00 -0.00000000000E+00 -0.50418464077E+02  0.50418464077E+02  0.00000000000E+00 0. -1.
         23    2    1    2    0    0 -0.36225520072E+00  0.11185215875E+02 -0.29652378381E+01  0.92157413007E+02  0.91427325530E+02 0.  0.
         13    1    3    3    0    0  0.18818685180E+01  0.51434961418E+02  0.21953850908E+01  0.51516176109E+02  0.00000000000E+00 0. -1.
        -13    1    3    3    0    0 -0.22441237187E+01 -0.40249745543E+02 -0.51606229289E+01  0.40641236897E+02  0.00000000000E+00 0.  1.
         22    1    1    2    0    0  0.36225520072E+00 -0.11185215875E+02  0.81014022251E+01  0.13815679535E+02  0.00000000000E+00 0. -1.
<mgrwt>
<rscale>  0 0.54380978E+02</rscale>
<asrwt>0</asrwt>
<pdfrwt beam="1">  1        3 0.77566868E-02 0.92109696E+02</pdfrwt>
<pdfrwt beam="2">  1       -3 0.85468659E-02 0.92109696E+02</pdfrwt>
<totfact> 0.21938713E+04</totfact>
</mgrwt>
</event>
<event>
 6    1  0.1535970E-002  0.9410517E+02  0.7546771E-02  0.1392164E+00
          4   -1    0    0  501    0  0.00000000000E+00  0.00000000000E+00  0.11660066058E+03  0.11660066058E+03  0.00000000000E+00 0.  1.
         -4   -1    0    0    0  501 -0.00000000000E+00 -0.00000000000E+00 -0.29284682757E+02  0.29284682757E+02  0.00000000000E+00 0. -1.
         23    2    1    2    0    0  0.17012749173E+02 -0.58592585517E+00  0.54064965837E+02  0.10853019990E+03  0.92552724513E+02 0.  0.
         11    1    3    3    0    0  0.52547604920E+02 -0.64498617628E+01  0.14215725299E+02  0.54817317933E+02  0.00000000000E+00 0. -1.
        -11    1    3    3    0    0 -0.35534855747E+02  0.58639359077E+01  0.39849240538E+02  0.53712881963E+02  0.00000000000E+00 0.  1.
         22    1    1    2    0    0 -0.17012749173E+02  0.58592585517E+00  0.33251011985E+02  0.37355143442E+02  0.00000000000E+00 0.  1.
<mgrwt>
<rscale>  0 0.61371693E+02</rscale>
<asrwt>0</asrwt>
<pdfrwt beam="1">  1        4 0.17938563E-01 0.94105174E+02</pdfrwt>
<pdfrwt beam="2">  1       -4 0.45053359E-02 0.94105174E+02</pdfrwt>
<totfact> 0.11361374E+04</totfact>
</mgrwt>
</event>
<event>
 6    1  0.1535970E-002  0.9419120E+02  0.7546771E-02  0.1398151E+00
         -2   -1    0    0    0  501 -0.00000000000E+00  0.00000000000E+00  0.28032750656E+01  0.28032750656E+01  0.00000000000E+00 0.  1.
          2   -1    0    0  501    0  0.00000000000E+00 -0.00000000000E+00 -0.12414383764E+04  0.12414383764E+04  0.00000000000E+00 0. -1.
         23    2    1    2    0    0  0.12011604494E+02  0.96858903471E+01 -0.11747271318E+04  0.11784972701E+04  0.92918707891E+02 0.  0.
         11    1    3    3    0    0 -0.23013910955E+02  0.38994781682E+02 -0.73825404383E+03  0.73964130924E+03  0.00000000000E+00 0.  1.
        -11    1    3    3    0    0  0.35025515449E+02 -0.29308891334E+02 -0.43647308796E+03  0.43885596084E+03  0.00000000000E+00 0. -1.
         22    1    1    2    0    0 -0.12011604494E+02 -0.96858903471E+01 -0.63907969557E+02  0.65744381412E+02  0.00000000000E+00 0.  1.
<mgrwt>
<rscale>  0 0.59924103E+02</rscale>
<asrwt>0</asrwt>
<pdfrwt beam="1">  1        2 0.19099036E+00 0.94191196E+02</pdfrwt>
<pdfrwt beam="2">  1       -2 0.43127346E-03 0.94191196E+02</pdfrwt>
<totfact> 0.12117110E+05</totfact>
</mgrwt>
</event>
<event>
 6    1  0.1535970E-002  0.9309680E+02  0.7546771E-02  0.1377519E+00
          1   -1    0    0  501    0  0.00000000000E+00  0.00000000000E+00  0.73728927861E+03  0.73728927861E+03  0.00000000000E+00 0. -1.
         -1   -1    0    0    0  501 -0.00000000000E+00 -0.00000000000E+00 -0.45220959291E+01  0.45220959291E+01  0.00000000000E+00 0.  1.
         23    2    1    2    0    0  0.21152774919E+02  0.70210749865E+01  0.60296202829E+03  0.61010672965E+03  0.90389593513E+02 0.  0.
         11    1    3    3    0    0  0.23232202065E+02 -0.39833937010E+02  0.31172739775E+03  0.31511973638E+03  0.00000000000E+00 0. -1.
        -11    1    3    3    0    0 -0.20794271467E+01  0.46855011996E+02  0.29123463054E+03  0.29498699326E+03  0.00000000000E+00 0.  1.
         22    1    1    2    0    0 -0.21152774919E+02 -0.70210749865E+01  0.12980515438E+03  0.13170464489E+03  0.00000000000E+00 0. -1.
<mgrwt>
<rscale>  0 0.65120346E+02</rscale>
<asrwt>0</asrwt>
<pdfrwt beam="1">  1        1 0.11342902E+00 0.93096799E+02</pdfrwt>
<pdfrwt beam="2">  1       -1 0.69570765E-03 0.93096799E+02</pdfrwt>
<totfact> 0.73455491E+04</totfact>
</mgrwt>
</event>
<event>
 6    1  0.1535970E-002  0.1288173E+03  0.7546771E-02  0.1246393E+00
         -3   -1    0    0    0  501 -0.00000000000E+00  0.00000000000E+00  0.11858814055E+03  0.11858814055E+03  0.00000000000E+00 0.  1.
          3   -1    0    0  501    0  0.00000000000E+00 -0.00000000000E+00 -0.10242865908E+03  0.10242865908E+03  0.00000000000E+00 0. -1.
         23    2    1    2    0    0 -0.60263715103E+02  0.67882190706E+02  0.18935064742E+02  0.13020154191E+03  0.91401300133E+02 0.  0.
         11    1    3    3    0    0 -0.81725664035E+02  0.69153498138E+02  0.12650371013E+02  0.10780223724E+03  0.00000000000E+00 0. -1.
        -11    1    3    3    0    0  0.21461948932E+02 -0.12713074319E+01  0.62846937294E+01  0.22399304673E+02  0.00000000000E+00 0.  1.
         22    1    1    2    0    0  0.60263715103E+02 -0.67882190706E+02 -0.27755832689E+01  0.90815257725E+02  0.00000000000E+00 0.  1.
<mgrwt>
<rscale>  0 0.11802383E+03</rscale>
<asrwt>0</asrwt>
<pdfrwt beam="1">  1        3 0.15758255E-01 0.12881733E+03</pdfrwt>
<pdfrwt beam="2">  1       -3 0.18244329E-01 0.12881733E+03</pdfrwt>
<totfact> 0.20432606E+03</totfact>
</mgrwt>
</event>
<event>
 6    1  0.1535970E-002  0.8978289E+02  0.7546771E-02  0.1393739E+00
          2   -1    0    0  501    0  0.00000000000E+00  0.00000000000E+00  0.49130517728E+03  0.49130517728E+03  0.00000000000E+00 0. -1.
         -2   -1    0    0    0  501 -0.00000000000E+00 -0.00000000000E+00 -0.75006285134E+01  0.75006285134E+01  0.00000000000E+00 0.  1.
         23    2    1    2    0    0  0.12134476575E+02 -0.14768049753E+02  0.45786461970E+03  0.46658437294E+03  0.87724718759E+02 0.  0.
         13    1    3    3    0    0 -0.66949620177E+00 -0.14282707835E+02  0.77046646037E+01  0.16242100385E+02  0.00000000000E+00 0.  1.
        -13    1    3    3    0    0  0.12803972777E+02 -0.48534191852E+00  0.45015995509E+03  0.45034227255E+03  0.00000000000E+00 0. -1.
         22    1    1    2    0    0 -0.12134476575E+02  0.14768049753E+02  0.25939929065E+02  0.32221432854E+02  0.00000000000E+00 0.  1.
<mgrwt>
<rscale>  0 0.60986324E+02</rscale>
<asrwt>0</asrwt>
<pdfrwt beam="1">  1        2 0.75585387E-01 0.89782889E+02</pdfrwt>
<pdfrwt beam="2">  1       -2 0.11539432E-02 0.89782889E+02</pdfrwt>
<totfact> 0.95205283E+04</totfact>
</mgrwt>
</event>
<event>
 6    1  0.1535970E-002  0.8954636E+02  0.7546771E-02  0.1397911E+00
         -2   -1    0    0    0  501 -0.00000000000E+00  0.00000000000E+00  0.11812777294E+02  0.11812777294E+02  0.00000000000E+00 0. -1.
          2   -1    0    0  501    0  0.00000000000E+00 -0.00000000000E+00 -0.52121398586E+03  0.52121398586E+03  0.00000000000E+00 0.  1.
         23    2    1    2    0    0  0.17921080585E+02  0.19476222395E+01 -0.50699275751E+03  0.51483998229E+03  0.87713128081E+02 0.  0.
         13    1    3    3    0    0  0.16057742359E+02 -0.36732062208E+01 -0.50847009327E+03  0.50873684680E+03  0.00000000000E+00 0.  1.
        -13    1    3    3    0    0  0.18633382264E+01  0.56208284603E+01  0.14773357646E+01  0.61031354964E+01  0.00000000000E+00 0. -1.
         22    1    1    2    0    0 -0.17921080585E+02 -0.19476222395E+01 -0.24084510594E+01  0.18186780865E+02  0.00000000000E+00 0. -1.
<mgrwt>
<rscale>  0 0.59981100E+02</rscale>
<asrwt>0</asrwt>
<pdfrwt beam="1">  1        2 0.80186793E-01 0.89546363E+02</pdfrwt>
<pdfrwt beam="2">  1       -2 0.18173498E-02 0.89546363E+02</pdfrwt>
<totfact> 0.46733586E+04</totfact>
</mgrwt>
</event>
<event>
 6    1  0.1535970E-002  0.9563130E+02  0.7546771E-02  0.1418448E+00
         -2   -1    0    0    0  501 -0.00000000000E+00  0.00000000000E+00  0.75879959543E+02  0.75879959543E+02  0.00000000000E+00 0.  1.
          2   -1    0    0  501    0  0.00000000000E+00 -0.00000000000E+00 -0.15481907162E+03  0.15481907162E+03  0.00000000000E+00 0. -1.
         23    2    1    2    0    0 -0.84797693503E+01 -0.65783788601E+01 -0.13953462418E+03  0.16916044453E+03  0.95027170284E+02 0.  0.
         11    1    3    3    0    0  0.21838007151E+02 -0.23523148991E+01 -0.13666116126E+03  0.13841497368E+03  0.00000000000E+00 0. -1.
        -11    1    3    3    0    0 -0.30317776501E+02 -0.42260639610E+01 -0.28734629174E+01  0.30745470849E+02  0.00000000000E+00 0.  1.
         22    1    1    2    0    0  0.84797693503E+01  0.65783788601E+01  0.60595512107E+02  0.61538586628E+02  0.00000000000E+00 0.  1.
<mgrwt>
<rscale>  0 0.55350672E+02</rscale>
<asrwt>0</asrwt>
<pdfrwt beam="1">  1        2 0.23818319E-01 0.95631295E+02</pdfrwt>
<pdfrwt beam="2">  1       -2 0.11673840E-01 0.95631295E+02</pdfrwt>
<totfact> 0.10711346E+04</totfact>
</mgrwt>
</event>
<event>
 6    1  0.1535970E-002  0.9497491E+02  0.7546771E-02  0.1392936E+00
         -2   -1    0    0    0  501 -0.00000000000E+00  0.00000000000E+00  0.38409338341E+01  0.38409338341E+01  0.00000000000E+00 0.  1.
          2   -1    0    0  501    0  0.00000000000E+00 -0.00000000000E+00 -0.89836345683E+03  0.89836345683E+03  0.00000000000E+00 0. -1.
         23    2    1    2    0    0  0.12292363916E+02 -0.10789678249E+02 -0.83794313727E+03  0.84330832750E+03  0.93555943488E+02 0.  0.
         13    1    3    3    0    0  0.38203422369E+02 -0.13757924693E+02 -0.76066285822E+03  0.76174586697E+03  0.00000000000E+00 0. -1.
        -13    1    3    3    0    0 -0.25911058453E+02  0.29682464443E+01 -0.77280279053E+02  0.81562460529E+02  0.00000000000E+00 0.  1.
         22    1    1    2    0    0 -0.12292363916E+02  0.10789678249E+02 -0.56579385723E+02  0.58896063163E+02  0.00000000000E+00 0.  1.
<mgrwt>
<rscale>  0 0.61182339E+02</rscale>
<asrwt>0</asrwt>
<pdfrwt beam="1">  1        2 0.13820985E+00 0.94974912E+02</pdfrwt>
<pdfrwt beam="2">  1       -2 0.59091254E-03 0.94974912E+02</pdfrwt>
<totfact> 0.12259130E+05</totfact>
</mgrwt>
</event>
<event>
 6    1  0.1535970E-002  0.9438031E+02  0.7546771E-02  0.1375200E+00
         -2   -1    0    0    0  501 -0.00000000000E+00  0.00000000000E+00  0.32878577901E+01  0.32878577901E+01  0.00000000000E+00 0.  1.
          2   -1    0    0  501    0  0.00000000000E+00 -0.00000000000E+00 -0.19381267329E+04  0.19381267329E+04  0.00000000000E+00 0. -1.
         23    2    1    2    0    0  0.14172430177E+02 -0.17113261972E+02 -0.18782485932E+04  0.18806183612E+04  0.91727428449E+02 0.  0.
         11    1    3    3    0    0  0.21985709475E+01 -0.50236576362E+02 -0.68195078700E+03  0.68380218134E+03  0.00000000000E+00 0. -1.
        -11    1    3    3    0    0  0.11973859230E+02  0.33123314390E+02 -0.11962978062E+04  0.11968161799E+04  0.00000000000E+00 0.  1.
         22    1    1    2    0    0 -0.14172430177E+02  0.17113261972E+02 -0.56590281842E+02  0.60796229418E+02  0.00000000000E+00 0.  1.
<mgrwt>
<rscale>  0 0.65742513E+02</rscale>
<asrwt>0</asrwt>
<pdfrwt beam="1">  1        2 0.29817413E+00 0.94380309E+02</pdfrwt>
<pdfrwt beam="2">  1       -2 0.50582294E-03 0.94380309E+02</pdfrwt>
<totfact> 0.42670803E+04</totfact>
</mgrwt>
</event>
<event>
 6    1  0.1535970E-002  0.1158926E+03  0.7546771E-02  0.1364484E+00
         -2   -1    0    0    0  501 -0.00000000000E+00  0.00000000000E+00  0.19072465650E+01  0.19072465650E+01  0.00000000000E+00 0.  1.
          2   -1    0    0  501    0  0.00000000000E+00 -0.00000000000E+00 -0.31841153981E+04  0.31841153981E+04  0.00000000000E+00 0. -1.
         23    2    1    2    0    0 -0.11219949989E+02  0.89161269465E+01 -0.31213156035E+04  0.31234663740E+04  0.11500307839E+03 0.  0.
         13    1    3    3    0    0 -0.35873360738E+02  0.37502371080E+02 -0.26904052184E+04  0.26909057146E+04  0.00000000000E+00 0. -1.
        -13    1    3    3    0    0  0.24653410750E+02 -0.28586244134E+02 -0.43091038512E+03  0.43256065935E+03  0.00000000000E+00 0.  1.
         22    1    1    2    0    0  0.11219949989E+02 -0.89161269465E+01 -0.60892547963E+02  0.62556270628E+02  0.00000000000E+00 0. -1.
<mgrwt>
<rscale>  0 0.68724682E+02</rscale>
<asrwt>0</asrwt>
<pdfrwt beam="1">  1        2 0.48985815E+00 0.11589259E+03</pdfrwt>
<pdfrwt beam="2">  1       -2 0.29342600E-03 0.11589259E+03</pdfrwt>
<totfact> 0.19775938E+04</totfact>
</mgrwt>
</event>
<event>
 6    1  0.1535970E-002  0.9154603E+02  0.7546771E-02  0.1404001E+00
          2   -1    0    0  501    0  0.00000000000E+00  0.00000000000E+00  0.58385830459E+02  0.58385830459E+02  0.00000000000E+00 0. -1.
         -2   -1    0    0    0  501 -0.00000000000E+00 -0.00000000000E+00 -0.48904871283E+02  0.48904871283E+02  0.00000000000E+00 0.  1.
         23    2    1    2    0    0 -0.65169386887E+01 -0.13866949470E+02  0.78407800658E+01  0.91881192827E+02  0.90254711710E+02 0.  0.
         13    1    3    3    0    0 -0.34316631761E+02  0.22698333670E+02  0.17884127600E+02  0.44862986825E+02  0.00000000000E+00 0. -1.
        -13    1    3    3    0    0  0.27799693072E+02 -0.36565283140E+02 -0.10043347535E+02  0.47018206003E+02  0.00000000000E+00 0.  1.
         22    1    1    2    0    0  0.65169386887E+01  0.13866949470E+02  0.16401791098E+01  0.15409508915E+02  0.00000000000E+00 0. -1.
<mgrwt>
<rscale>  0 0.58554233E+02</rscale>
<asrwt>0</asrwt>
<pdfrwt beam="1">  1        2 0.89824355E-02 0.91546031E+02</pdfrwt>
<pdfrwt beam="2">  1       -2 0.75238263E-02 0.91546031E+02</pdfrwt>
<totfact> 0.65284941E+04</totfact>
</mgrwt>
</event>
<event>
 6    1  0.1535970E-002  0.9193794E+02  0.7546771E-02  0.1413811E+00
         -2   -1    0    0    0  501 -0.00000000000E+00  0.00000000000E+00  0.18891017961E+02  0.18891017961E+02  0.00000000000E+00 0.  1.
          2   -1    0    0  501    0  0.00000000000E+00 -0.00000000000E+00 -0.15703026012E+03  0.15703026012E+03  0.00000000000E+00 0. -1.
         23    2    1    2    0    0  0.12606872523E+02  0.30745160956E+01 -0.13359267209E+03  0.16217147141E+03  0.91017570936E+02 0.  0.
         13    1    3    3    0    0  0.37589096137E+02  0.10371386222E+01 -0.14230603865E+02  0.40206042969E+02  0.00000000000E+00 0.  1.
        -13    1    3    3    0    0 -0.24982223614E+02  0.20373774735E+01 -0.11936206823E+03  0.12196542844E+03  0.00000000000E+00 0. -1.
         22    1    1    2    0    0 -0.12606872523E+02 -0.30745160956E+01 -0.45465700640E+01  0.13749806667E+02  0.00000000000E+00 0.  1.
<mgrwt>
<rscale>  0 0.56351992E+02</rscale>
<asrwt>0</asrwt>
<pdfrwt beam="1">  1        2 0.24158501E-01 0.91937936E+02</pdfrwt>
<pdfrwt beam="2">  1       -2 0.29063106E-02 0.91937936E+02</pdfrwt>
<totfact> 0.85045528E+04</totfact>
</mgrwt>
</event>
<event>
 6    1  0.1535970E-002  0.9243845E+02  0.7546771E-02  0.1399051E+00
          2   -1    0    0  501    0  0.00000000000E+00  0.00000000000E+00  0.21269351589E+02  0.21269351589E+02  0.00000000000E+00 0. -1.
         -2   -1    0    0    0  501 -0.00000000000E+00 -0.00000000000E+00 -0.17135413246E+03  0.17135413246E+03  0.00000000000E+00 0.  1.
         23    2    1    2    0    0  0.17676230150E+01 -0.15995783655E+02 -0.84998440533E+02  0.12557707263E+03  0.91026791060E+02 0.  0.
         11    1    3    3    0    0  0.17374881382E+02 -0.11106255038E+02 -0.10076877575E+03  0.10285709295E+03  0.00000000000E+00 0.  1.
        -11    1    3    3    0    0 -0.15607258367E+02 -0.48895286175E+01  0.15770335215E+02  0.22719979679E+02  0.00000000000E+00 0. -1.
         22    1    1    2    0    0 -0.17676230150E+01  0.15995783655E+02 -0.65086340336E+02  0.67046411419E+02  0.00000000000E+00 0.  1.
<mgrwt>
<rscale>  0 0.59710370E+02</rscale>
<asrwt>0</asrwt>
<pdfrwt beam="1">  1        2 0.32722077E-02 0.92438446E+02</pdfrwt>
<pdfrwt beam="2">  1       -2 0.26362176E-01 0.92438446E+02</pdfrwt>
<totfact> 0.31384031E+04</totfact>
</mgrwt>
</event>
<event>
 6    1  0.1535970E-002  0.8874750E+02  0.7546771E-02  0.1378812E+00
          2   -1    0    0  501    0  0.00000000000E+00  0.00000000000E+00  0.31096008928E+03  0.31096008928E+03  0.00000000000E+00 0. -1.
         -2   -1    0    0    0  501 -0.00000000000E+00 -0.00000000000E+00 -0.18268407429E+02  0.18268407429E+02  0.00000000000E+00 0.  1.
         23    2    1    2    0    0  0.12594379600E+02  0.21814836214E+02  0.29071755587E+03  0.30396186556E+03  0.85097667089E+02 0.  0.
         11    1    3    3    0    0  0.32788537190E+02  0.45185533875E+02  0.15424065778E+03  0.16403353668E+03  0.00000000000E+00 0. -1.
        -11    1    3    3    0    0 -0.20194157591E+02 -0.23370697661E+02  0.13647689809E+03  0.13992832888E+03  0.00000000000E+00 0.  1.
         22    1    1    2    0    0 -0.12594379600E+02 -0.21814836214E+02  0.19741259808E+01  0.25266631155E+02  0.00000000000E+00 0.  1.
<mgrwt>
<rscale>  0 0.64777101E+02</rscale>
<asrwt>0</asrwt>
<pdfrwt beam="1">  1        2 0.47840010E-01 0.88747498E+02</pdfrwt>
<pdfrwt beam="2">  1       -2 0.28105244E-02 0.88747498E+02</pdfrwt>
<totfact> 0.43008602E+04</totfact>
</mgrwt>
</event>
<event>
 6    1  0.1535970E-002  0.9086368E+02  0.7546771E-02  0.1426816E+00
         -2   -1    0    0    0  501 -0.00000000000E+00  0.00000000000E+00  0.51603210130E+01  0.51603210130E+01  0.00000000000E+00 0.  1.
          2   -1    0    0  501    0  0.00000000000E+00 -0.00000000000E+00 -0.55123446607E+03  0.55123446607E+03  0.00000000000E+00 0. -1.
         23    2    1    2    0    0 -0.11747118794E+01 -0.10943245118E+02 -0.52294790775E+03  0.53078312150E+03  0.90194641155E+02 0.  0.
         13    1    3    3    0    0 -0.14930257282E+02 -0.13942586587E+02 -0.51332180905E+03  0.51372812650E+03  0.00000000000E+00 0. -1.
        -13    1    3    3    0    0  0.13755545403E+02  0.29993414687E+01 -0.96260986918E+01  0.17054995004E+02  0.00000000000E+00 0.  1.
         22    1    1    2    0    0  0.11747118794E+01  0.10943245118E+02 -0.23126237312E+02  0.25611665583E+02  0.00000000000E+00 0. -1.
<mgrwt>
<rscale>  0 0.53604499E+02</rscale>
<asrwt>0</asrwt>
<pdfrwt beam="1">  1        2 0.84805355E-01 0.90863677E+02</pdfrwt>
<pdfrwt beam="2">  1       -2 0.79389505E-03 0.90863677E+02</pdfrwt>
<totfact> 0.14281408E+05</totfact>
</mgrwt>
</event>
<event>
 6    1  0.1535970E-002  0.9277764E+02  0.7546771E-02  0.1398727E+00
         -2   -1    0    0    0  501 -0.00000000000E+00  0.00000000000E+00  0.51967048266E+02  0.51967048266E+02  0.00000000000E+00 0.  1.
          2   -1    0    0  501    0  0.00000000000E+00 -0.00000000000E+00 -0.57977205549E+02  0.57977205549E+02  0.00000000000E+00 0. -1.
         23    2    1    2    0    0  0.37934981364E+00 -0.15994771325E+02 -0.10386564053E+02  0.93357224176E+02  0.91387712397E+02 0.  0.
         11    1    3    3    0    0 -0.97111613597E+01 -0.16322315061E+02 -0.49470145132E+02  0.52990752810E+02  0.00000000000E+00 0. -1.
        -11    1    3    3    0    0  0.10090511173E+02  0.32754373638E+00  0.39083581079E+02  0.40366471367E+02  0.00000000000E+00 0.  1.
         22    1    1    2    0    0 -0.37934981364E+00  0.15994771325E+02  0.43764067709E+01  0.16587029639E+02  0.00000000000E+00 0.  1.
<mgrwt>
<rscale>  0 0.59787106E+02</rscale>
<asrwt>0</asrwt>
<pdfrwt beam="1">  1        2 0.89195701E-02 0.92777641E+02</pdfrwt>
<pdfrwt beam="2">  1       -2 0.79949305E-02 0.92777641E+02</pdfrwt>
<totfact> 0.60137959E+04</totfact>
</mgrwt>
</event>
<event>
 6    1  0.1535970E-002  0.9548302E+02  0.7546771E-02  0.1356792E+00
         -4   -1    0    0    0  501 -0.00000000000E+00  0.00000000000E+00  0.22221779729E+03  0.22221779729E+03  0.00000000000E+00 0.  1.
          4   -1    0    0  501    0  0.00000000000E+00 -0.00000000000E+00 -0.17652909385E+02  0.17652909385E+02  0.00000000000E+00 0. -1.
         23    2    1    2    0    0  0.13974403938E+02 -0.25591897952E+02  0.14603716183E+03  0.17448168676E+03  0.90921819013E+02 0.  0.
         11    1    3    3    0    0 -0.24763594909E+02  0.16583486420E+02  0.19573071165E+02  0.35656034124E+02  0.00000000000E+00 0. -1.
        -11    1    3    3    0    0  0.38737998847E+02 -0.42175384372E+02  0.12646409067E+03  0.13882565264E+03  0.00000000000E+00 0.  1.
         22    1    1    2    0    0 -0.13974403938E+02  0.25591897952E+02  0.58527726073E+02  0.65389019915E+02  0.00000000000E+00 0.  1.
<mgrwt>
<rscale>  0 0.70980099E+02</rscale>
<asrwt>0</asrwt>
<pdfrwt beam="1">  1        4 0.27158324E-02 0.95483016E+02</pdfrwt>
<pdfrwt beam="2">  1       -4 0.34187351E-01 0.95483016E+02</pdfrwt>
<totfact> 0.77339983E+03</totfact>
</mgrwt>
</event>
<event>
 6    1  0.1535970E-002  0.8980806E+02  0.7546771E-02  0.1424915E+00
         -1   -1    0    0    0  501 -0.00000000000E+00  0.00000000000E+00  0.61866974204E+01  0.61866974204E+01  0.00000000000E+00 0.  1.
          1   -1    0    0  501    0  0.00000000000E+00 -0.00000000000E+00 -0.45927477013E+03  0.45927477013E+03  0.00000000000E+00 0. -1.
         23    2    1    2    0    0  0.10880748734E+02 -0.43927822120E+01 -0.43284275866E+03  0.44206146820E+03  0.89038198074E+02 0.  0.
         11    1    3    3    0    0  0.16438906782E+02  0.90858239029E+01 -0.15195321679E+02  0.24159628580E+02  0.00000000000E+00 0.  1.
        -11    1    3    3    0    0 -0.55581580476E+01 -0.13478606115E+02 -0.41764743698E+03  0.41790183962E+03  0.00000000000E+00 0. -1.
         22    1    1    2    0    0 -0.10880748734E+02  0.43927822120E+01 -0.20245314059E+02  0.23399999357E+02  0.00000000000E+00 0.  1.
<mgrwt>
<rscale>  0 0.53994335E+02</rscale>
<asrwt>0</asrwt>
<pdfrwt beam="1">  1        1 0.70657655E-01 0.89808062E+02</pdfrwt>
<pdfrwt beam="2">  1       -1 0.95179963E-03 0.89808062E+02</pdfrwt>
<totfact> 0.88522953E+04</totfact>
</mgrwt>
</event>
<event>
 6    1  0.1535970E-002  0.1956661E+03  0.7546771E-02  0.1158394E+00
         -2   -1    0    0    0  501 -0.00000000000E+00  0.00000000000E+00  0.30916353219E+02  0.30916353219E+02  0.00000000000E+00 0.  1.
          2   -1    0    0  501    0  0.00000000000E+00 -0.00000000000E+00 -0.12015151369E+04  0.12015151369E+04  0.00000000000E+00 0. -1.
         23    2    1    2    0    0  0.16029509106E+03  0.68301607281E+02 -0.78957565422E+03  0.81345863782E+03  0.89025928493E+02 0.  0.
         11    1    3    3    0    0  0.87828078277E+02 -0.80277253403E+01 -0.42164916961E+03  0.43077399868E+03  0.00000000000E+00 0.  1.
        -11    1    3    3    0    0  0.72467012781E+02  0.76329332622E+02 -0.36792648461E+03  0.38268463914E+03  0.00000000000E+00 0. -1.
         22    1    1    2    0    0 -0.16029509106E+03 -0.68301607281E+02 -0.38102312948E+03  0.41897285231E+03  0.00000000000E+00 0.  1.
<mgrwt>
<rscale>  0 0.19007449E+03</rscale>
<asrwt>0</asrwt>
<pdfrwt beam="1">  1        2 0.18484849E+00 0.19566615E+03</pdfrwt>
<pdfrwt beam="2">  1       -2 0.47563618E-02 0.19566615E+03</pdfrwt>
<totfact> 0.41827237E+03</totfact>
</mgrwt>
</event>
<event>
 6    1  0.1535970E-002  0.9475390E+02  0.7546771E-02  0.1381744E+00
         -2   -1    0    0    0  501 -0.00000000000E+00  0.00000000000E+00  0.51114837067E+02  0.51114837067E+02  0.00000000000E+00 0.  1.
          2   -1    0    0  501    0  0.00000000000E+00 -0.00000000000E+00 -0.20130461819E+03  0.20130461819E+03  0.00000000000E+00 0. -1.
         23    2    1    2    0    0  0.39468923568E+01 -0.19331491726E+02 -0.18757390952E+03  0.21014821695E+03  0.92676949790E+02 0.  0.
         13    1    3    3    0    0  0.26833407622E+02 -0.11773263456E+02 -0.10023780071E+02  0.30969624859E+02  0.00000000000E+00 0.  1.
        -13    1    3    3    0    0 -0.22886515265E+02 -0.75582282695E+01 -0.17755012945E+03  0.17917859209E+03  0.00000000000E+00 0. -1.
         22    1    1    2    0    0 -0.39468923568E+01  0.19331491726E+02  0.37384128400E+02  0.42271238305E+02  0.00000000000E+00 0. -1.
<mgrwt>
<rscale>  0 0.64007551E+02</rscale>
<asrwt>0</asrwt>
<pdfrwt beam="1">  1        2 0.30969941E-01 0.94753900E+02</pdfrwt>
<pdfrwt beam="2">  1       -2 0.78638210E-02 0.94753900E+02</pdfrwt>
<totfact> 0.14874783E+04</totfact>
</mgrwt>
</event>
<event>
 6    1  0.1535970E-002  0.9203768E+02  0.7546771E-02  0.1416591E+00
         -1   -1    0    0    0  501 -0.00000000000E+00  0.00000000000E+00  0.32512177891E+02  0.32512177891E+02  0.00000000000E+00 0.  1.
          1   -1    0    0  501    0  0.00000000000E+00 -0.00000000000E+00 -0.11710555952E+03  0.11710555952E+03  0.00000000000E+00 0. -1.
         23    2    1    2    0    0 -0.12298906215E+02 -0.14932419750E+01 -0.95846005727E+02  0.13288111843E+03  0.91200010723E+02 0.  0.
         11    1    3    3    0    0 -0.20854511922E+02  0.38052570977E+02 -0.76689423104E+02  0.88114564299E+02  0.00000000000E+00 0. -1.
        -11    1    3    3    0    0  0.85556057067E+01 -0.39545812952E+02 -0.19156582623E+02  0.44766554132E+02  0.00000000000E+00 0.  1.
         22    1    1    2    0    0  0.12298906215E+02  0.14932419750E+01  0.11252624100E+02  0.16736618978E+02  0.00000000000E+00 0.  1.
<mgrwt>
<rscale>  0 0.55748768E+02</rscale>
<asrwt>0</asrwt>
<pdfrwt beam="1">  1        1 0.18016240E-01 0.92037682E+02</pdfrwt>
<pdfrwt beam="2">  1       -1 0.50018736E-02 0.92037682E+02</pdfrwt>
<totfact> 0.44670124E+04</totfact>
</mgrwt>
</event>
<event>
 6    1  0.1535970E-002  0.1092417E+03  0.7546771E-02  0.1293125E+00
         -2   -1    0    0    0  501 -0.00000000000E+00  0.00000000000E+00  0.10380294494E+03  0.10380294494E+03  0.00000000000E+00 0.  1.
          2   -1    0    0  501    0  0.00000000000E+00 -0.00000000000E+00 -0.29943050726E+03  0.29943050726E+03  0.00000000000E+00 0. -1.
         23    2    1    2    0    0  0.57583759562E+02 -0.17711349075E+02 -0.27942888355E+03  0.30002374970E+03  0.91127208741E+02 0.  0.
         13    1    3    3    0    0  0.49133043936E+02 -0.93530939698E+01 -0.28317768112E+03  0.28756066396E+03  0.00000000000E+00 0. -1.
        -13    1    3    3    0    0  0.84507156264E+01 -0.83582551052E+01  0.37487975705E+01  0.12463085743E+02  0.00000000000E+00 0.  1.
         22    1    1    2    0    0 -0.57583759562E+02  0.17711349075E+02  0.83801321225E+02  0.10320970250E+03  0.00000000000E+00 0.  1.
<mgrwt>
<rscale>  0 0.94139830E+02</rscale>
<asrwt>0</asrwt>
<pdfrwt beam="1">  1        2 0.46066231E-01 0.10924170E+03</pdfrwt>
<pdfrwt beam="2">  1       -2 0.15969684E-01 0.10924170E+03</pdfrwt>
<totfact> 0.32314405E+03</totfact>
</mgrwt>
</event>
<event>
 6    1  0.1535970E-002  0.9247432E+02  0.7546771E-02  0.1406767E+00
         -2   -1    0    0    0  501 -0.00000000000E+00  0.00000000000E+00  0.57591959551E+01  0.57591959551E+01  0.00000000000E+00 0.  1.
          2   -1    0    0  501    0  0.00000000000E+00 -0.00000000000E+00 -0.49463175077E+03  0.49463175077E+03  0.00000000000E+00 0. -1.
         23    2    1    2    0    0  0.12295725975E+02 -0.71689537158E+01 -0.42811971529E+03  0.43799314000E+03  0.91372431763E+02 0.  0.
         13    1    3    3    0    0 -0.38629273320E+02 -0.13358977375E+02 -0.20753276913E+03  0.21151958136E+03  0.00000000000E+00 0. -1.
        -13    1    3    3    0    0  0.50924999295E+02  0.61900236592E+01 -0.22058694616E+03  0.22647355864E+03  0.00000000000E+00 0.  1.
         22    1    1    2    0    0 -0.12295725975E+02  0.71689537158E+01 -0.60752839518E+02  0.62397806725E+02  0.00000000000E+00 0. -1.
<mgrwt>
<rscale>  0 0.57921541E+02</rscale>
<asrwt>0</asrwt>
<pdfrwt beam="1">  1        2 0.76097163E-01 0.92474321E+02</pdfrwt>
<pdfrwt beam="2">  1       -2 0.88603049E-03 0.92474321E+02</pdfrwt>
<totfact> 0.13799070E+05</totfact>
</mgrwt>
</event>
<event>
 6    1  0.1535970E-002  0.9238162E+02  0.7546771E-02  0.1379327E+00
          2   -1    0    0  501    0  0.00000000000E+00  0.00000000000E+00  0.35203125829E+03  0.35203125829E+03  0.00000000000E+00 0. -1.
         -2   -1    0    0    0  501 -0.00000000000E+00 -0.00000000000E+00 -0.12952198060E+02  0.12952198060E+02  0.00000000000E+00 0.  1.
         23    2    1    2    0    0  0.21412933830E+02  0.56466609900E+01  0.32691583993E+03  0.33971801664E+03  0.89688159297E+02 0.  0.
         11    1    3    3    0    0  0.22324434432E+01  0.40882216570E+02  0.24620986891E+03  0.24959094331E+03  0.00000000000E+00 0. -1.
        -11    1    3    3    0    0  0.19180490386E+02 -0.35235555580E+02  0.80705971024E+02  0.90127073332E+02  0.00000000000E+00 0.  1.
         22    1    1    2    0    0 -0.21412933830E+02 -0.56466609900E+01  0.12163220296E+02  0.25265439705E+02  0.00000000000E+00 0.  1.
<mgrwt>
<rscale>  0 0.64640966E+02</rscale>
<asrwt>0</asrwt>
<pdfrwt beam="1">  1        2 0.54158648E-01 0.92381624E+02</pdfrwt>
<pdfrwt beam="2">  1       -2 0.19926461E-02 0.92381624E+02</pdfrwt>
<totfact> 0.62379107E+04</totfact>
</mgrwt>
</event>
<event>
 6    1  0.1535970E-002  0.9135091E+02  0.7546771E-02  0.1414638E+00
          2   -1    0    0  501    0  0.00000000000E+00  0.00000000000E+00  0.24780596015E+02  0.24780596015E+02  0.00000000000E+00 0.  1.
         -2   -1    0    0    0  501 -0.00000000000E+00 -0.00000000000E+00 -0.12973725620E+03  0.12973725620E+03  0.00000000000E+00 0. -1.
         23    2    1    2    0    0  0.67369798733E+01  0.11187775469E+02 -0.64025630312E+02  0.11155388564E+03  0.90412581237E+02 0.  0.
         11    1    3    3    0    0  0.34875076540E+02 -0.12553829157E+02  0.72021346071E+00  0.37072743324E+02  0.00000000000E+00 0.  1.
        -11    1    3    3    0    0 -0.28138096667E+02  0.23741604626E+02 -0.64745843773E+02  0.74481142312E+02  0.00000000000E+00 0. -1.
         22    1    1    2    0    0 -0.67369798733E+01 -0.11187775469E+02 -0.40931029875E+02  0.42963966582E+02  0.00000000000E+00 0. -1.
<mgrwt>
<rscale>  0 0.56171644E+02</rscale>
<asrwt>0</asrwt>
<pdfrwt beam="1">  1        2 0.38123994E-02 0.91350906E+02</pdfrwt>
<pdfrwt beam="2">  1       -2 0.19959578E-01 0.91350906E+02</pdfrwt>
<totfact> 0.41219953E+04</totfact>
</mgrwt>
</event>
<event>
 6    1  0.1535970E-002  0.9375018E+02  0.7546771E-02  0.1385977E+00
          2   -1    0    0  501    0  0.00000000000E+00  0.00000000000E+00  0.29777728320E+04  0.29777728320E+04  0.00000000000E+00 0. -1.
         -2   -1    0    0    0  501 -0.00000000000E+00 -0.00000000000E+00 -0.28827021785E+01  0.28827021785E+01  0.00000000000E+00 0.  1.
         23    2    1    2    0    0  0.17771232899E+02  0.67767719351E+01  0.29346491086E+04  0.29361461965E+04  0.91800626032E+02 0.  0.
         11    1    3    3    0    0 -0.13838120415E+01  0.26033715957E+02  0.24924834614E+03  0.25060807520E+03  0.00000000000E+00 0.  1.
        -11    1    3    3    0    0  0.19155044941E+02 -0.19256944022E+02  0.26854007625E+04  0.26855381213E+04  0.00000000000E+00 0. -1.
         22    1    1    2    0    0 -0.17771232899E+02 -0.67767719351E+01  0.40241021241E+02  0.44509337752E+02  0.00000000000E+00 0.  1.
<mgrwt>
<rscale>  0 0.62918572E+02</rscale>
<asrwt>0</asrwt>
<pdfrwt beam="1">  1        2 0.45811644E+00 0.93750180E+02</pdfrwt>
<pdfrwt beam="2">  1       -2 0.44349502E-03 0.93750180E+02</pdfrwt>
<totfact> 0.14526432E+04</totfact>
</mgrwt>
</event>
<event>
 6    1  0.1535970E-002  0.9001508E+02  0.7546771E-02  0.1379837E+00
         -2   -1    0    0    0  501 -0.00000000000E+00  0.00000000000E+00  0.14341687136E+03  0.14341687136E+03  0.00000000000E+00 0.  1.
          2   -1    0    0  501    0  0.00000000000E+00 -0.00000000000E+00 -0.51188600496E+02  0.51188600496E+02  0.00000000000E+00 0. -1.
         23    2    1    2    0    0 -0.18597432446E+02  0.14754543319E+02 -0.91554577089E+01  0.90479483450E+02  0.86828298828E+02 0.  0.
         11    1    3    3    0    0 -0.11231125750E+02  0.22161198305E+02  0.36217270347E+02  0.43919785602E+02  0.00000000000E+00 0.  1.
        -11    1    3    3    0    0 -0.73663066960E+01 -0.74066549856E+01 -0.45372728056E+02  0.46559697848E+02  0.00000000000E+00 0. -1.
         22    1    1    2    0    0  0.18597432446E+02 -0.14754543319E+02  0.10138372857E+03  0.10412598840E+03  0.00000000000E+00 0.  1.
<mgrwt>
<rscale>  0 0.64506588E+02</rscale>
<asrwt>0</asrwt>
<pdfrwt beam="1">  1        2 0.78751694E-02 0.90015079E+02</pdfrwt>
<pdfrwt beam="2">  1       -2 0.22064134E-01 0.90015079E+02</pdfrwt>
<totfact> 0.13731955E+04</totfact>
</mgrwt>
</event>
<event>
 6    1  0.1535970E-002  0.9119617E+02  0.7546771E-02  0.1422153E+00
          2   -1    0    0  501    0  0.00000000000E+00  0.00000000000E+00  0.15798812457E+04  0.15798812457E+04  0.00000000000E+00 0.  1.
         -2   -1    0    0    0  501 -0.00000000000E+00 -0.00000000000E+00 -0.49236786126E+01  0.49236786126E+01  0.00000000000E+00 0. -1.
         23    2    1    2    0    0 -0.67508948664E+01  0.95439268434E+01  0.15690660684E+04  0.15717140543E+04  0.90443796993E+02 0.  0.
         11    1    3    3    0    0 -0.40032824582E+02  0.39388448268E+01  0.37131781807E+03  0.37349037948E+03  0.00000000000E+00 0. -1.
        -11    1    3    3    0    0  0.33281929716E+02  0.56050820166E+01  0.11977482503E+04  0.11982236748E+04  0.00000000000E+00 0.  1.
         22    1    1    2    0    0  0.67508948664E+01 -0.95439268434E+01  0.58914987326E+01  0.13090870040E+02  0.00000000000E+00 0. -1.
<mgrwt>
<rscale>  0 0.54568005E+02</rscale>
<asrwt>0</asrwt>
<pdfrwt beam="1">  1        2 0.24305825E+00 0.91196171E+02</pdfrwt>
<pdfrwt beam="2">  1       -2 0.75749028E-03 0.91196171E+02</pdfrwt>
<totfact> 0.36518890E+04</totfact>
</mgrwt>
</event>
<event>
 6    1  0.1535970E-002  0.1188567E+03  0.7546771E-02  0.1359670E+00
          1   -1    0    0  501    0  0.00000000000E+00  0.00000000000E+00  0.10385458858E+03  0.10385458858E+03  0.00000000000E+00 0. -1.
         -1   -1    0    0    0  501 -0.00000000000E+00 -0.00000000000E+00 -0.43600070894E+02  0.43600070894E+02  0.00000000000E+00 0.  1.
         23    2    1    2    0    0  0.11453658138E+02  0.87301565751E+01  0.59784647656E+02  0.13304554096E+03  0.11798097285E+03 0.  0.
         13    1    3    3    0    0  0.23470197316E+02  0.10301605079E+01  0.93514634433E+02  0.96420424422E+02  0.00000000000E+00 0. -1.
        -13    1    3    3    0    0 -0.12016539178E+02  0.76999960671E+01 -0.33729986776E+02  0.36625116535E+02  0.00000000000E+00 0.  1.
         22    1    1    2    0    0 -0.11453658138E+02 -0.87301565751E+01  0.46987002794E+00  0.14409118516E+02  0.00000000000E+00 0. -1.
<mgrwt>
<rscale>  0 0.70124424E+02</rscale>
<asrwt>0</asrwt>
<pdfrwt beam="1">  1        1 0.15977629E-01 0.11885669E+03</pdfrwt>
<pdfrwt beam="2">  1       -1 0.67077033E-02 0.11885669E+03</pdfrwt>
<totfact> 0.34850148E+04</totfact>
</mgrwt>
</event>
<event>
 6    1  0.1535970E-002  0.9018497E+02  0.7546771E-02  0.1387981E+00
          4   -1    0    0  501    0  0.00000000000E+00  0.00000000000E+00  0.24292097442E+03  0.24292097442E+03  0.00000000000E+00 0. -1.
         -4   -1    0    0    0  501 -0.00000000000E+00 -0.00000000000E+00 -0.14758177898E+02  0.14758177898E+02  0.00000000000E+00 0.  1.
         23    2    1    2    0    0  0.15908300104E+02 -0.13221238973E+02  0.21503209953E+03  0.23317832834E+03  0.87780714317E+02 0.  0.
         13    1    3    3    0    0 -0.30179667605E+02  0.42714044503E+01  0.14085138758E+03  0.14411166023E+03  0.00000000000E+00 0. -1.
        -13    1    3    3    0    0  0.46087967709E+02 -0.17492643424E+02  0.74180711956E+02  0.89066668107E+02  0.00000000000E+00 0.  1.
         22    1    1    2    0    0 -0.15908300104E+02  0.13221238973E+02  0.13130696989E+02  0.24500823978E+02  0.00000000000E+00 0.  1.
<mgrwt>
<rscale>  0 0.62411592E+02</rscale>
<asrwt>0</asrwt>
<pdfrwt beam="1">  1        4 0.37372455E-01 0.90184971E+02</pdfrwt>
<pdfrwt beam="2">  1       -4 0.22704891E-02 0.90184971E+02</pdfrwt>
<totfact> 0.84492005E+03</totfact>
</mgrwt>
</event>
<event>
 6    1  0.1535970E-002  0.9332744E+02  0.7546771E-02  0.1414038E+00
          2   -1    0    0  501    0  0.00000000000E+00  0.00000000000E+00  0.39374944367E+03  0.39374944367E+03  0.00000000000E+00 0. -1.
         -2   -1    0    0    0  501 -0.00000000000E+00 -0.00000000000E+00 -0.90867777505E+01  0.90867777505E+01  0.00000000000E+00 0.  1.
         23    2    1    2    0    0 -0.10313926245E+02  0.68145284345E+01  0.37679977106E+03  0.38818562458E+03  0.92505117600E+02 0.  0.
         11    1    3    3    0    0 -0.72686691320E+01  0.45272100678E+00 -0.33176093888E+01  0.80028144623E+01  0.00000000000E+00 0.  1.
        -11    1    3    3    0    0 -0.30452571132E+01  0.63618074278E+01  0.38011738045E+03  0.38018281011E+03  0.00000000000E+00 0. -1.
         22    1    1    2    0    0  0.10313926245E+02 -0.68145284345E+01  0.78628948574E+01  0.14650596845E+02  0.00000000000E+00 0.  1.
<mgrwt>
<rscale>  0 0.56302506E+02</rscale>
<asrwt>0</asrwt>
<pdfrwt beam="1">  1        2 0.60576824E-01 0.93327443E+02</pdfrwt>
<pdfrwt beam="2">  1       -2 0.13979661E-02 0.93327443E+02</pdfrwt>
<totfact> 0.92223048E+04</totfact>
</mgrwt>
</event>
<event>
 6    1  0.1535970E-002  0.1015715E+03  0.7546771E-02  0.1322898E+00
          1   -1    0    0  501    0  0.00000000000E+00  0.00000000000E+00  0.12236841606E+03  0.12236841606E+03  0.00000000000E+00 0. -1.
         -1   -1    0    0    0  501 -0.00000000000E+00 -0.00000000000E+00 -0.87030430840E+02  0.87030430840E+02  0.00000000000E+00 0.  1.
         23    2    1    2    0    0 -0.12593243839E+02  0.41728073139E+02  0.92592382752E+02  0.13744130445E+03  0.91743887784E+02 0.  0.
         13    1    3    3    0    0  0.96188243305E+00 -0.90052118350E+01 -0.15111521018E+02  0.17617523251E+02  0.00000000000E+00 0.  1.
        -13    1    3    3    0    0 -0.13555126272E+02  0.50733284974E+02  0.10770390377E+03  0.11982378119E+03  0.00000000000E+00 0. -1.
         22    1    1    2    0    0  0.12593243839E+02 -0.41728073139E+02 -0.57254397536E+02  0.71957542450E+02  0.00000000000E+00 0.  1.
<mgrwt>
<rscale>  0 0.82208723E+02</rscale>
<asrwt>0</asrwt>
<pdfrwt beam="1">  1        1 0.18825910E-01 0.10157147E+03</pdfrwt>
<pdfrwt beam="2">  1       -1 0.13389297E-01 0.10157147E+03</pdfrwt>
<totfact> 0.97662596E+03</totfact>
</mgrwt>
</event>
<event>
 6    1  0.1535970E-002  0.1104675E+03  0.7546771E-02  0.1287923E+00
          1   -1    0    0  501    0  0.00000000000E+00  0.00000000000E+00  0.96756572762E+02  0.96756572762E+02  0.00000000000E+00 0. -1.
         -1   -1    0    0    0  501 -0.00000000000E+00 -0.00000000000E+00 -0.12611009413E+03  0.12611009413E+03  0.00000000000E+00 0.  1.
         23    2    1    2    0    0  0.89681483589E+00 -0.64213481984E+02 -0.83813424155E+02  0.13866419332E+03  0.89882661810E+02 0.  0.
         13    1    3    3    0    0 -0.38643942774E+02 -0.58091075976E+02 -0.45701628919E+02  0.83406032798E+02  0.00000000000E+00 0. -1.
        -13    1    3    3    0    0  0.39540757610E+02 -0.61224060076E+01 -0.38111795236E+02  0.55258160518E+02  0.00000000000E+00 0.  1.
         22    1    1    2    0    0 -0.89681483589E+00  0.64213481984E+02  0.54459902785E+02  0.84202473579E+02  0.00000000000E+00 0.  1.
<mgrwt>
<rscale>  0 0.96459062E+02</rscale>
<asrwt>0</asrwt>
<pdfrwt beam="1">  1        1 0.14885627E-01 0.11046750E+03</pdfrwt>
<pdfrwt beam="2">  1       -1 0.19401553E-01 0.11046750E+03</pdfrwt>
<totfact> 0.74253077E+03</totfact>
</mgrwt>
</event>
<event>
 6    1  0.1535970E-002  0.8754050E+02  0.7546771E-02  0.1392589E+00
          2   -1    0    0  501    0  0.00000000000E+00  0.00000000000E+00  0.39601239538E+03  0.39601239538E+03  0.00000000000E+00 0. -1.
         -2   -1    0    0    0  501 -0.00000000000E+00 -0.00000000000E+00 -0.18311335046E+02  0.18311335046E+02  0.00000000000E+00 0.  1.
         23    2    1    2    0    0 -0.20931590686E+02 -0.17337461811E+01  0.38282341015E+03  0.39270485367E+03  0.84983535918E+02 0.  0.
         13    1    3    3    0    0  0.24356679868E+02 -0.18283038283E+02  0.24083101897E+03  0.24274904128E+03  0.00000000000E+00 0. -1.
        -13    1    3    3    0    0 -0.45288270554E+02  0.16549292102E+02  0.14199239118E+03  0.14995581239E+03  0.00000000000E+00 0.  1.
         22    1    1    2    0    0  0.20931590686E+02  0.17337461811E+01 -0.51223498128E+01  0.21618876753E+02  0.00000000000E+00 0.  1.
<mgrwt>
<rscale>  0 0.61267264E+02</rscale>
<asrwt>0</asrwt>
<pdfrwt beam="1">  1        2 0.60924977E-01 0.87540498E+02</pdfrwt>
<pdfrwt beam="2">  1       -2 0.28171288E-02 0.87540498E+02</pdfrwt>
<totfact> 0.33226062E+04</totfact>
</mgrwt>
</event>
<event>
 6    1  0.1535970E-002  0.9144759E+02  0.7546771E-02  0.1397162E+00
          2   -1    0    0  501    0  0.00000000000E+00  0.00000000000E+00  0.24573994157E+03  0.24573994157E+03  0.00000000000E+00 0. -1.
         -2   -1    0    0    0  501 -0.00000000000E+00 -0.00000000000E+00 -0.19234527171E+02  0.19234527171E+02  0.00000000000E+00 0.  1.
         23    2    1    2    0    0  0.16976783957E+02  0.22731027033E+01  0.22998261070E+03  0.24749679489E+03  0.89829193844E+02 0.  0.
         11    1    3    3    0    0  0.36938596245E+02  0.81886431026E+01  0.22199680322E+03  0.22519790054E+03  0.00000000000E+00 0. -1.
        -11    1    3    3    0    0 -0.19961812288E+02 -0.59155403993E+01  0.79858074803E+01  0.22298894348E+02  0.00000000000E+00 0.  1.
         22    1    1    2    0    0 -0.16976783957E+02 -0.22731027033E+01 -0.34771962948E+01  0.17477673858E+02  0.00000000000E+00 0.  1.
<mgrwt>
<rscale>  0 0.60159981E+02</rscale>
<asrwt>0</asrwt>
<pdfrwt beam="1">  1        2 0.37806143E-01 0.91447593E+02</pdfrwt>
<pdfrwt beam="2">  1       -2 0.29591582E-02 0.91447593E+02</pdfrwt>
<totfact> 0.51257284E+04</totfact>
</mgrwt>
</event>
<event>
 6    1  0.1535970E-002  0.1018385E+03  0.7546771E-02  0.1322965E+00
          2   -1    0    0  501    0  0.00000000000E+00  0.00000000000E+00  0.12879070985E+02  0.12879070985E+02  0.00000000000E+00 0.  1.
         -2   -1    0    0    0  501 -0.00000000000E+00 -0.00000000000E+00 -0.43444499470E+03  0.43444499470E+03  0.00000000000E+00 0. -1.
         23    2    1    2    0    0 -0.35867279000E+02  0.24067166122E+02 -0.24041383152E+03  0.26109364203E+03  0.92224667710E+02 0.  0.
         11    1    3    3    0    0 -0.69583256720E+01 -0.33241036574E+02 -0.11907701223E+03  0.12382535948E+03  0.00000000000E+00 0. -1.
        -11    1    3    3    0    0 -0.28908953328E+02  0.57308202696E+02 -0.12133681929E+03  0.13726828255E+03  0.00000000000E+00 0.  1.
         22    1    1    2    0    0  0.35867279000E+02 -0.24067166122E+02 -0.18115209219E+03  0.18623042365E+03  0.00000000000E+00 0. -1.
<mgrwt>
<rscale>  0 0.82184313E+02</rscale>
<asrwt>0</asrwt>
<pdfrwt beam="1">  1        2 0.19813955E-02 0.10183850E+03</pdfrwt>
<pdfrwt beam="2">  1       -2 0.66837693E-01 0.10183850E+03</pdfrwt>
<totfact> 0.10579412E+04</totfact>
</mgrwt>
</event>
<event>
 6    1  0.1535970E-002  0.9251987E+02  0.7546771E-02  0.1379566E+00
          2   -1    0    0  501    0  0.00000000000E+00  0.00000000000E+00  0.56229454138E+03  0.56229454138E+03  0.00000000000E+00 0. -1.
         -2   -1    0    0    0  501 -0.00000000000E+00 -0.00000000000E+00 -0.61138469311E+01  0.61138469311E+01  0.00000000000E+00 0.  1.
         23    2    1    2    0    0 -0.19268393440E+02 -0.10534288792E+02  0.49062690790E+03  0.49927416265E+03  0.89875939571E+02 0.  0.
         13    1    3    3    0    0 -0.46770820379E+02 -0.30601024776E+02  0.24470679186E+03  0.25100865790E+03  0.00000000000E+00 0.  1.
        -13    1    3    3    0    0  0.27502426939E+02  0.20066735983E+02  0.24592011603E+03  0.24826550475E+03  0.00000000000E+00 0. -1.
         22    1    1    2    0    0  0.19268393440E+02  0.10534288792E+02  0.65553786553E+02  0.69134225660E+02  0.00000000000E+00 0. -1.
<mgrwt>
<rscale>  0 0.64577975E+02</rscale>
<asrwt>0</asrwt>
<pdfrwt beam="1">  1        2 0.86506812E-01 0.92519872E+02</pdfrwt>
<pdfrwt beam="2">  1       -2 0.94059227E-03 0.92519872E+02</pdfrwt>
<totfact> 0.11026104E+05</totfact>
</mgrwt>
</event>
<event>
 6    1  0.1535970E-002  0.9207719E+02  0.7546771E-02  0.1400768E+00
          4   -1    0    0  501    0  0.00000000000E+00  0.00000000000E+00  0.26254222558E+03  0.26254222558E+03  0.00000000000E+00 0. -1.
         -4   -1    0    0    0  501 -0.00000000000E+00 -0.00000000000E+00 -0.13355901654E+02  0.13355901654E+02  0.00000000000E+00 0.  1.
         23    2    1    2    0    0 -0.29941577397E+01 -0.15561213336E+02  0.24114869134E+03  0.25812961918E+03  0.90703321977E+02 0.  0.
         11    1    3    3    0    0  0.51064154514E+00 -0.18314736713E+02  0.24869304504E+03  0.24936704069E+03  0.00000000000E+00 0. -1.
        -11    1    3    3    0    0 -0.35047992849E+01  0.27535233771E+01 -0.75443536913E+01  0.87625784810E+01  0.00000000000E+00 0.  1.
         22    1    1    2    0    0  0.29941577397E+01  0.15561213336E+02  0.80376325812E+01  0.17768508057E+02  0.00000000000E+00 0. -1.
<mgrwt>
<rscale>  0 0.59305970E+02</rscale>
<asrwt>0</asrwt>
<pdfrwt beam="1">  1        4 0.40391108E-01 0.92077190E+02</pdfrwt>
<pdfrwt beam="2">  1       -4 0.20547543E-02 0.92077190E+02</pdfrwt>
<totfact> 0.85188412E+03</totfact>
</mgrwt>
</event>
<event>
 6    1  0.1535970E-002  0.9123170E+02  0.7546771E-02  0.1420959E+00
          2   -1    0    0  501    0  0.00000000000E+00  0.00000000000E+00  0.62223668265E+02  0.62223668265E+02  0.00000000000E+00 0. -1.
         -2   -1    0    0    0  501 -0.00000000000E+00 -0.00000000000E+00 -0.46261365909E+02  0.46261365909E+02  0.00000000000E+00 0.  1.
         23    2    1    2    0    0 -0.11693857923E+02 -0.21648212883E+01  0.23746390931E+02  0.94271491362E+02  0.90453248902E+02 0.  0.
         13    1    3    3    0    0 -0.11816345309E+02 -0.24361174456E+02  0.51829460964E+02  0.58475515057E+02  0.00000000000E+00 0. -1.
        -13    1    3    3    0    0  0.12248738615E+00  0.22196353167E+02 -0.28083070034E+02  0.35795976305E+02  0.00000000000E+00 0.  1.
         22    1    1    2    0    0  0.11693857923E+02  0.21648212883E+01 -0.77840885751E+01  0.14213542812E+02  0.00000000000E+00 0. -1.
<mgrwt>
<rscale>  0 0.54818617E+02</rscale>
<asrwt>0</asrwt>
<pdfrwt beam="1">  1        2 0.95728721E-02 0.91231700E+02</pdfrwt>
<pdfrwt beam="2">  1       -2 0.71171332E-02 0.91231700E+02</pdfrwt>
<totfact> 0.65687283E+04</totfact>
</mgrwt>
</event>
<event>
 6    1  0.1535970E-002  0.9063875E+02  0.7546771E-02  0.1416510E+00
          1   -1    0    0  501    0  0.00000000000E+00  0.00000000000E+00  0.79134528984E+02  0.79134528984E+02  0.00000000000E+00 0. -1.
         -1   -1    0    0    0  501 -0.00000000000E+00 -0.00000000000E+00 -0.33955012253E+02  0.33955012253E+02  0.00000000000E+00 0.  1.
         23    2    1    2    0    0 -0.11492938600E+02  0.60499897654E+01  0.40617945551E+02  0.99323715963E+02  0.89703361354E+02 0.  0.
         11    1    3    3    0    0  0.25126821327E+02 -0.33737797986E+01  0.53641519366E+02  0.59330870042E+02  0.00000000000E+00 0.  1.
        -11    1    3    3    0    0 -0.36619759928E+02  0.94237695640E+01 -0.13023573815E+02  0.39992845921E+02  0.00000000000E+00 0. -1.
         22    1    1    2    0    0  0.11492938600E+02 -0.60499897654E+01  0.45615711808E+01  0.13765825274E+02  0.00000000000E+00 0.  1.
<mgrwt>
<rscale>  0 0.55766271E+02</rscale>
<asrwt>0</asrwt>
<pdfrwt beam="1">  1        1 0.12174543E-01 0.90638750E+02</pdfrwt>
<pdfrwt beam="2">  1       -1 0.52238481E-02 0.90638750E+02</pdfrwt>
<totfact> 0.69071521E+04</totfact>
</mgrwt>
</event>
<event>
 6    1  0.1535970E-002  0.7142122E+02  0.7546771E-02  0.1428326E+00
         -2   -1    0    0    0  501 -0.00000000000E+00  0.00000000000E+00  0.40400873071E+01  0.40400873071E+01  0.00000000000E+00 0.  1.
          2   -1    0    0  501    0  0.00000000000E+00 -0.00000000000E+00 -0.74812437008E+03  0.74812437008E+03  0.00000000000E+00 0. -1.
         23    2    1    2    0    0  0.79206644819E+01 -0.20683994814E+02 -0.69048886423E+03  0.69417279026E+03  0.67900121838E+02 0.  0.
         13    1    3    3    0    0  0.16823334257E+02  0.39014529813E+01 -0.45704116126E+02  0.48858081642E+02  0.00000000000E+00 0.  1.
        -13    1    3    3    0    0 -0.89026697747E+01 -0.24585447796E+02 -0.64478474811E+03  0.64531470862E+03  0.00000000000E+00 0. -1.
         22    1    1    2    0    0 -0.79206644819E+01  0.20683994814E+02 -0.53595418544E+02  0.57991667128E+02  0.00000000000E+00 0. -1.
<mgrwt>
<rscale>  0 0.53297579E+02</rscale>
<asrwt>0</asrwt>
<pdfrwt beam="1">  1        2 0.11509595E+00 0.71421223E+02</pdfrwt>
<pdfrwt beam="2">  1       -2 0.62155245E-03 0.71421223E+02</pdfrwt>
<totfact> 0.13715639E+05</totfact>
</mgrwt>
</event>
<event>
 6    1  0.1535970E-002  0.9632574E+02  0.7546771E-02  0.1356106E+00
          2   -1    0    0  501    0  0.00000000000E+00  0.00000000000E+00  0.32329367158E+03  0.32329367158E+03  0.00000000000E+00 0. -1.
         -2   -1    0    0    0  501 -0.00000000000E+00 -0.00000000000E+00 -0.13897949869E+02  0.13897949869E+02  0.00000000000E+00 0.  1.
         23    2    1    2    0    0  0.15918062416E+02 -0.23918245892E+02  0.27991897282E+03  0.29602918806E+03  0.91941185754E+02 0.  0.
         11    1    3    3    0    0 -0.12120577734E+02 -0.22378371470E+02  0.26084329665E+03  0.26208190575E+03  0.00000000000E+00 0. -1.
        -11    1    3    3    0    0  0.28038640150E+02 -0.15398744216E+01  0.19075676177E+02  0.33947282311E+02  0.00000000000E+00 0.  1.
         22    1    1    2    0    0 -0.15918062416E+02  0.23918245892E+02  0.29476748886E+02  0.41162433389E+02  0.00000000000E+00 0.  1.
<mgrwt>
<rscale>  0 0.71185945E+02</rscale>
<asrwt>0</asrwt>
<pdfrwt beam="1">  1        2 0.49737482E-01 0.96325743E+02</pdfrwt>
<pdfrwt beam="2">  1       -2 0.21381464E-02 0.96325743E+02</pdfrwt>
<totfact> 0.61965333E+04</totfact>
</mgrwt>
</event>
<event>
 6    1  0.1535970E-002  0.9520886E+02  0.7546771E-02  0.1401827E+00
         -4   -1    0    0    0  501 -0.00000000000E+00  0.00000000000E+00  0.44753090251E+02  0.44753090251E+02  0.00000000000E+00 0.  1.
          4   -1    0    0  501    0  0.00000000000E+00 -0.00000000000E+00 -0.11252876474E+03  0.11252876474E+03  0.00000000000E+00 0. -1.
         23    2    1    2    0    0  0.40594178170E+01  0.13498687033E+02 -0.89967389976E+02  0.13099182531E+03  0.94159617747E+02 0.  0.
         13    1    3    3    0    0  0.11739933014E+02  0.49186505007E+02 -0.77261401706E+02  0.92338846081E+02  0.00000000000E+00 0.  1.
        -13    1    3    3    0    0 -0.76805151966E+01 -0.35687817973E+02 -0.12705988270E+02  0.38652979229E+02  0.00000000000E+00 0. -1.
         22    1    1    2    0    0 -0.40594178170E+01 -0.13498687033E+02  0.22191715485E+02  0.26290029684E+02  0.00000000000E+00 0. -1.
<mgrwt>
<rscale>  0 0.59058303E+02</rscale>
<asrwt>0</asrwt>
<pdfrwt beam="1">  1        4 0.17312118E-01 0.95208860E+02</pdfrwt>
<pdfrwt beam="2">  1       -4 0.68850908E-02 0.95208860E+02</pdfrwt>
<totfact> 0.61425853E+03</totfact>
</mgrwt>
</event>
<event>
 6    1  0.1535970E-002  0.9999887E+02  0.7546771E-02  0.1375191E+00
          1   -1    0    0  501    0  0.00000000000E+00  0.00000000000E+00  0.31688448037E+03  0.31688448037E+03  0.00000000000E+00 0. -1.
         -1   -1    0    0    0  501 -0.00000000000E+00 -0.00000000000E+00 -0.16020425367E+02  0.16020425367E+02  0.00000000000E+00 0.  1.
         23    2    1    2    0    0  0.17860546806E+02 -0.54846343472E+01  0.29758292023E+03  0.31393529342E+03  0.98237944272E+02 0.  0.
         13    1    3    3    0    0  0.50900311318E+02 -0.12939340674E+02  0.25043387478E+03  0.25588160127E+03  0.00000000000E+00 0. -1.
        -13    1    3    3    0    0 -0.33039764513E+02  0.74547063269E+01  0.47149045443E+02  0.58053692145E+02  0.00000000000E+00 0.  1.
         22    1    1    2    0    0 -0.17860546806E+02  0.54846343472E+01  0.32811347718E+01  0.18969612318E+02  0.00000000000E+00 0.  1.
<mgrwt>
<rscale>  0 0.65744889E+02</rscale>
<asrwt>0</asrwt>
<pdfrwt beam="1">  1        1 0.48751454E-01 0.99998870E+02</pdfrwt>
<pdfrwt beam="2">  1       -1 0.24646811E-02 0.99998870E+02</pdfrwt>
<totfact> 0.36792105E+04</totfact>
</mgrwt>
</event>
<event>
 6    1  0.1535970E-002  0.9885518E+02  0.7546771E-02  0.1343369E+00
          2   -1    0    0  501    0  0.00000000000E+00  0.00000000000E+00  0.38643340091E+03  0.38643340091E+03  0.00000000000E+00 0. -1.
         -2   -1    0    0    0  501 -0.00000000000E+00 -0.00000000000E+00 -0.35861918686E+02  0.35861918686E+02  0.00000000000E+00 0.  1.
         23    2    1    2    0    0  0.26091996972E+02 -0.20264788005E+02  0.37066950752E+03  0.38362511712E+03  0.93171308608E+02 0.  0.
         11    1    3    3    0    0 -0.15556259105E+02  0.10056403188E+02  0.13909256727E+02  0.23164538958E+02  0.00000000000E+00 0.  1.
        -11    1    3    3    0    0  0.41648256077E+02 -0.30321191193E+02  0.35676025079E+03  0.36046057817E+03  0.00000000000E+00 0. -1.
         22    1    1    2    0    0 -0.26091996972E+02  0.20264788005E+02 -0.20098025289E+02  0.38670202474E+02  0.00000000000E+00 0.  1.
<mgrwt>
<rscale>  0 0.75162333E+02</rscale>
<asrwt>0</asrwt>
<pdfrwt beam="1">  1        2 0.59451290E-01 0.98855180E+02</pdfrwt>
<pdfrwt beam="2">  1       -2 0.55172185E-02 0.98855180E+02</pdfrwt>
<totfact> 0.12841051E+04</totfact>
</mgrwt>
</event>
<event>
 6    1  0.1535970E-002  0.9271584E+02  0.7546771E-02  0.1410143E+00
          2   -1    0    0  501    0  0.00000000000E+00  0.00000000000E+00  0.88498019859E+02  0.88498019859E+02  0.00000000000E+00 0. -1.
         -2   -1    0    0    0  501 -0.00000000000E+00 -0.00000000000E+00 -0.44705692125E+02  0.44705692125E+02  0.00000000000E+00 0.  1.
         23    2    1    2    0    0  0.52159254397E+01 -0.12338502040E+02  0.61308146757E+02  0.11115267058E+03  0.91743025939E+02 0.  0.
         11    1    3    3    0    0 -0.23007551719E+02 -0.43564241908E+02  0.42443432343E+02  0.65027959819E+02  0.00000000000E+00 0. -1.
        -11    1    3    3    0    0  0.28223477159E+02  0.31225739868E+02  0.18864714413E+02  0.46124710765E+02  0.00000000000E+00 0.  1.
         22    1    1    2    0    0 -0.52159254397E+01  0.12338502040E+02 -0.17515819023E+02  0.22051041400E+02  0.00000000000E+00 0.  1.
<mgrwt>
<rscale>  0 0.57161910E+02</rscale>
<asrwt>0</asrwt>
<pdfrwt beam="1">  1        2 0.13615080E-01 0.92715842E+02</pdfrwt>
<pdfrwt beam="2">  1       -2 0.68777988E-02 0.92715842E+02</pdfrwt>
<totfact> 0.45521854E+04</totfact>
</mgrwt>
</event>
<event>
 6    1  0.1535970E-002  0.9249707E+02  0.7546771E-02  0.1400271E+00
          2   -1    0    0  501    0  0.00000000000E+00  0.00000000000E+00  0.45257921526E+02  0.45257921526E+02  0.00000000000E+00 0. -1.
         -2   -1    0    0    0  501 -0.00000000000E+00 -0.00000000000E+00 -0.77434912394E+02  0.77434912394E+02  0.00000000000E+00 0.  1.
         23    2    1    2    0    0  0.24957421438E+01  0.15556179827E+02 -0.67019877293E+01  0.92739549550E+02  0.91145400057E+02 0.  0.
         11    1    3    3    0    0 -0.43442344945E+02  0.34512381780E+01 -0.11273896922E+02  0.45013877095E+02  0.00000000000E+00 0. -1.
        -11    1    3    3    0    0  0.45938087089E+02  0.12104941649E+02  0.45719091931E+01  0.47725672456E+02  0.00000000000E+00 0.  1.
         22    1    1    2    0    0 -0.24957421438E+01 -0.15556179827E+02 -0.25475003138E+02  0.29953284370E+02  0.00000000000E+00 0. -1.
<mgrwt>
<rscale>  0 0.59422555E+02</rscale>
<asrwt>0</asrwt>
<pdfrwt beam="1">  1        2 0.69627572E-02 0.92497067E+02</pdfrwt>
<pdfrwt beam="2">  1       -2 0.11913063E-01 0.92497067E+02</pdfrwt>
<totfact> 0.44008703E+04</totfact>
</mgrwt>
</event>
<event>
 6    1  0.1535970E-002  0.9243704E+02  0.7546771E-02  0.1394661E+00
          2   -1    0    0  501    0  0.00000000000E+00  0.00000000000E+00  0.49300217366E+03  0.49300217366E+03  0.00000000000E+00 0. -1.
         -2   -1    0    0    0  501 -0.00000000000E+00 -0.00000000000E+00 -0.63736583589E+01  0.63736583589E+01  0.00000000000E+00 0.  1.
         23    2    1    2    0    0  0.16738911031E+02 -0.42015878864E+01  0.44120490586E+03  0.45078417865E+03  0.90811685786E+02 0.  0.
         11    1    3    3    0    0 -0.16203702605E+02 -0.23885690582E+01  0.38687314279E+03  0.38721969714E+03  0.00000000000E+00 0. -1.
        -11    1    3    3    0    0  0.32942613636E+02 -0.18130188282E+01  0.54331763075E+02  0.63564481508E+02  0.00000000000E+00 0.  1.
         22    1    1    2    0    0 -0.16738911031E+02  0.42015878864E+01  0.45423609440E+02  0.48591653376E+02  0.00000000000E+00 0. -1.
<mgrwt>
<rscale>  0 0.60762163E+02</rscale>
<asrwt>0</asrwt>
<pdfrwt beam="1">  1        2 0.75846458E-01 0.92437042E+02</pdfrwt>
<pdfrwt beam="2">  1       -2 0.98056321E-03 0.92437042E+02</pdfrwt>
<totfact> 0.11997670E+05</totfact>
</mgrwt>
</event>
<event>
 6    1  0.1535970E-002  0.9401165E+02  0.7546771E-02  0.1395127E+00
          2   -1    0    0  501    0  0.00000000000E+00  0.00000000000E+00  0.13976437602E+04  0.13976437602E+04  0.00000000000E+00 0. -1.
         -2   -1    0    0    0  501 -0.00000000000E+00 -0.00000000000E+00 -0.26608171085E+01  0.26608171085E+01  0.00000000000E+00 0.  1.
         23    2    1    2    0    0  0.15982630856E+02 -0.31175224797E+01  0.13297793506E+04  0.13330983878E+04  0.92590641078E+02 0.  0.
         11    1    3    3    0    0  0.18362246576E+02  0.41492886621E+02  0.47814096803E+03  0.48028909737E+03  0.00000000000E+00 0.  1.
        -11    1    3    3    0    0 -0.23796157192E+01 -0.44610409100E+02  0.85163838255E+03  0.85280929040E+03  0.00000000000E+00 0. -1.
         22    1    1    2    0    0 -0.15982630856E+02  0.31175224797E+01  0.65203592478E+02  0.67206189503E+02  0.00000000000E+00 0.  1.
<mgrwt>
<rscale>  0 0.60649253E+02</rscale>
<asrwt>0</asrwt>
<pdfrwt beam="1">  1        2 0.21502153E+00 0.94011650E+02</pdfrwt>
<pdfrwt beam="2">  1       -2 0.40935759E-03 0.94011650E+02</pdfrwt>
<totfact> 0.10777974E+05</totfact>
</mgrwt>
</event>
<event>
 6    1  0.1535970E-002  0.8937556E+02  0.7546771E-02  0.1383538E+00
          2   -1    0    0  501    0  0.00000000000E+00  0.00000000000E+00  0.13349643569E+04  0.13349643569E+04  0.00000000000E+00 0. -1.
         -2   -1    0    0    0  501 -0.00000000000E+00 -0.00000000000E+00 -0.36883856046E+01  0.36883856046E+01  0.00000000000E+00 0.  1.
         23    2    1    2    0    0  0.22389342006E+02  0.44914312117E+01  0.12719108374E+04  0.12750471240E+04  0.86409110539E+02 0.  0.
         11    1    3    3    0    0  0.41555020527E+01 -0.40302513001E+02  0.64727643672E+03  0.64854324936E+03  0.00000000000E+00 0. -1.
        -11    1    3    3    0    0  0.18233839953E+02  0.44793944213E+02  0.62463440072E+03  0.62650387462E+03  0.00000000000E+00 0.  1.
         22    1    1    2    0    0 -0.22389342006E+02 -0.44914312117E+01  0.59365133811E+02  0.63605618480E+02  0.00000000000E+00 0.  1.
<mgrwt>
<rscale>  0 0.63542783E+02</rscale>
<asrwt>0</asrwt>
<pdfrwt beam="1">  1        2 0.20537875E+00 0.89375556E+02</pdfrwt>
<pdfrwt beam="2">  1       -2 0.56744501E-03 0.89375556E+02</pdfrwt>
<totfact> 0.73118139E+04</totfact>
</mgrwt>
</event>
<event>
 6    1  0.1535970E-002  0.9493578E+02  0.7546771E-02  0.1366167E+00
          1   -1    0    0  501    0  0.00000000000E+00  0.00000000000E+00  0.14080650419E+04  0.14080650419E+04  0.00000000000E+00 0. -1.
         -1   -1    0    0    0  501 -0.00000000000E+00 -0.00000000000E+00 -0.11560673329E+02  0.11560673329E+02  0.00000000000E+00 0.  1.
         23    2    1    2    0    0 -0.49872269781E+01  0.24854730810E+02  0.13902865890E+04  0.13935241662E+04  0.91488645505E+02 0.  0.
         13    1    3    3    0    0 -0.42186619421E+02 -0.86996810613E+01  0.51132812354E+03  0.51313920649E+03  0.00000000000E+00 0.  1.
        -13    1    3    3    0    0  0.37199392443E+02  0.33554411871E+02  0.87895846545E+03  0.88038495974E+03  0.00000000000E+00 0. -1.
         22    1    1    2    0    0  0.49872269781E+01 -0.24854730810E+02  0.62177795603E+01  0.26101548982E+02  0.00000000000E+00 0.  1.
<mgrwt>
<rscale>  0 0.68244487E+02</rscale>
<asrwt>0</asrwt>
<pdfrwt beam="1">  1        1 0.21662525E+00 0.94935780E+02</pdfrwt>
<pdfrwt beam="2">  1       -1 0.17785662E-02 0.94935780E+02</pdfrwt>
<totfact> 0.64642251E+03</totfact>
</mgrwt>
</event>
<event>
 6    1  0.1535970E-002  0.9124464E+02  0.7546771E-02  0.1424535E+00
          4   -1    0    0  501    0  0.00000000000E+00  0.00000000000E+00  0.82241825767E+02  0.82241825767E+02  0.00000000000E+00 0. -1.
         -4   -1    0    0    0  501 -0.00000000000E+00 -0.00000000000E+00 -0.60524539337E+02  0.60524539337E+02  0.00000000000E+00 0.  1.
         23    2    1    2    0    0 -0.28112029975E+01 -0.10896859603E+02  0.55745273599E+02  0.10692576910E+03  0.90547999185E+02 0.  0.
         11    1    3    3    0    0  0.40379505615E+02  0.97623852031E+00  0.74803453933E+01  0.41078133874E+02  0.00000000000E+00 0.  1.
        -11    1    3    3    0    0 -0.43190708613E+02 -0.11873098123E+02  0.48264928206E+02  0.65847635221E+02  0.00000000000E+00 0. -1.
         22    1    1    2    0    0  0.28112029975E+01  0.10896859603E+02 -0.34027987169E+02  0.35840596009E+02  0.00000000000E+00 0.  1.
<mgrwt>
<rscale>  0 0.54072790E+02</rscale>
<asrwt>0</asrwt>
<pdfrwt beam="1">  1        4 0.12652589E-01 0.91244641E+02</pdfrwt>
<pdfrwt beam="2">  1       -4 0.93114676E-02 0.91244641E+02</pdfrwt>
<totfact> 0.63566757E+03</totfact>
</mgrwt>
</event>
<event>
 6    1  0.1535970E-002  0.1029554E+03  0.7546771E-02  0.1363277E+00
         -2   -1    0    0    0  501 -0.00000000000E+00  0.00000000000E+00  0.76665710642E+01  0.76665710642E+01  0.00000000000E+00 0. -1.
          2   -1    0    0  501    0  0.00000000000E+00 -0.00000000000E+00 -0.50617582251E+03  0.50617582251E+03  0.00000000000E+00 0.  1.
         23    2    1    2    0    0 -0.76474749793E+01 -0.19405053988E+02 -0.43401822787E+03  0.44606236616E+03  0.10082049589E+03 0.  0.
         13    1    3    3    0    0 -0.22119164503E+02 -0.26273678547E+02 -0.42732227780E+03  0.42870023645E+03  0.00000000000E+00 0.  1.
        -13    1    3    3    0    0  0.14471689524E+02  0.68686245593E+01 -0.66959500660E+01  0.17362129716E+02  0.00000000000E+00 0. -1.
         22    1    1    2    0    0  0.76474749793E+01  0.19405053988E+02 -0.64491023575E+02  0.67780027409E+02  0.00000000000E+00 0. -1.
<mgrwt>
<rscale>  0 0.69072148E+02</rscale>
<asrwt>0</asrwt>
<pdfrwt beam="1">  1        2 0.77873223E-01 0.10295539E+03</pdfrwt>
<pdfrwt beam="2">  1       -2 0.11794722E-02 0.10295539E+03</pdfrwt>
<totfact> 0.91079398E+04</totfact>
</mgrwt>
</event>
<event>
 6    1  0.1535970E-002  0.9223972E+02  0.7546771E-02  0.1413755E+00
          1   -1    0    0  501    0  0.00000000000E+00  0.00000000000E+00  0.95264310926E+02  0.95264310926E+02  0.00000000000E+00 0. -1.
         -1   -1    0    0    0  501 -0.00000000000E+00 -0.00000000000E+00 -0.30492217323E+02  0.30492217323E+02  0.00000000000E+00 0.  1.
         23    2    1    2    0    0  0.11022757355E+02 -0.66252814668E+01  0.65087970302E+02  0.11289203011E+03  0.91338770796E+02 0.  0.
         11    1    3    3    0    0  0.58714341979E+01  0.34527334727E+02 -0.80638675617E+00  0.35032282861E+02  0.00000000000E+00 0.  1.
        -11    1    3    3    0    0  0.51513231569E+01 -0.41152616193E+02  0.65894357059E+02  0.77859747251E+02  0.00000000000E+00 0. -1.
         22    1    1    2    0    0 -0.11022757355E+02  0.66252814668E+01 -0.31587669876E+00  0.12864498137E+02  0.00000000000E+00 0.  1.
<mgrwt>
<rscale>  0 0.56364280E+02</rscale>
<asrwt>0</asrwt>
<pdfrwt beam="1">  1        1 0.14656048E-01 0.92239723E+02</pdfrwt>
<pdfrwt beam="2">  1       -1 0.46911104E-02 0.92239723E+02</pdfrwt>
<totfact> 0.63824451E+04</totfact>
</mgrwt>
</event>
<event>
 6    1  0.1535970E-002  0.9147440E+02  0.7546771E-02  0.1424440E+00
         -2   -1    0    0    0  501 -0.00000000000E+00  0.00000000000E+00  0.59147953389E+01  0.59147953389E+01  0.00000000000E+00 0.  1.
          2   -1    0    0  501    0  0.00000000000E+00 -0.00000000000E+00 -0.44603413287E+03  0.44603413287E+03  0.00000000000E+00 0. -1.
         23    2    1    2    0    0  0.68759939764E+01  0.88222190255E+01 -0.39703697671E+03  0.40743824797E+03  0.90787962800E+02 0.  0.
         13    1    3    3    0    0  0.10486386260E+02  0.23519008523E+02 -0.38982378721E+03  0.39067338421E+03  0.00000000000E+00 0. -1.
        -13    1    3    3    0    0 -0.36103922833E+01 -0.14696789498E+02 -0.72131895061E+01  0.16764863758E+02  0.00000000000E+00 0.  1.
         22    1    1    2    0    0 -0.68759939764E+01 -0.88222190255E+01 -0.43082360817E+02  0.44510680239E+02  0.00000000000E+00 0.  1.
<mgrwt>
<rscale>  0 0.54092435E+02</rscale>
<asrwt>0</asrwt>
<pdfrwt beam="1">  1        2 0.68620632E-01 0.91474395E+02</pdfrwt>
<pdfrwt beam="2">  1       -2 0.90996857E-03 0.91474395E+02</pdfrwt>
<totfact> 0.14821649E+05</totfact>
</mgrwt>
</event>
<event>
 6    1  0.1535970E-002  0.1049527E+03  0.7546771E-02  0.1305005E+00
         -2   -1    0    0    0  501 -0.00000000000E+00  0.00000000000E+00  0.25439796457E+02  0.25439796457E+02  0.00000000000E+00 0. -1.
          2   -1    0    0  501    0  0.00000000000E+00 -0.00000000000E+00 -0.35670046493E+03  0.35670046493E+03  0.00000000000E+00 0.  1.
         23    2    1    2    0    0  0.20383060665E+02 -0.50606580544E+02 -0.30307413245E+03  0.32073198858E+03  0.89658148447E+02 0.  0.
         13    1    3    3    0    0 -0.57113914181E+01 -0.59643518124E+02 -0.27462170628E+03  0.28108192899E+03  0.00000000000E+00 0.  1.
        -13    1    3    3    0    0  0.26094452083E+02  0.90369375807E+01 -0.28452426165E+02  0.39650059584E+02  0.00000000000E+00 0. -1.
         22    1    1    2    0    0 -0.20383060665E+02  0.50606580544E+02 -0.28186536030E+02  0.61408272812E+02  0.00000000000E+00 0. -1.
<mgrwt>
<rscale>  0 0.89116578E+02</rscale>
<asrwt>0</asrwt>
<pdfrwt beam="1">  1        2 0.54876995E-01 0.10495275E+03</pdfrwt>
<pdfrwt beam="2">  1       -2 0.39138148E-02 0.10495275E+03</pdfrwt>
<totfact> 0.23398369E+04</totfact>
</mgrwt>
</event>
<event>
 6    1  0.1535970E-002  0.9309950E+02  0.7546771E-02  0.1399343E+00
          2   -1    0    0  501    0  0.00000000000E+00  0.00000000000E+00  0.19506118129E+03  0.19506118129E+03  0.00000000000E+00 0. -1.
         -2   -1    0    0    0  501 -0.00000000000E+00 -0.00000000000E+00 -0.22529744803E+02  0.22529744803E+02  0.00000000000E+00 0.  1.
         23    2    1    2    0    0 -0.15468598180E+02 -0.25661176270E+01  0.17808851976E+03  0.20095531178E+03  0.91769569961E+02 0.  0.
         11    1    3    3    0    0  0.22822846682E+02  0.25439737814E+02  0.30076415266E+02  0.45526402735E+02  0.00000000000E+00 0.  1.
        -11    1    3    3    0    0 -0.38291444862E+02 -0.28005855441E+02  0.14801210449E+03  0.15542890904E+03  0.00000000000E+00 0. -1.
         22    1    1    2    0    0  0.15468598180E+02  0.25661176270E+01 -0.55570832706E+01  0.16635614320E+02  0.00000000000E+00 0.  1.
<mgrwt>
<rscale>  0 0.59641291E+02</rscale>
<asrwt>0</asrwt>
<pdfrwt beam="1">  1        2 0.30009411E-01 0.93099498E+02</pdfrwt>
<pdfrwt beam="2">  1       -2 0.34661147E-02 0.93099498E+02</pdfrwt>
<totfact> 0.52123254E+04</totfact>
</mgrwt>
</event>
<event>
 6    1  0.1535970E-002  0.9215944E+02  0.7546771E-02  0.1391436E+00
         -4   -1    0    0    0  501 -0.00000000000E+00  0.00000000000E+00  0.68380724548E+01  0.68380724548E+01  0.00000000000E+00 0.  1.
          4   -1    0    0  501    0  0.00000000000E+00 -0.00000000000E+00 -0.52007603217E+03  0.52007603217E+03  0.00000000000E+00 0. -1.
         23    2    1    2    0    0  0.12993543020E+02  0.12938249840E+02 -0.48166742030E+03  0.49040479858E+03  0.90316843496E+02 0.  0.
         13    1    3    3    0    0 -0.19910147559E+02  0.16786340134E+02 -0.41637818442E+03  0.41719178761E+03  0.00000000000E+00 0. -1.
        -13    1    3    3    0    0  0.32903690579E+02 -0.38480902933E+01 -0.65289235888E+02  0.73213010971E+02  0.00000000000E+00 0.  1.
         22    1    1    2    0    0 -0.12993543020E+02 -0.12938249840E+02 -0.31570539411E+02  0.36509306044E+02  0.00000000000E+00 0.  1.
<mgrwt>
<rscale>  0 0.61550914E+02</rscale>
<asrwt>0</asrwt>
<pdfrwt beam="1">  1        4 0.80011687E-01 0.92159442E+02</pdfrwt>
<pdfrwt beam="2">  1       -4 0.10520113E-02 0.92159442E+02</pdfrwt>
<totfact> 0.57100807E+03</totfact>
</mgrwt>
</event>
<event>
 6    1  0.1535970E-002  0.1057611E+03  0.7546771E-02  0.1310296E+00
          2   -1    0    0  501    0  0.00000000000E+00  0.00000000000E+00  0.22223960640E+03  0.22223960640E+03  0.00000000000E+00 0. -1.
         -2   -1    0    0    0  501 -0.00000000000E+00 -0.00000000000E+00 -0.33920131321E+02  0.33920131321E+02  0.00000000000E+00 0.  1.
         23    2    1    2    0    0 -0.23620117161E+02  0.42265601414E+02  0.17738766757E+03  0.20652310394E+03  0.94027213400E+02 0.  0.
         13    1    3    3    0    0  0.21657503011E+02  0.54643859625E+02  0.10153465457E+03  0.11732128925E+03  0.00000000000E+00 0.  1.
        -13    1    3    3    0    0 -0.45277620171E+02 -0.12378258211E+02  0.75853012994E+02  0.89201814696E+02  0.00000000000E+00 0. -1.
         22    1    1    2    0    0  0.23620117161E+02 -0.42265601414E+02  0.10931807515E+02  0.49636633781E+02  0.00000000000E+00 0. -1.
<mgrwt>
<rscale>  0 0.86995317E+02</rscale>
<asrwt>0</asrwt>
<pdfrwt beam="1">  1        2 0.34190708E-01 0.10576109E+03</pdfrwt>
<pdfrwt beam="2">  1       -2 0.52184819E-02 0.10576109E+03</pdfrwt>
<totfact> 0.25154538E+04</totfact>
</mgrwt>
</event>
<event>
 6    1  0.1535970E-002  0.9289465E+02  0.7546771E-02  0.1411629E+00
          2   -1    0    0  501    0  0.00000000000E+00  0.00000000000E+00  0.41634037234E+03  0.41634037234E+03  0.00000000000E+00 0. -1.
         -2   -1    0    0    0  501 -0.00000000000E+00 -0.00000000000E+00 -0.72641485123E+01  0.72641485123E+01  0.00000000000E+00 0.  1.
         23    2    1    2    0    0 -0.12995390131E+02  0.68697387170E+00  0.38686526521E+03  0.39786197280E+03  0.91978605513E+02 0.  0.
         11    1    3    3    0    0 -0.29344304616E+01 -0.35374386748E+01  0.38692267026E+03  0.38694996720E+03  0.00000000000E+00 0. -1.
        -11    1    3    3    0    0 -0.10060959670E+02  0.42244125465E+01 -0.57405046688E-01  0.10912005598E+02  0.00000000000E+00 0.  1.
         22    1    1    2    0    0  0.12995390131E+02 -0.68697387170E+00  0.22210958615E+02  0.25742548055E+02  0.00000000000E+00 0. -1.
<mgrwt>
<rscale>  0 0.56831857E+02</rscale>
<asrwt>0</asrwt>
<pdfrwt beam="1">  1        2 0.64052346E-01 0.92894650E+02</pdfrwt>
<pdfrwt beam="2">  1       -2 0.11175616E-02 0.92894650E+02</pdfrwt>
<totfact> 0.11946914E+05</totfact>
</mgrwt>
</event>
<event>
 6    1  0.1535970E-002  0.9683229E+02  0.7546771E-02  0.1346743E+00
          1   -1    0    0  501    0  0.00000000000E+00  0.00000000000E+00  0.30780312867E+03  0.30780312867E+03  0.00000000000E+00 0. -1.
         -1   -1    0    0    0  501 -0.00000000000E+00 -0.00000000000E+00 -0.15396327488E+02  0.15396327488E+02  0.00000000000E+00 0.  1.
         23    2    1    2    0    0 -0.31765264021E+02  0.95527306959E+01  0.25721794458E+03  0.27484097923E+03  0.90973656546E+02 0.  0.
         13    1    3    3    0    0 -0.25580271307E+02  0.33707855809E+02  0.47373038380E+02  0.63519875541E+02  0.00000000000E+00 0.  1.
        -13    1    3    3    0    0 -0.61849927141E+01 -0.24155125113E+02  0.20984490620E+03  0.21132110369E+03  0.00000000000E+00 0. -1.
         22    1    1    2    0    0  0.31765264021E+02 -0.95527306959E+01  0.35188856596E+02  0.48358476926E+02  0.00000000000E+00 0.  1.
<mgrwt>
<rscale>  0 0.74080412E+02</rscale>
<asrwt>0</asrwt>
<pdfrwt beam="1">  1        1 0.47354323E-01 0.96832292E+02</pdfrwt>
<pdfrwt beam="2">  1       -1 0.23686660E-02 0.96832292E+02</pdfrwt>
<totfact> 0.40208750E+04</totfact>
</mgrwt>
</event>
<event>
 6    1  0.1535970E-002  0.9294545E+02  0.7546771E-02  0.1414165E+00
          2   -1    0    0  501    0  0.00000000000E+00  0.00000000000E+00  0.45269814423E+03  0.45269814423E+03  0.00000000000E+00 0. -1.
         -2   -1    0    0    0  501 -0.00000000000E+00 -0.00000000000E+00 -0.16870709919E+02  0.16870709919E+02  0.00000000000E+00 0.  1.
         23    2    1    2    0    0 -0.48253177553E+01  0.11520370752E+02  0.44466070146E+03  0.45427083983E+03  0.92102409632E+02 0.  0.
         11    1    3    3    0    0 -0.14019725158E+02  0.25988485514E+02  0.43188016385E+03  0.43288847294E+03  0.00000000000E+00 0. -1.
        -11    1    3    3    0    0  0.91944074031E+01 -0.14468114761E+02  0.12780537608E+02  0.21382366889E+02  0.00000000000E+00 0.  1.
         22    1    1    2    0    0  0.48253177553E+01 -0.11520370752E+02 -0.88332671491E+01  0.15298014323E+02  0.00000000000E+00 0.  1.
<mgrwt>
<rscale>  0 0.56274622E+02</rscale>
<asrwt>0</asrwt>
<pdfrwt beam="1">  1        2 0.69645859E-01 0.92945449E+02</pdfrwt>
<pdfrwt beam="2">  1       -2 0.25954942E-02 0.92945449E+02</pdfrwt>
<totfact> 0.32702080E+04</totfact>
</mgrwt>
</event>
<event>
 6    1  0.1535970E-002  0.9553284E+02  0.7546771E-02  0.1362879E+00
          2   -1    0    0  501    0  0.00000000000E+00  0.00000000000E+00  0.51045681321E+03  0.51045681321E+03  0.00000000000E+00 0.  1.
         -2   -1    0    0    0  501 -0.00000000000E+00 -0.00000000000E+00 -0.72688824122E+01  0.72688824122E+01  0.00000000000E+00 0. -1.
         23    2    1    2    0    0  0.18335126324E+02  0.18828796730E+02  0.39149490252E+03  0.40298236026E+03  0.91846739407E+02 0.  0.
         11    1    3    3    0    0  0.19661267124E+02  0.28482057060E+02  0.39171010301E+03  0.39323605862E+03  0.00000000000E+00 0.  1.
        -11    1    3    3    0    0 -0.13261407998E+01 -0.96532603293E+01 -0.21520049178E+00  0.97463016400E+01  0.00000000000E+00 0. -1.
         22    1    1    2    0    0 -0.18335126324E+02 -0.18828796730E+02  0.11169302827E+03  0.11474333536E+03  0.00000000000E+00 0. -1.
<mgrwt>
<rscale>  0 0.69187198E+02</rscale>
<asrwt>0</asrwt>
<pdfrwt beam="1">  1        2 0.78531789E-01 0.95532842E+02</pdfrwt>
<pdfrwt beam="2">  1       -2 0.11182900E-02 0.95532842E+02</pdfrwt>
<totfact> 0.96350910E+04</totfact>
</mgrwt>
</event>
<event>
 6    1  0.1535970E-002  0.9396738E+02  0.7546771E-02  0.1370332E+00
         -2   -1    0    0    0  501 -0.00000000000E+00  0.00000000000E+00  0.27011671282E+02  0.27011671282E+02  0.00000000000E+00 0.  1.
          2   -1    0    0  501    0  0.00000000000E+00 -0.00000000000E+00 -0.58921922623E+03  0.58921922623E+03  0.00000000000E+00 0. -1.
         23    2    1    2    0    0 -0.19138041170E+02  0.15128947653E+02 -0.57902500889E+03  0.58660023038E+03  0.90745356277E+02 0.  0.
         11    1    3    3    0    0 -0.54576833550E+02 -0.17717872864E+01 -0.32343428412E+03  0.32801144208E+03  0.00000000000E+00 0. -1.
        -11    1    3    3    0    0  0.35438792380E+02  0.16900734940E+02 -0.25559072478E+03  0.25858878831E+03  0.00000000000E+00 0.  1.
         22    1    1    2    0    0  0.19138041170E+02 -0.15128947653E+02  0.16817453949E+02  0.29630667125E+02  0.00000000000E+00 0.  1.
<mgrwt>
<rscale>  0 0.67075069E+02</rscale>
<asrwt>0</asrwt>
<pdfrwt beam="1">  1        2 0.90649102E-01 0.93967385E+02</pdfrwt>
<pdfrwt beam="2">  1       -2 0.41556422E-02 0.93967385E+02</pdfrwt>
<totfact> 0.12356685E+04</totfact>
</mgrwt>
</event>
<event>
 6    1  0.1535970E-002  0.9297752E+02  0.7546771E-02  0.1389367E+00
          2   -1    0    0  501    0  0.00000000000E+00  0.00000000000E+00  0.64791502464E+02  0.64791502464E+02  0.00000000000E+00 0. -1.
         -2   -1    0    0    0  501 -0.00000000000E+00 -0.00000000000E+00 -0.52732764871E+02  0.52732764871E+02  0.00000000000E+00 0.  1.
         23    2    1    2    0    0  0.86614347560E+01  0.16302062901E+02  0.23376124127E+02  0.95871070231E+02  0.91126512175E+02 0.  0.
         13    1    3    3    0    0 -0.45571543132E+01 -0.37095521291E+02  0.41749278767E+01  0.37606852807E+02  0.00000000000E+00 0.  1.
        -13    1    3    3    0    0  0.13218589069E+02  0.53397584192E+02  0.19201196251E+02  0.58264217424E+02  0.00000000000E+00 0. -1.
         22    1    1    2    0    0 -0.86614347560E+01 -0.16302062901E+02 -0.11317386534E+02  0.21653197104E+02  0.00000000000E+00 0.  1.
<mgrwt>
<rscale>  0 0.62064371E+02</rscale>
<asrwt>0</asrwt>
<pdfrwt beam="1">  1        2 0.99679234E-02 0.92977518E+02</pdfrwt>
<pdfrwt beam="2">  1       -2 0.81127331E-02 0.92977518E+02</pdfrwt>
<totfact> 0.51365276E+04</totfact>
</mgrwt>
</event>
<event>
 6    1  0.1535970E-002  0.8283113E+02  0.7546771E-02  0.1401971E+00
         -2   -1    0    0    0  501 -0.00000000000E+00  0.00000000000E+00  0.21476134135E+02  0.21476134135E+02  0.00000000000E+00 0.  1.
          2   -1    0    0  501    0  0.00000000000E+00 -0.00000000000E+00 -0.23924233787E+03  0.23924233787E+03  0.00000000000E+00 0. -1.
         23    2    1    2    0    0 -0.21289489788E+02  0.17056407717E+01 -0.22370742907E+03  0.23854980618E+03  0.80030273145E+02 0.  0.
         11    1    3    3    0    0 -0.80107980999E+01 -0.34870651080E+02 -0.15956505289E+03  0.16352718825E+03  0.00000000000E+00 0. -1.
        -11    1    3    3    0    0 -0.13278691688E+02  0.36576291852E+02 -0.64142376183E+02  0.75022617930E+02  0.00000000000E+00 0.  1.
         22    1    1    2    0    0  0.21289489788E+02 -0.17056407717E+01  0.59412253403E+01  0.22168665824E+02  0.00000000000E+00 0.  1.
<mgrwt>
<rscale>  0 0.59024707E+02</rscale>
<asrwt>0</asrwt>
<pdfrwt beam="1">  1        2 0.36806515E-01 0.82831131E+02</pdfrwt>
<pdfrwt beam="2">  1       -2 0.33040205E-02 0.82831131E+02</pdfrwt>
<totfact> 0.44321574E+04</totfact>
</mgrwt>
</event>
<event>
 6    1  0.1535970E-002  0.1460629E+03  0.7546771E-02  0.1216953E+00
         -2   -1    0    0    0  501 -0.00000000000E+00  0.00000000000E+00  0.41837905484E+02  0.41837905484E+02  0.00000000000E+00 0.  1.
          2   -1    0    0  501    0  0.00000000000E+00 -0.00000000000E+00 -0.40605660046E+03  0.40605660046E+03  0.00000000000E+00 0. -1.
         23    2    1    2    0    0 -0.31080459067E+02  0.10986408090E+03 -0.19141469172E+03  0.24077778825E+03  0.91094719372E+02 0.  0.
         13    1    3    3    0    0 -0.29518424597E+02  0.49463481267E+01 -0.90012343146E+02  0.94857923597E+02  0.00000000000E+00 0.  1.
        -13    1    3    3    0    0 -0.15620344698E+01  0.10491773278E+03 -0.10140234858E+03  0.14591986465E+03  0.00000000000E+00 0. -1.
         22    1    1    2    0    0  0.31080459067E+02 -0.10986408090E+03 -0.17280400326E+03  0.20711671770E+03  0.00000000000E+00 0.  1.
<mgrwt>
<rscale>  0 0.13734042E+03</rscale>
<asrwt>0</asrwt>
<pdfrwt beam="1">  1        2 0.62470247E-01 0.14606286E+03</pdfrwt>
<pdfrwt beam="2">  1       -2 0.64366008E-02 0.14606286E+03</pdfrwt>
<totfact> 0.99511724E+03</totfact>
</mgrwt>
</event>
<event>
 6    1  0.1535970E-002  0.9427021E+02  0.7546771E-02  0.1380248E+00
         -2   -1    0    0    0  501 -0.00000000000E+00  0.00000000000E+00  0.31090817997E+02  0.31090817997E+02  0.00000000000E+00 0.  1.
          2   -1    0    0  501    0  0.00000000000E+00 -0.00000000000E+00 -0.13576946130E+03  0.13576946130E+03  0.00000000000E+00 0. -1.
         23    2    1    2    0    0  0.10251289746E+02  0.17787105308E+02 -0.11076228157E+03  0.14544811660E+03  0.92007616791E+02 0.  0.
         11    1    3    3    0    0 -0.68852191951E+00  0.11283529266E+02  0.15145264354E+02  0.18898971598E+02  0.00000000000E+00 0.  1.
        -11    1    3    3    0    0  0.10939811665E+02  0.65035760428E+01 -0.12590754592E+03  0.12654914500E+03  0.00000000000E+00 0. -1.
         22    1    1    2    0    0 -0.10251289746E+02 -0.17787105308E+02  0.60836382672E+01  0.21412162695E+02  0.00000000000E+00 0.  1.
<mgrwt>
<rscale>  0 0.64398638E+02</rscale>
<asrwt>0</asrwt>
<pdfrwt beam="1">  1        2 0.20887609E-01 0.94270205E+02</pdfrwt>
<pdfrwt beam="2">  1       -2 0.47832028E-02 0.94270205E+02</pdfrwt>
<totfact> 0.48231264E+04</totfact>
</mgrwt>
</event>
<event>
 6    1  0.1535970E-002  0.8762119E+02  0.7546771E-02  0.1434840E+00
          1   -1    0    0  501    0  0.00000000000E+00  0.00000000000E+00  0.62257567877E+03  0.62257567877E+03  0.00000000000E+00 0. -1.
         -1   -1    0    0    0  501 -0.00000000000E+00 -0.00000000000E+00 -0.43840661612E+01  0.43840661612E+01  0.00000000000E+00 0.  1.
         23    2    1    2    0    0  0.13910915825E+01 -0.10779985931E+02  0.59413845160E+03  0.60056471155E+03  0.86944406731E+02 0.  0.
         13    1    3    3    0    0 -0.25678260386E+02  0.40341094964E+01  0.51451111394E+03  0.51516728688E+03  0.00000000000E+00 0. -1.
        -13    1    3    3    0    0  0.27069351968E+02 -0.14814095428E+02  0.79627337654E+02  0.85397424675E+02  0.00000000000E+00 0.  1.
         22    1    1    2    0    0 -0.13910915825E+01  0.10779985931E+02  0.24053161009E+02  0.26395033377E+02  0.00000000000E+00 0. -1.
<mgrwt>
<rscale>  0 0.52000554E+02</rscale>
<asrwt>0</asrwt>
<pdfrwt beam="1">  1        1 0.95780804E-01 0.87621191E+02</pdfrwt>
<pdfrwt beam="2">  1       -1 0.67447221E-03 0.87621191E+02</pdfrwt>
<totfact> 0.96273733E+04</totfact>
</mgrwt>
</event>
<event>
 6    1  0.1535970E-002  0.9284953E+02  0.7546771E-02  0.1422232E+00
          2   -1    0    0  501    0  0.00000000000E+00  0.00000000000E+00  0.74152540697E+03  0.74152540697E+03  0.00000000000E+00 0. -1.
         -2   -1    0    0    0  501 -0.00000000000E+00 -0.00000000000E+00 -0.99840575306E+01  0.99840575306E+01  0.00000000000E+00 0.  1.
         23    2    1    2    0    0 -0.65102972198E+01 -0.89450552500E+01  0.73426786852E+03  0.74011508476E+03  0.92188057589E+02 0.  0.
         13    1    3    3    0    0 -0.52585893255E+01 -0.35644796129E+02  0.66334216214E+03  0.66431997436E+03  0.00000000000E+00 0. -1.
        -13    1    3    3    0    0 -0.12517078943E+01  0.26699740879E+02  0.70925706380E+02  0.75795110404E+02  0.00000000000E+00 0.  1.
         22    1    1    2    0    0  0.65102972198E+01  0.89450552500E+01 -0.27265190845E+01  0.11394379739E+02  0.00000000000E+00 0.  1.
<mgrwt>
<rscale>  0 0.54551485E+02</rscale>
<asrwt>0</asrwt>
<pdfrwt beam="1">  1        2 0.11408079E+00 0.92849534E+02</pdfrwt>
<pdfrwt beam="2">  1       -2 0.15360094E-02 0.92849534E+02</pdfrwt>
<totfact> 0.40051054E+04</totfact>
</mgrwt>
</event>
<event>
 6    1  0.1535970E-002  0.9377501E+02  0.7546771E-02  0.1400089E+00
         -2   -1    0    0    0  501 -0.00000000000E+00  0.00000000000E+00  0.45324726607E+02  0.45324726607E+02  0.00000000000E+00 0.  1.
          2   -1    0    0  501    0  0.00000000000E+00 -0.00000000000E+00 -0.77006334831E+02  0.77006334831E+02  0.00000000000E+00 0. -1.
         23    2    1    2    0    0  0.15066825589E+02  0.17079075156E+01 -0.43240792690E+02  0.10326431219E+03  0.92540941415E+02 0.  0.
         11    1    3    3    0    0  0.68907239556E+01  0.55911794467E+00 -0.72517180197E+02  0.72845975271E+02  0.00000000000E+00 0. -1.
        -11    1    3    3    0    0  0.81761016336E+01  0.11487895709E+01  0.29276387507E+02  0.30418336918E+02  0.00000000000E+00 0.  1.
         22    1    1    2    0    0 -0.15066825589E+02 -0.17079075156E+01  0.11559184466E+02  0.19066749249E+02  0.00000000000E+00 0. -1.
<mgrwt>
<rscale>  0 0.59465337E+02</rscale>
<asrwt>0</asrwt>
<pdfrwt beam="1">  1        2 0.11847128E-01 0.93775007E+02</pdfrwt>
<pdfrwt beam="2">  1       -2 0.69730349E-02 0.93775007E+02</pdfrwt>
<totfact> 0.52620243E+04</totfact>
</mgrwt>
</event>
<event>
 6    1  0.1535970E-002  0.9107464E+02  0.7546771E-02  0.1407126E+00
          2   -1    0    0  501    0  0.00000000000E+00  0.00000000000E+00  0.58642300747E+03  0.58642300747E+03  0.00000000000E+00 0. -1.
         -2   -1    0    0    0  501 -0.00000000000E+00 -0.00000000000E+00 -0.16739954560E+02  0.16739954560E+02  0.00000000000E+00 0.  1.
         23    2    1    2    0    0 -0.87082818792E+01 -0.11986386980E+02  0.57869752148E+03  0.58582028952E+03  0.89861463330E+02 0.  0.
         13    1    3    3    0    0  0.28043310673E+02  0.13696313165E+01  0.67190529347E+02  0.72820810194E+02  0.00000000000E+00 0.  1.
        -13    1    3    3    0    0 -0.36751592552E+02 -0.13356018296E+02  0.51150699214E+03  0.51299947932E+03  0.00000000000E+00 0. -1.
         22    1    1    2    0    0  0.87082818792E+01  0.11986386980E+02 -0.90144685768E+01  0.17342672511E+02  0.00000000000E+00 0. -1.
<mgrwt>
<rscale>  0 0.57840136E+02</rscale>
<asrwt>0</asrwt>
<pdfrwt beam="1">  1        2 0.90218908E-01 0.91074641E+02</pdfrwt>
<pdfrwt beam="2">  1       -2 0.25753781E-02 0.91074641E+02</pdfrwt>
<totfact> 0.24904426E+04</totfact>
</mgrwt>
</event>
<event>
 6    1  0.1535970E-002  0.9260233E+02  0.7546771E-02  0.1410575E+00
          3   -1    0    0  501    0  0.00000000000E+00  0.00000000000E+00  0.23217263086E+03  0.23217263086E+03  0.00000000000E+00 0. -1.
         -3   -1    0    0    0  501 -0.00000000000E+00 -0.00000000000E+00 -0.12698932757E+02  0.12698932757E+02  0.00000000000E+00 0.  1.
         23    2    1    2    0    0  0.13291417472E+02  0.12990897906E+01  0.20621597114E+03  0.22605357390E+03  0.91634284566E+02 0.  0.
         13    1    3    3    0    0  0.65575244340E+01 -0.34956841861E+02  0.31569517435E+02  0.47556454353E+02  0.00000000000E+00 0.  1.
        -13    1    3    3    0    0  0.67338930376E+01  0.36255931651E+02  0.17464645371E+03  0.17849711955E+03  0.00000000000E+00 0. -1.
         22    1    1    2    0    0 -0.13291417472E+02 -0.12990897906E+01  0.13257726963E+02  0.18817989715E+02  0.00000000000E+00 0.  1.
<mgrwt>
<rscale>  0 0.57065732E+02</rscale>
<asrwt>0</asrwt>
<pdfrwt beam="1">  1        3 0.35718863E-01 0.92602330E+02</pdfrwt>
<pdfrwt beam="2">  1       -3 0.19536821E-02 0.92602330E+02</pdfrwt>
<totfact> 0.15743730E+04</totfact>
</mgrwt>
</event>
<event>
 6    1  0.1535970E-002  0.9443788E+02  0.7546771E-02  0.1421646E+00
         -2   -1    0    0    0  501 -0.00000000000E+00  0.00000000000E+00  0.19118558660E+01  0.19118558660E+01  0.00000000000E+00 0.  1.
          2   -1    0    0  501    0  0.00000000000E+00 -0.00000000000E+00 -0.18353577464E+04  0.18353577464E+04  0.00000000000E+00 0. -1.
         23    2    1    2    0    0  0.36315070969E+01 -0.99685729287E+01 -0.17920213899E+04  0.17945080595E+04  0.93840041174E+02 0.  0.
         11    1    3    3    0    0  0.43673850471E+02  0.88475453279E+01 -0.12041196903E+04  0.12049439459E+04  0.00000000000E+00 0. -1.
        -11    1    3    3    0    0 -0.40042343374E+02 -0.18816118257E+02 -0.58790169959E+03  0.58956411352E+03  0.00000000000E+00 0.  1.
         22    1    1    2    0    0 -0.36315070969E+01  0.99685729287E+01 -0.41424500597E+02  0.42761542766E+02  0.00000000000E+00 0.  1.
<mgrwt>
<rscale>  0 0.54674250E+02</rscale>
<asrwt>0</asrwt>
<pdfrwt beam="1">  1        2 0.28236328E+00 0.94437882E+02</pdfrwt>
<pdfrwt beam="2">  1       -2 0.29413110E-03 0.94437882E+02</pdfrwt>
<totfact> 0.10256192E+05</totfact>
</mgrwt>
</event>
<event>
 6    1  0.1535970E-002  0.9253546E+02  0.7546771E-02  0.1429502E+00
          2   -1    0    0  501    0  0.00000000000E+00  0.00000000000E+00  0.99176907512E+02  0.99176907512E+02  0.00000000000E+00 0.  1.
         -2   -1    0    0    0  501 -0.00000000000E+00 -0.00000000000E+00 -0.39244471955E+02  0.39244471955E+02  0.00000000000E+00 0. -1.
         23    2    1    2    0    0  0.40403112525E+01 -0.91511493171E+01  0.75830977776E+02  0.11963757545E+03  0.91993177025E+02 0.  0.
         13    1    3    3    0    0  0.19324825309E+02  0.33230436632E+02  0.97479670983E+01  0.39657706118E+02  0.00000000000E+00 0. -1.
        -13    1    3    3    0    0 -0.15284514057E+02 -0.42381585949E+02  0.66083010677E+02  0.79979869328E+02  0.00000000000E+00 0.  1.
         22    1    1    2    0    0 -0.40403112525E+01  0.91511493171E+01 -0.15898542218E+02  0.18783804021E+02  0.00000000000E+00 0. -1.
<mgrwt>
<rscale>  0 0.53060076E+02</rscale>
<asrwt>0</asrwt>
<pdfrwt beam="1">  1        2 0.15257986E-01 0.92535465E+02</pdfrwt>
<pdfrwt beam="2">  1       -2 0.60376111E-02 0.92535465E+02</pdfrwt>
<totfact> 0.48516851E+04</totfact>
</mgrwt>
</event>
<event>
 6    1  0.1535970E-002  0.9338616E+02  0.7546771E-02  0.1416603E+00
          2   -1    0    0  501    0  0.00000000000E+00  0.00000000000E+00  0.18728880309E+03  0.18728880309E+03  0.00000000000E+00 0. -1.
         -2   -1    0    0    0  501 -0.00000000000E+00 -0.00000000000E+00 -0.15777557120E+02  0.15777557120E+02  0.00000000000E+00 0.  1.
         23    2    1    2    0    0 -0.49781150638E+01 -0.10762483834E+02  0.16485455954E+03  0.18946767785E+03  0.92630245913E+02 0.  0.
         11    1    3    3    0    0  0.25939585632E+02  0.14784059108E+02  0.13801864997E+03  0.14121111233E+03  0.00000000000E+00 0. -1.
        -11    1    3    3    0    0 -0.30917700696E+02 -0.25546542943E+02  0.26835909577E+02  0.48256565517E+02  0.00000000000E+00 0.  1.
         22    1    1    2    0    0  0.49781150638E+01  0.10762483834E+02  0.66566864273E+01  0.13598682365E+02  0.00000000000E+00 0.  1.
<mgrwt>
<rscale>  0 0.55746160E+02</rscale>
<asrwt>0</asrwt>
<pdfrwt beam="1">  1        2 0.28813661E-01 0.93386161E+02</pdfrwt>
<pdfrwt beam="2">  1       -2 0.24273166E-02 0.93386161E+02</pdfrwt>
<totfact> 0.91419888E+04</totfact>
</mgrwt>
</event>
<event>
 6    1  0.1535970E-002  0.1054201E+03  0.7546771E-02  0.1353761E+00
         -2   -1    0    0    0  501 -0.00000000000E+00  0.00000000000E+00  0.50554810201E+01  0.50554810201E+01  0.00000000000E+00 0.  1.
          2   -1    0    0  501    0  0.00000000000E+00 -0.00000000000E+00 -0.10964156459E+04  0.10964156459E+04  0.00000000000E+00 0. -1.
         23    2    1    2    0    0  0.83911973323E+01  0.21206584221E+02 -0.10393214320E+04  0.10446542181E+04  0.10292358815E+03 0.  0.
         13    1    3    3    0    0  0.42069646521E+02 -0.24470802898E+02 -0.48079104845E+03  0.48324808083E+03  0.00000000000E+00 0.  1.
        -13    1    3    3    0    0 -0.33678449189E+02  0.45677387119E+02 -0.55853038354E+03  0.56140613728E+03  0.00000000000E+00 0. -1.
         22    1    1    2    0    0 -0.83911973323E+01 -0.21206584221E+02 -0.52038732907E+02  0.56816908835E+02  0.00000000000E+00 0. -1.
<mgrwt>
<rscale>  0 0.71896324E+02</rscale>
<asrwt>0</asrwt>
<pdfrwt beam="1">  1        2 0.16867940E+00 0.10542009E+03</pdfrwt>
<pdfrwt beam="2">  1       -2 0.77776597E-03 0.10542009E+03</pdfrwt>
<totfact> 0.64360279E+04</totfact>
</mgrwt>
</event>
<event>
 6    1  0.1535970E-002  0.9252088E+02  0.7546771E-02  0.1382897E+00
         -2   -1    0    0    0  501 -0.00000000000E+00  0.00000000000E+00  0.35735157642E+01  0.35735157642E+01  0.00000000000E+00 0.  1.
          2   -1    0    0  501    0  0.00000000000E+00 -0.00000000000E+00 -0.10185401426E+04  0.10185401426E+04  0.00000000000E+00 0. -1.
         23    2    1    2    0    0  0.19199439578E+02  0.80018940986E+01 -0.93193305653E+03  0.93651446102E+03  0.90152454457E+02 0.  0.
         13    1    3    3    0    0 -0.70746239506E+01 -0.36858627625E+02 -0.51235993555E+03  0.51373272457E+03  0.00000000000E+00 0. -1.
        -13    1    3    3    0    0  0.26274063529E+02  0.44860521723E+02 -0.41957312098E+03  0.42278173644E+03  0.00000000000E+00 0.  1.
         22    1    1    2    0    0 -0.19199439578E+02 -0.80018940986E+01 -0.83033570290E+02  0.85599197335E+02  0.00000000000E+00 0.  1.
<mgrwt>
<rscale>  0 0.63708410E+02</rscale>
<asrwt>0</asrwt>
<pdfrwt beam="1">  1        2 0.15669847E+00 0.92520883E+02</pdfrwt>
<pdfrwt beam="2">  1       -2 0.54977169E-03 0.92520883E+02</pdfrwt>
<totfact> 0.11450861E+05</totfact>
</mgrwt>
</event>
<event>
 6    1  0.1535970E-002  0.9202340E+02  0.7546771E-02  0.1392093E+00
         -2   -1    0    0    0  501 -0.00000000000E+00  0.00000000000E+00  0.60639406449E+01  0.60639406449E+01  0.00000000000E+00 0.  1.
          2   -1    0    0  501    0  0.00000000000E+00 -0.00000000000E+00 -0.52097193698E+03  0.52097193698E+03  0.00000000000E+00 0. -1.
         23    2    1    2    0    0 -0.18109897439E+02  0.20452724370E+01 -0.46203415745E+03  0.47110919023E+03  0.90200637155E+02 0.  0.
         11    1    3    3    0    0 -0.22286143578E+02 -0.30541140167E+02 -0.89885896986E+02  0.97513629382E+02  0.00000000000E+00 0.  1.
        -11    1    3    3    0    0  0.41762461384E+01  0.32586412604E+02 -0.37214826047E+03  0.37359556085E+03  0.00000000000E+00 0. -1.
         22    1    1    2    0    0  0.18109897439E+02 -0.20452724370E+01 -0.52873838880E+02  0.55926687391E+02  0.00000000000E+00 0.  1.
<mgrwt>
<rscale>  0 0.61389026E+02</rscale>
<asrwt>0</asrwt>
<pdfrwt beam="1">  1        2 0.80149514E-01 0.92023402E+02</pdfrwt>
<pdfrwt beam="2">  1       -2 0.93291412E-03 0.92023402E+02</pdfrwt>
<totfact> 0.12118437E+05</totfact>
</mgrwt>
</event>
<event>
 6    1  0.1535970E-002  0.9330392E+02  0.7546771E-02  0.1396779E+00
          1   -1    0    0  501    0  0.00000000000E+00  0.00000000000E+00  0.18163582263E+03  0.18163582263E+03  0.00000000000E+00 0. -1.
         -1   -1    0    0    0  501 -0.00000000000E+00 -0.00000000000E+00 -0.16524003621E+02  0.16524003621E+02  0.00000000000E+00 0.  1.
         23    2    1    2    0    0 -0.55371016438E+01 -0.15250494003E+02  0.14252905762E+03  0.17035302539E+03  0.91882446272E+02 0.  0.
         13    1    3    3    0    0  0.23146430178E+02 -0.20392184688E+01  0.13617136583E+03  0.13813962688E+03  0.00000000000E+00 0. -1.
        -13    1    3    3    0    0 -0.28683531821E+02 -0.13211275534E+02  0.63576917887E+01  0.32213398515E+02  0.00000000000E+00 0.  1.
         22    1    1    2    0    0  0.55371016438E+01  0.15250494003E+02  0.22582761387E+02  0.27806800855E+02  0.00000000000E+00 0.  1.
<mgrwt>
<rscale>  0 0.60251559E+02</rscale>
<asrwt>0</asrwt>
<pdfrwt beam="1">  1        1 0.27943971E-01 0.93303917E+02</pdfrwt>
<pdfrwt beam="2">  1       -1 0.25421545E-02 0.93303917E+02</pdfrwt>
<totfact> 0.68976282E+04</totfact>
</mgrwt>
</event>
<event>
 6    1  0.1535970E-002  0.9342870E+02  0.7546771E-02  0.1357129E+00
         -2   -1    0    0    0  501 -0.00000000000E+00  0.00000000000E+00  0.81323615414E+01  0.81323615414E+01  0.00000000000E+00 0.  1.
          2   -1    0    0  501    0  0.00000000000E+00 -0.00000000000E+00 -0.49334160883E+03  0.49334160883E+03  0.00000000000E+00 0. -1.
         23    2    1    2    0    0 -0.25309731744E+02 -0.17810062728E+02 -0.31866880736E+03  0.33208241513E+03  0.88154074207E+02 0.  0.
         13    1    3    3    0    0 -0.54086827053E+01 -0.99205399727E+01 -0.30792064935E+03  0.30812789107E+03  0.00000000000E+00 0. -1.
        -13    1    3    3    0    0 -0.19901049039E+02 -0.78895227553E+01 -0.10748158010E+02  0.23954524056E+02  0.00000000000E+00 0.  1.
         22    1    1    2    0    0  0.25309731744E+02  0.17810062728E+02 -0.16654043993E+03  0.16939155525E+03  0.00000000000E+00 0.  1.
<mgrwt>
<rscale>  0 0.70879149E+02</rscale>
<asrwt>0</asrwt>
<pdfrwt beam="1">  1        2 0.75898717E-01 0.93428698E+02</pdfrwt>
<pdfrwt beam="2">  1       -2 0.12511324E-02 0.93428698E+02</pdfrwt>
<totfact> 0.84971481E+04</totfact>
</mgrwt>
</event>
<event>
 6    1  0.1535970E-002  0.9407858E+02  0.7546771E-02  0.1399570E+00
          2   -1    0    0  501    0  0.00000000000E+00  0.00000000000E+00  0.37906216917E+03  0.37906216917E+03  0.00000000000E+00 0. -1.
         -2   -1    0    0    0  501 -0.00000000000E+00 -0.00000000000E+00 -0.97550387318E+01  0.97550387318E+01  0.00000000000E+00 0.  1.
         23    2    1    2    0    0  0.14901611765E+02  0.26824392245E+01  0.35734303095E+03  0.36951971610E+03  0.92852169074E+02 0.  0.
         13    1    3    3    0    0  0.36373333869E+02  0.27998809776E+02  0.99844746166E+02  0.10989051871E+03  0.00000000000E+00 0. -1.
        -13    1    3    3    0    0 -0.21471722105E+02 -0.25316370551E+02  0.25749828478E+03  0.25962919738E+03  0.00000000000E+00 0.  1.
         22    1    1    2    0    0 -0.14901611765E+02 -0.26824392245E+01  0.11964099485E+02  0.19297491802E+02  0.00000000000E+00 0. -1.
<mgrwt>
<rscale>  0 0.59587828E+02</rscale>
<asrwt>0</asrwt>
<pdfrwt beam="1">  1        2 0.58317246E-01 0.94078578E+02</pdfrwt>
<pdfrwt beam="2">  1       -2 0.15007755E-02 0.94078578E+02</pdfrwt>
<totfact> 0.86840508E+04</totfact>
</mgrwt>
</event>
<event>
 6    1  0.1535970E-002  0.9287066E+02  0.7546771E-02  0.1400825E+00
         -2   -1    0    0    0  501 -0.00000000000E+00  0.00000000000E+00  0.50523594778E+02  0.50523594778E+02  0.00000000000E+00 0.  1.
          2   -1    0    0  501    0  0.00000000000E+00 -0.00000000000E+00 -0.60656075800E+02  0.60656075800E+02  0.00000000000E+00 0. -1.
         23    2    1    2    0    0 -0.51645869340E+01 -0.14539850453E+02 -0.16787648248E+02  0.94375758527E+02  0.91579902023E+02 0.  0.
         11    1    3    3    0    0  0.37160545558E+02 -0.81146626908E+01  0.15173344942E+02  0.40950998687E+02  0.00000000000E+00 0.  1.
        -11    1    3    3    0    0 -0.42325132492E+02 -0.64251877624E+01 -0.31960993191E+02  0.53424759840E+02  0.00000000000E+00 0. -1.
         22    1    1    2    0    0  0.51645869340E+01  0.14539850453E+02  0.66551672265E+01  0.16803912051E+02  0.00000000000E+00 0.  1.
<mgrwt>
<rscale>  0 0.59292436E+02</rscale>
<asrwt>0</asrwt>
<pdfrwt beam="1">  1        2 0.93317039E-02 0.92870656E+02</pdfrwt>
<pdfrwt beam="2">  1       -2 0.77728608E-02 0.92870656E+02</pdfrwt>
<totfact> 0.59412526E+04</totfact>
</mgrwt>
</event>
<event>
 6    1  0.1535970E-002  0.1000489E+03  0.7546771E-02  0.1332671E+00
         -2   -1    0    0    0  501 -0.00000000000E+00  0.00000000000E+00  0.27446308729E+02  0.27446308729E+02  0.00000000000E+00 0.  1.
          2   -1    0    0  501    0  0.00000000000E+00 -0.00000000000E+00 -0.92731233807E+03  0.92731233807E+03  0.00000000000E+00 0. -1.
         23    2    1    2    0    0  0.38309994201E+02  0.23169070712E+01 -0.90966268248E+03  0.91514806580E+03  0.92394603339E+02 0.  0.
         13    1    3    3    0    0  0.68070697738E+02 -0.33705514759E+01 -0.69952004983E+03  0.70283232753E+03  0.00000000000E+00 0. -1.
        -13    1    3    3    0    0 -0.29760703537E+02  0.56874585472E+01 -0.21014263266E+03  0.21231573827E+03  0.00000000000E+00 0.  1.
         22    1    1    2    0    0 -0.38309994201E+02 -0.23169070712E+01  0.97966531424E+01  0.39610580996E+02  0.00000000000E+00 0.  1.
<mgrwt>
<rscale>  0 0.78738207E+02</rscale>
<asrwt>0</asrwt>
<pdfrwt beam="1">  1        2 0.14266341E+00 0.10004892E+03</pdfrwt>
<pdfrwt beam="2">  1       -2 0.42225097E-02 0.10004892E+03</pdfrwt>
<totfact> 0.70416611E+03</totfact>
</mgrwt>
</event>
<event>
 6    1  0.1535970E-002  0.9392735E+02  0.7546771E-02  0.1368253E+00
         -2   -1    0    0    0  501 -0.00000000000E+00  0.00000000000E+00  0.29577582245E+02  0.29577582245E+02  0.00000000000E+00 0.  1.
          2   -1    0    0  501    0  0.00000000000E+00 -0.00000000000E+00 -0.13677588266E+03  0.13677588266E+03  0.00000000000E+00 0. -1.
         23    2    1    2    0    0 -0.19881965502E+02  0.15618559536E+02 -0.10514270333E+03  0.14098700214E+03  0.90460570160E+02 0.  0.
         13    1    3    3    0    0  0.35608155379E+02  0.88569307705E+01 -0.53560423485E+02  0.64923839351E+02  0.00000000000E+00 0. -1.
        -13    1    3    3    0    0 -0.55490120881E+02  0.67616287658E+01 -0.51582279844E+02  0.76063162785E+02  0.00000000000E+00 0.  1.
         22    1    1    2    0    0  0.19881965502E+02 -0.15618559536E+02 -0.20555970892E+01  0.25366462773E+02  0.00000000000E+00 0.  1.
<mgrwt>
<rscale>  0 0.67655227E+02</rscale>
<asrwt>0</asrwt>
<pdfrwt beam="1">  1        2 0.21042443E-01 0.93927348E+02</pdfrwt>
<pdfrwt beam="2">  1       -2 0.45503974E-02 0.93927348E+02</pdfrwt>
<totfact> 0.51483519E+04</totfact>
</mgrwt>
</event>
<event>
 6    1  0.1535970E-002  0.9532336E+02  0.7546771E-02  0.1359674E+00
         -2   -1    0    0    0  501 -0.00000000000E+00  0.00000000000E+00  0.81325756698E+01  0.81325756698E+01  0.00000000000E+00 0.  1.
          2   -1    0    0  501    0  0.00000000000E+00 -0.00000000000E+00 -0.68169920728E+03  0.68169920728E+03  0.00000000000E+00 0. -1.
         23    2    1    2    0    0  0.21937321331E+02 -0.17264286616E+02 -0.63559189536E+03  0.64270024093E+03  0.91144065033E+02 0.  0.
         13    1    3    3    0    0  0.42861972508E+02 -0.58441142702E+01 -0.13989714138E+03  0.14643262111E+03  0.00000000000E+00 0.  1.
        -13    1    3    3    0    0 -0.20924651177E+02 -0.11420172346E+02 -0.49569475398E+03  0.49626761982E+03  0.00000000000E+00 0. -1.
         22    1    1    2    0    0 -0.21937321331E+02  0.17264286616E+02 -0.37974736255E+02  0.47131542020E+02  0.00000000000E+00 0.  1.
<mgrwt>
<rscale>  0 0.70123356E+02</rscale>
<asrwt>0</asrwt>
<pdfrwt beam="1">  1        2 0.10487678E+00 0.95323356E+02</pdfrwt>
<pdfrwt beam="2">  1       -2 0.12511657E-02 0.95323356E+02</pdfrwt>
<totfact> 0.59405502E+04</totfact>
</mgrwt>
</event>
<event>
 6    1  0.1535970E-002  0.9396224E+02  0.7546771E-02  0.1387012E+00
         -2   -1    0    0    0  501 -0.00000000000E+00  0.00000000000E+00  0.46272012244E+02  0.46272012244E+02  0.00000000000E+00 0.  1.
          2   -1    0    0  501    0  0.00000000000E+00 -0.00000000000E+00 -0.37117327286E+03  0.37117327286E+03  0.00000000000E+00 0. -1.
         23    2    1    2    0    0 -0.45001030484E+01 -0.18024315113E+02 -0.36305067748E+03  0.37501292869E+03  0.92107412299E+02 0.  0.
         11    1    3    3    0    0 -0.32965678410E+02  0.95116100502E+01 -0.28906347534E+03  0.29109259602E+03  0.00000000000E+00 0. -1.
        -11    1    3    3    0    0  0.28465575362E+02 -0.27535925164E+02 -0.73987202143E+02  0.83920332675E+02  0.00000000000E+00 0.  1.
         22    1    1    2    0    0  0.45001030484E+01  0.18024315113E+02  0.38149416872E+02  0.42432356409E+02  0.00000000000E+00 0.  1.
<mgrwt>
<rscale>  0 0.62655956E+02</rscale>
<asrwt>0</asrwt>
<pdfrwt beam="1">  1        2 0.57103579E-01 0.93962238E+02</pdfrwt>
<pdfrwt beam="2">  1       -2 0.71187713E-02 0.93962238E+02</pdfrwt>
<totfact> 0.90863366E+03</totfact>
</mgrwt>
</event>
<event>
 6    1  0.1535970E-002  0.9095339E+02  0.7546771E-02  0.1416525E+00
          1   -1    0    0  501    0  0.00000000000E+00  0.00000000000E+00  0.59120792327E+03  0.59120792327E+03  0.00000000000E+00 0. -1.
         -1   -1    0    0    0  501 -0.00000000000E+00 -0.00000000000E+00 -0.46908191284E+01  0.46908191284E+01  0.00000000000E+00 0.  1.
         23    2    1    2    0    0  0.16212681112E+01 -0.12748023405E+02  0.54141696713E+03  0.54900350842E+03  0.90040987083E+02 0.  0.
         13    1    3    3    0    0  0.22676681286E+02 -0.22122433871E+02  0.67910483709E+02  0.74936424735E+02  0.00000000000E+00 0.  1.
        -13    1    3    3    0    0 -0.21055413175E+02  0.93744104659E+01  0.47350648342E+03  0.47406708369E+03  0.00000000000E+00 0. -1.
         22    1    1    2    0    0 -0.16212681112E+01  0.12748023405E+02  0.45100137012E+02  0.46895233975E+02  0.00000000000E+00 0. -1.
<mgrwt>
<rscale>  0 0.55762973E+02</rscale>
<asrwt>0</asrwt>
<pdfrwt beam="1">  1        1 0.90955006E-01 0.90953394E+02</pdfrwt>
<pdfrwt beam="2">  1       -1 0.72166495E-03 0.90953394E+02</pdfrwt>
<totfact> 0.94356879E+04</totfact>
</mgrwt>
</event>
<event>
 6    1  0.1535970E-002  0.1069273E+03  0.7546771E-02  0.1301510E+00
         -2   -1    0    0    0  501 -0.00000000000E+00  0.00000000000E+00  0.13631794579E+02  0.13631794579E+02  0.00000000000E+00 0.  1.
          2   -1    0    0  501    0  0.00000000000E+00 -0.00000000000E+00 -0.11796707364E+04  0.11796707364E+04  0.00000000000E+00 0. -1.
         23    2    1    2    0    0  0.53552942840E+02  0.12558795722E+02 -0.11087049375E+04  0.11138492171E+04  0.91694050590E+02 0.  0.
         13    1    3    3    0    0  0.57200798653E+02  0.39823560423E+02 -0.96639432623E+03  0.96890445406E+03  0.00000000000E+00 0. -1.
        -13    1    3    3    0    0 -0.36478558133E+01 -0.27264764701E+02 -0.14231061132E+03  0.14494476307E+03  0.00000000000E+00 0.  1.
         22    1    1    2    0    0 -0.53552942840E+02 -0.12558795722E+02 -0.57334004287E+02  0.79453313867E+02  0.00000000000E+00 0.  1.
<mgrwt>
<rscale>  0 0.90556268E+02</rscale>
<asrwt>0</asrwt>
<pdfrwt beam="1">  1        2 0.18148779E+00 0.10692726E+03</pdfrwt>
<pdfrwt beam="2">  1       -2 0.20971994E-02 0.10692726E+03</pdfrwt>
<totfact> 0.14036649E+04</totfact>
</mgrwt>
</event>
<event>
 6    1  0.1535970E-002  0.1013037E+03  0.7546771E-02  0.1323529E+00
          4   -1    0    0  501    0  0.00000000000E+00  0.00000000000E+00  0.97096025981E+01  0.97096025981E+01  0.00000000000E+00 0. -1.
         -4   -1    0    0    0  501 -0.00000000000E+00 -0.00000000000E+00 -0.54261738063E+03  0.54261738063E+03  0.00000000000E+00 0.  1.
         23    2    1    2    0    0 -0.26951714724E+02 -0.34072615853E+02 -0.35302241629E+03  0.36727001512E+03  0.91515569838E+02 0.  0.
         11    1    3    3    0    0 -0.46822035049E+02 -0.35867221288E+02 -0.33571866654E+03  0.34086035791E+03  0.00000000000E+00 0.  1.
        -11    1    3    3    0    0  0.19870320325E+02  0.17946054347E+01 -0.17303749748E+02  0.26409657208E+02  0.00000000000E+00 0. -1.
         22    1    1    2    0    0  0.26951714724E+02  0.34072615853E+02 -0.17988536175E+03  0.18505696812E+03  0.00000000000E+00 0. -1.
<mgrwt>
<rscale>  0 0.81978537E+02</rscale>
<asrwt>0</asrwt>
<pdfrwt beam="1">  1        4 0.14937846E-02 0.10130369E+03</pdfrwt>
<pdfrwt beam="2">  1       -4 0.83479619E-01 0.10130369E+03</pdfrwt>
<totfact> 0.31475002E+03</totfact>
</mgrwt>
</event>
<event>
 6    1  0.1535970E-002  0.9218624E+02  0.7546771E-02  0.1429233E+00
          2   -1    0    0  501    0  0.00000000000E+00  0.00000000000E+00  0.42628098585E+03  0.42628098585E+03  0.00000000000E+00 0. -1.
         -2   -1    0    0    0  501 -0.00000000000E+00 -0.00000000000E+00 -0.76097511503E+01  0.76097511503E+01  0.00000000000E+00 0.  1.
         23    2    1    2    0    0  0.23014902815E+01 -0.98947313404E+01  0.41086239940E+03  0.42107744412E+03  0.91624779050E+02 0.  0.
         11    1    3    3    0    0  0.30933034633E+02 -0.34479039918E+02  0.13681241693E+03  0.14444131767E+03  0.00000000000E+00 0. -1.
        -11    1    3    3    0    0 -0.28631544351E+02  0.24584308578E+02  0.27404998248E+03  0.27663612645E+03  0.00000000000E+00 0.  1.
         22    1    1    2    0    0 -0.23014902815E+01  0.98947313404E+01  0.78088352985E+01  0.12813292884E+02  0.00000000000E+00 0.  1.
<mgrwt>
<rscale>  0 0.53114229E+02</rscale>
<asrwt>0</asrwt>
<pdfrwt beam="1">  1        2 0.65581672E-01 0.92186239E+02</pdfrwt>
<pdfrwt beam="2">  1       -2 0.11707313E-02 0.92186239E+02</pdfrwt>
<totfact> 0.10895917E+05</totfact>
</mgrwt>
</event>
<event>
 6    1  0.1535970E-002  0.9279914E+02  0.7546771E-02  0.1416440E+00
          2   -1    0    0  501    0  0.00000000000E+00  0.00000000000E+00  0.13901871680E+04  0.13901871680E+04  0.00000000000E+00 0. -1.
         -2   -1    0    0    0  501 -0.00000000000E+00 -0.00000000000E+00 -0.24412897440E+01  0.24412897440E+01  0.00000000000E+00 0.  1.
         23    2    1    2    0    0  0.75385952808E+01  0.94837778666E+01  0.13450384379E+04  0.13482359141E+04  0.92004936949E+02 0.  0.
         11    1    3    3    0    0  0.36806042166E+01  0.29138112494E+02  0.12763227522E+04  0.12766606222E+04  0.00000000000E+00 0. -1.
        -11    1    3    3    0    0  0.38579910643E+01 -0.19654334628E+02  0.68715685672E+02  0.71575291981E+02  0.00000000000E+00 0.  1.
         22    1    1    2    0    0 -0.75385952808E+01 -0.94837778666E+01  0.42707440370E+02  0.44392543567E+02  0.00000000000E+00 0.  1.
<mgrwt>
<rscale>  0 0.55781289E+02</rscale>
<asrwt>0</asrwt>
<pdfrwt beam="1">  1        2 0.21387432E+00 0.92799143E+02</pdfrwt>
<pdfrwt beam="2">  1       -2 0.37558415E-03 0.92799143E+02</pdfrwt>
<totfact> 0.12246356E+05</totfact>
</mgrwt>
</event>
<event>
 6    1  0.1535970E-002  0.9892915E+02  0.7546771E-02  0.1336075E+00
          2   -1    0    0  501    0  0.00000000000E+00  0.00000000000E+00  0.77810044270E+02  0.77810044270E+02  0.00000000000E+00 0. -1.
         -2   -1    0    0    0  501 -0.00000000000E+00 -0.00000000000E+00 -0.23040209822E+03  0.23040209822E+03  0.00000000000E+00 0.  1.
         23    2    1    2    0    0 -0.22855554689E+02 -0.29610366024E+02  0.43870714373E+02  0.10822021892E+03  0.91585075462E+02 0.  0.
         13    1    3    3    0    0 -0.12700641548E+02 -0.56262602972E+02  0.52941048078E+02  0.78291387524E+02  0.00000000000E+00 0. -1.
        -13    1    3    3    0    0 -0.10154913140E+02  0.26652236948E+02 -0.90703337051E+01  0.29928831396E+02  0.00000000000E+00 0.  1.
         22    1    1    2    0    0  0.22855554689E+02  0.29610366024E+02 -0.19646276832E+03  0.19999192357E+03  0.00000000000E+00 0.  1.
<mgrwt>
<rscale>  0 0.77575796E+02</rscale>
<asrwt>0</asrwt>
<pdfrwt beam="1">  1        2 0.11970776E-01 0.98929147E+02</pdfrwt>
<pdfrwt beam="2">  1       -2 0.35446477E-01 0.98929147E+02</pdfrwt>
<totfact> 0.36034149E+03</totfact>
</mgrwt>
</event>
<event>
 6    1  0.1535970E-002  0.9154599E+02  0.7546771E-02  0.1420465E+00
          2   -1    0    0  501    0  0.00000000000E+00  0.00000000000E+00  0.10858527087E+03  0.10858527087E+03  0.00000000000E+00 0. -1.
         -2   -1    0    0    0  501 -0.00000000000E+00 -0.00000000000E+00 -0.27771788670E+02  0.27771788670E+02  0.00000000000E+00 0.  1.
         23    2    1    2    0    0  0.11576968299E+02 -0.25762807852E+01  0.83818906693E+02  0.12412202811E+03  0.90774475075E+02 0.  0.
         13    1    3    3    0    0  0.50439801958E+02 -0.51956555094E+01  0.59616349768E+02  0.78264152825E+02  0.00000000000E+00 0.  1.
        -13    1    3    3    0    0 -0.38862833659E+02  0.26193747242E+01  0.24202556924E+02  0.45857875285E+02  0.00000000000E+00 0. -1.
         22    1    1    2    0    0 -0.11576968299E+02  0.25762807852E+01 -0.30054244946E+01  0.12235031429E+02  0.00000000000E+00 0. -1.
<mgrwt>
<rscale>  0 0.54922734E+02</rscale>
<asrwt>0</asrwt>
<pdfrwt beam="1">  1        2 0.16705426E-01 0.91545993E+02</pdfrwt>
<pdfrwt beam="2">  1       -2 0.42725829E-02 0.91545993E+02</pdfrwt>
<totfact> 0.73020919E+04</totfact>
</mgrwt>
</event>
<event>
 6    1  0.1535970E-002  0.9242493E+02  0.7546771E-02  0.1380888E+00
         -1   -1    0    0    0  501 -0.00000000000E+00  0.00000000000E+00  0.68549369810E+02  0.68549369810E+02  0.00000000000E+00 0.  1.
          1   -1    0    0  501    0  0.00000000000E+00 -0.00000000000E+00 -0.10798836844E+03  0.10798836844E+03  0.00000000000E+00 0. -1.
         23    2    1    2    0    0 -0.18785754136E+02  0.10575633838E+02 -0.85357498556E+02  0.12581045540E+03  0.89875578094E+02 0.  0.
         11    1    3    3    0    0 -0.10450248151E+02  0.35798069173E+02 -0.93138886011E+00  0.37303846024E+02  0.00000000000E+00 0. -1.
        -11    1    3    3    0    0 -0.83355059852E+01 -0.25222435335E+02 -0.84426109695E+02  0.88506609372E+02  0.00000000000E+00 0.  1.
         22    1    1    2    0    0  0.18785754136E+02 -0.10575633838E+02  0.45918499930E+02  0.50727282850E+02  0.00000000000E+00 0.  1.
<mgrwt>
<rscale>  0 0.64230916E+02</rscale>
<asrwt>0</asrwt>
<pdfrwt beam="1">  1        1 0.16613595E-01 0.92424932E+02</pdfrwt>
<pdfrwt beam="2">  1       -1 0.10546057E-01 0.92424932E+02</pdfrwt>
<totfact> 0.16332333E+04</totfact>
</mgrwt>
</event>
<event>
 6    1  0.1535970E-002  0.8866949E+02  0.7546771E-02  0.1436616E+00
          2   -1    0    0  501    0  0.00000000000E+00  0.00000000000E+00  0.93408171357E+03  0.93408171357E+03  0.00000000000E+00 0. -1.
         -2   -1    0    0    0  501 -0.00000000000E+00 -0.00000000000E+00 -0.35877143092E+01  0.35877143092E+01  0.00000000000E+00 0.  1.
         23    2    1    2    0    0  0.37249872460E+00  0.10205335179E+02  0.91385421415E+03  0.91814585060E+03  0.88079456316E+02 0.  0.
         11    1    3    3    0    0  0.32804788337E+02  0.10573843715E+02  0.16361915019E+03  0.16721000753E+03  0.00000000000E+00 0.  1.
        -11    1    3    3    0    0 -0.32432289612E+02 -0.36850853618E+00  0.75023506396E+03  0.75093584307E+03  0.00000000000E+00 0. -1.
         22    1    1    2    0    0 -0.37249872460E+00 -0.10205335179E+02  0.16639785111E+02  0.19523577284E+02  0.00000000000E+00 0.  1.
<mgrwt>
<rscale>  0 0.51654689E+02</rscale>
<asrwt>0</asrwt>
<pdfrwt beam="1">  1        2 0.14370469E+00 0.88669489E+02</pdfrwt>
<pdfrwt beam="2">  1       -2 0.55195679E-03 0.88669489E+02</pdfrwt>
<totfact> 0.12706693E+05</totfact>
</mgrwt>
</event>
<event>
 6    1  0.1535970E-002  0.1070269E+03  0.7546771E-02  0.1392886E+00
         -2   -1    0    0    0  501 -0.00000000000E+00  0.00000000000E+00  0.15055837500E+02  0.15055837500E+02  0.00000000000E+00 0.  1.
          2   -1    0    0  501    0  0.00000000000E+00 -0.00000000000E+00 -0.25127216785E+03  0.25127216785E+03  0.00000000000E+00 0. -1.
         23    2    1    2    0    0  0.23890050820E+01  0.11186261357E+02 -0.22907292671E+03  0.25284216077E+03  0.10641387467E+03 0.  0.
         11    1    3    3    0    0  0.49749321438E+02  0.25796884148E+02 -0.10085852958E+03  0.11538161554E+03  0.00000000000E+00 0. -1.
        -11    1    3    3    0    0 -0.47360316356E+02 -0.14610622791E+02 -0.12821439714E+03  0.13746054524E+03  0.00000000000E+00 0.  1.
         22    1    1    2    0    0 -0.23890050820E+01 -0.11186261357E+02 -0.71434036361E+01  0.13485844576E+02  0.00000000000E+00 0.  1.
<mgrwt>
<rscale>  0 0.61194462E+02</rscale>
<asrwt>0</asrwt>
<pdfrwt beam="1">  1        2 0.38657255E-01 0.10702688E+03</pdfrwt>
<pdfrwt beam="2">  1       -2 0.23162828E-02 0.10702688E+03</pdfrwt>
<totfact> 0.72953774E+04</totfact>
</mgrwt>
</event>
<event>
 6    1  0.1535970E-002  0.9524740E+02  0.7546771E-02  0.1378634E+00
          2   -1    0    0  501    0  0.00000000000E+00  0.00000000000E+00  0.22642823512E+02  0.22642823512E+02  0.00000000000E+00 0. -1.
         -2   -1    0    0    0  501 -0.00000000000E+00 -0.00000000000E+00 -0.22708009620E+03  0.22708009620E+03  0.00000000000E+00 0.  1.
         23    2    1    2    0    0 -0.19085437099E+02  0.73053726484E+01 -0.82271553522E+02  0.12585974795E+03  0.93029270969E+02 0.  0.
         11    1    3    3    0    0  0.29925840002E+02  0.34942531448E+01 -0.12737638068E+00  0.30129419669E+02  0.00000000000E+00 0. -1.
        -11    1    3    3    0    0 -0.49011277102E+02  0.38111195035E+01 -0.82144177141E+02  0.95730328283E+02  0.00000000000E+00 0.  1.
         22    1    1    2    0    0  0.19085437099E+02 -0.73053726484E+01 -0.12216571916E+03  0.12386317175E+03  0.00000000000E+00 0.  1.
<mgrwt>
<rscale>  0 0.64824298E+02</rscale>
<asrwt>0</asrwt>
<pdfrwt beam="1">  1        2 0.34835112E-02 0.95247402E+02</pdfrwt>
<pdfrwt beam="2">  1       -2 0.34935401E-01 0.95247402E+02</pdfrwt>
<totfact> 0.17532993E+04</totfact>
</mgrwt>
</event>
<event>
 6    1  0.1535970E-002  0.9297893E+02  0.7546771E-02  0.1428035E+00
         -1   -1    0    0    0  501 -0.00000000000E+00  0.00000000000E+00  0.47843506485E+01  0.47843506485E+01  0.00000000000E+00 0.  1.
          1   -1    0    0  501    0  0.00000000000E+00 -0.00000000000E+00 -0.85627907405E+03  0.85627907405E+03  0.00000000000E+00 0. -1.
         23    2    1    2    0    0  0.10007855367E+02  0.12301191365E+01 -0.84230353907E+03  0.84741980965E+03  0.92430576665E+02 0.  0.
         13    1    3    3    0    0  0.25066975705E+01 -0.39539900202E+02 -0.20650342171E+03  0.21026970876E+03  0.00000000000E+00 0.  1.
        -13    1    3    3    0    0  0.75011577962E+01  0.40770019338E+02 -0.63580011735E+03  0.63715010089E+03  0.00000000000E+00 0. -1.
         22    1    1    2    0    0 -0.10007855367E+02 -0.12301191365E+01 -0.91911843404E+01  0.13643615053E+02  0.00000000000E+00 0.  1.
<mgrwt>
<rscale>  0 0.53356547E+02</rscale>
<asrwt>0</asrwt>
<pdfrwt beam="1">  1        1 0.13173537E+00 0.92978932E+02</pdfrwt>
<pdfrwt beam="2">  1       -1 0.73605324E-03 0.92978932E+02</pdfrwt>
<totfact> 0.54368485E+04</totfact>
</mgrwt>
</event>
<event>
 6    1  0.1535970E-002  0.9790120E+02  0.7546771E-02  0.1339340E+00
          2   -1    0    0  501    0  0.00000000000E+00  0.00000000000E+00  0.20470826090E+03  0.20470826090E+03  0.00000000000E+00 0. -1.
         -2   -1    0    0    0  501 -0.00000000000E+00 -0.00000000000E+00 -0.44672452778E+02  0.44672452778E+02  0.00000000000E+00 0.  1.
         23    2    1    2    0    0  0.64572086994E+01 -0.35889585912E+02  0.18210751288E+03  0.20675539172E+03  0.90856413310E+02 0.  0.
         11    1    3    3    0    0  0.17083228760E+02 -0.14294212415E+02  0.18131099977E+03  0.18267413570E+03  0.00000000000E+00 0. -1.
        -11    1    3    3    0    0 -0.10626020061E+02 -0.21595373497E+02  0.79651310467E+00  0.24081256029E+02  0.00000000000E+00 0.  1.
         22    1    1    2    0    0 -0.64572086994E+01  0.35889585912E+02 -0.22071704753E+02  0.42625321956E+02  0.00000000000E+00 0.  1.
<mgrwt>
<rscale>  0 0.76482592E+02</rscale>
<asrwt>0</asrwt>
<pdfrwt beam="1">  1        2 0.31493578E-01 0.97901204E+02</pdfrwt>
<pdfrwt beam="2">  1       -2 0.68726852E-02 0.97901204E+02</pdfrwt>
<totfact> 0.17994176E+04</totfact>
</mgrwt>
</event>
<event>
 6    1  0.1535970E-002  0.9189823E+02  0.7546771E-02  0.1429142E+00
          2   -1    0    0  501    0  0.00000000000E+00  0.00000000000E+00  0.22337518516E+02  0.22337518516E+02  0.00000000000E+00 0. -1.
         -2   -1    0    0    0  501 -0.00000000000E+00 -0.00000000000E+00 -0.11758465999E+03  0.11758465999E+03  0.00000000000E+00 0.  1.
         23    2    1    2    0    0 -0.53614163063E+01 -0.87581382350E+01 -0.82021165198E+02  0.12317774007E+03  0.91322693444E+02 0.  0.
         11    1    3    3    0    0  0.33443488803E+02  0.41840588450E+01 -0.74247584064E+02  0.81539420105E+02  0.00000000000E+00 0.  1.
        -11    1    3    3    0    0 -0.38804905109E+02 -0.12942197080E+02 -0.77735811343E+01  0.41638319964E+02  0.00000000000E+00 0. -1.
         22    1    1    2    0    0  0.53614163063E+01  0.87581382350E+01 -0.13225976279E+02  0.16744438441E+02  0.00000000000E+00 0. -1.
<mgrwt>
<rscale>  0 0.53132598E+02</rscale>
<asrwt>0</asrwt>
<pdfrwt beam="1">  1        2 0.34365413E-02 0.91898227E+02</pdfrwt>
<pdfrwt beam="2">  1       -2 0.18089948E-01 0.91898227E+02</pdfrwt>
<totfact> 0.55707624E+04</totfact>
</mgrwt>
</event>
<event>
 6    1  0.1535970E-002  0.9622962E+02  0.7546771E-02  0.1355047E+00
          2   -1    0    0  501    0  0.00000000000E+00  0.00000000000E+00  0.12218732114E+03  0.12218732114E+03  0.00000000000E+00 0.  1.
         -2   -1    0    0    0  501 -0.00000000000E+00 -0.00000000000E+00 -0.34318250605E+02  0.34318250605E+02  0.00000000000E+00 0. -1.
         23    2    1    2    0    0  0.17389240139E+02 -0.23629013881E+02  0.82344226156E+02  0.12665193085E+03  0.91648371708E+02 0.  0.
         13    1    3    3    0    0  0.21231233336E+02 -0.54207307081E+02  0.28987740620E+02  0.65034502506E+02  0.00000000000E+00 0. -1.
        -13    1    3    3    0    0 -0.38419931962E+01  0.30578293200E+02  0.53356485536E+02  0.61617428342E+02  0.00000000000E+00 0.  1.
         22    1    1    2    0    0 -0.17389240139E+02  0.23629013881E+02  0.55248443828E+01  0.29853640901E+02  0.00000000000E+00 0.  1.
<mgrwt>
<rscale>  0 0.71505437E+02</rscale>
<asrwt>0</asrwt>
<pdfrwt beam="1">  1        2 0.18798049E-01 0.96229621E+02</pdfrwt>
<pdfrwt beam="2">  1       -2 0.52797309E-02 0.96229621E+02</pdfrwt>
<totfact> 0.46981508E+04</totfact>
</mgrwt>
</event>
<event>
 6    1  0.1535970E-002  0.9611206E+02  0.7546771E-02  0.1359633E+00
          2   -1    0    0  501    0  0.00000000000E+00  0.00000000000E+00  0.45671659074E+02  0.45671659074E+02  0.00000000000E+00 0. -1.
         -2   -1    0    0    0  501 -0.00000000000E+00 -0.00000000000E+00 -0.21043141429E+03  0.21043141429E+03  0.00000000000E+00 0.  1.
         23    2    1    2    0    0 -0.27125878242E+02  0.26331024100E+01 -0.73953660172E+01  0.96396162158E+02  0.92167142419E+02 0.  0.
         13    1    3    3    0    0  0.92139092273E-01 -0.13485748195E+02  0.38421789351E+02  0.40719869731E+02  0.00000000000E+00 0. -1.
        -13    1    3    3    0    0 -0.27218017334E+02  0.16118850605E+02 -0.45817155368E+02  0.55676292427E+02  0.00000000000E+00 0.  1.
         22    1    1    2    0    0  0.27125878242E+02 -0.26331024100E+01 -0.15736438920E+03  0.15970691121E+03  0.00000000000E+00 0.  1.
<mgrwt>
<rscale>  0 0.70135597E+02</rscale>
<asrwt>0</asrwt>
<pdfrwt beam="1">  1        2 0.70264090E-02 0.96112063E+02</pdfrwt>
<pdfrwt beam="2">  1       -2 0.32374064E-01 0.96112063E+02</pdfrwt>
<totfact> 0.81464280E+03</totfact>
</mgrwt>
</event>
<event>
 6    1  0.1535970E-002  0.8923483E+02  0.7546771E-02  0.1422627E+00
         -1   -1    0    0    0  501 -0.00000000000E+00  0.00000000000E+00  0.77205215671E+02  0.77205215671E+02  0.00000000000E+00 0.  1.
          1   -1    0    0  501    0  0.00000000000E+00 -0.00000000000E+00 -0.37008687959E+02  0.37008687959E+02  0.00000000000E+00 0. -1.
         23    2    1    2    0    0 -0.11937615455E+01  0.12330208403E+02  0.21504267431E+02  0.91789370183E+02  0.88370786208E+02 0.  0.
         13    1    3    3    0    0  0.13191797603E+02 -0.59884965809E+01 -0.31072706513E+02  0.34284088223E+02  0.00000000000E+00 0. -1.
        -13    1    3    3    0    0 -0.14385559148E+02  0.18318704984E+02  0.52576973943E+02  0.57505281960E+02  0.00000000000E+00 0.  1.
         22    1    1    2    0    0  0.11937615455E+01 -0.12330208403E+02  0.18692260282E+02  0.22424533447E+02  0.00000000000E+00 0.  1.
<mgrwt>
<rscale>  0 0.54469061E+02</rscale>
<asrwt>0</asrwt>
<pdfrwt beam="1">  1        1 0.56936443E-02 0.89234830E+02</pdfrwt>
<pdfrwt beam="2">  1       -1 0.11877726E-01 0.89234830E+02</pdfrwt>
<totfact> 0.55202034E+04</totfact>
</mgrwt>
</event>
<event>
 6    1  0.1535970E-002  0.9425115E+02  0.7546771E-02  0.1412864E+00
          2   -1    0    0  501    0  0.00000000000E+00  0.00000000000E+00  0.42322375174E+03  0.42322375174E+03  0.00000000000E+00 0. -1.
         -2   -1    0    0    0  501 -0.00000000000E+00 -0.00000000000E+00 -0.72316856312E+01  0.72316856312E+01  0.00000000000E+00 0.  1.
         23    2    1    2    0    0 -0.11610141059E+02 -0.38206563929E+01  0.39567142023E+03  0.40674211960E+03  0.93455263528E+02 0.  0.
         13    1    3    3    0    0  0.19766775009E+02 -0.35534597176E+02  0.10379145679E+03  0.11147241585E+03  0.00000000000E+00 0.  1.
        -13    1    3    3    0    0 -0.31376916068E+02  0.31713940783E+02  0.29187996344E+03  0.29526970376E+03  0.00000000000E+00 0. -1.
         22    1    1    2    0    0  0.11610141059E+02  0.38206563929E+01  0.20320645879E+02  0.23713317770E+02  0.00000000000E+00 0. -1.
<mgrwt>
<rscale>  0 0.56559582E+02</rscale>
<asrwt>0</asrwt>
<pdfrwt beam="1">  1        2 0.65111327E-01 0.94251149E+02</pdfrwt>
<pdfrwt beam="2">  1       -2 0.11125673E-02 0.94251149E+02</pdfrwt>
<totfact> 0.11841754E+05</totfact>
</mgrwt>
</event>
<event>
 6    1  0.1535970E-002  0.8978486E+02  0.7546771E-02  0.1434101E+00
          1   -1    0    0  501    0  0.00000000000E+00  0.00000000000E+00  0.54368816584E+03  0.54368816584E+03  0.00000000000E+00 0. -1.
         -1   -1    0    0    0  501 -0.00000000000E+00 -0.00000000000E+00 -0.55883645130E+01  0.55883645130E+01  0.00000000000E+00 0.  1.
         23    2    1    2    0    0 -0.63370458636E+01 -0.80123780928E+01  0.52521213170E+03  0.53283121548E+03  0.89201819199E+02 0.  0.
         13    1    3    3    0    0  0.24717493577E+00  0.31373966620E+02  0.81577166892E+02  0.87402637460E+02  0.00000000000E+00 0.  1.
        -13    1    3    3    0    0 -0.65842207994E+01 -0.39386344712E+02  0.44363496481E+03  0.44542857802E+03  0.00000000000E+00 0. -1.
         22    1    1    2    0    0  0.63370458636E+01  0.80123780928E+01  0.12887669628E+02  0.16445314877E+02  0.00000000000E+00 0. -1.
<mgrwt>
<rscale>  0 0.52145543E+02</rscale>
<asrwt>0</asrwt>
<pdfrwt beam="1">  1        1 0.83644291E-01 0.89784859E+02</pdfrwt>
<pdfrwt beam="2">  1       -1 0.85974882E-03 0.89784859E+02</pdfrwt>
<totfact> 0.82246387E+04</totfact>
</mgrwt>
</event>
<event>
 6    1  0.1535970E-002  0.9279793E+02  0.7546771E-02  0.1420398E+00
          3   -1    0    0  501    0  0.00000000000E+00  0.00000000000E+00  0.36062351105E+02  0.36062351105E+02  0.00000000000E+00 0. -1.
         -3   -1    0    0    0  501 -0.00000000000E+00 -0.00000000000E+00 -0.75998166502E+02  0.75998166502E+02  0.00000000000E+00 0.  1.
         23    2    1    2    0    0 -0.10924231093E+02 -0.32531639021E+01 -0.31953983129E+02  0.98145362319E+02  0.92095239869E+02 0.  0.
         11    1    3    3    0    0 -0.82449410456E+01 -0.47426775983E+02 -0.21218479192E+02  0.52607052685E+02  0.00000000000E+00 0. -1.
        -11    1    3    3    0    0 -0.26792900478E+01  0.44173612081E+02 -0.10735503938E+02  0.45538309633E+02  0.00000000000E+00 0.  1.
         22    1    1    2    0    0  0.10924231093E+02  0.32531639021E+01 -0.79818322672E+01  0.13915155288E+02  0.00000000000E+00 0.  1.
<mgrwt>
<rscale>  0 0.54936881E+02</rscale>
<asrwt>0</asrwt>
<pdfrwt beam="1">  1        3 0.55480540E-02 0.92797926E+02</pdfrwt>
<pdfrwt beam="2">  1       -3 0.11692026E-01 0.92797926E+02</pdfrwt>
<totfact> 0.22430423E+04</totfact>
</mgrwt>
</event>
<event>
 6    1  0.1535970E-002  0.9077377E+02  0.7546771E-02  0.1413493E+00
          1   -1    0    0  501    0  0.00000000000E+00  0.00000000000E+00  0.36430215742E+02  0.36430215742E+02  0.00000000000E+00 0. -1.
         -1   -1    0    0    0  501 -0.00000000000E+00 -0.00000000000E+00 -0.92394082494E+02  0.92394082494E+02  0.00000000000E+00 0.  1.
         23    2    1    2    0    0  0.11052522631E+02 -0.78366821937E+01 -0.23678551299E+02  0.93811251551E+02  0.89756923307E+02 0.  0.
         13    1    3    3    0    0  0.43893303439E+02  0.18665946115E+02 -0.19036610779E+02  0.51355936182E+02  0.00000000000E+00 0.  1.
        -13    1    3    3    0    0 -0.32840780808E+02 -0.26502628308E+02 -0.46419405198E+01  0.42455315369E+02  0.00000000000E+00 0. -1.
         22    1    1    2    0    0 -0.11052522631E+02  0.78366821937E+01 -0.32285315453E+02  0.35013046686E+02  0.00000000000E+00 0.  1.
<mgrwt>
<rscale>  0 0.56421683E+02</rscale>
<asrwt>0</asrwt>
<pdfrwt beam="1">  1        1 0.56046487E-02 0.90773769E+02</pdfrwt>
<pdfrwt beam="2">  1       -1 0.14214474E-01 0.90773769E+02</pdfrwt>
<totfact> 0.42912009E+04</totfact>
</mgrwt>
</event>
<event>
 6    1  0.1535970E-002  0.9463191E+02  0.7546771E-02  0.1377521E+00
          3   -1    0    0  501    0  0.00000000000E+00  0.00000000000E+00  0.89735233690E+01  0.89735233690E+01  0.00000000000E+00 0. -1.
         -3   -1    0    0    0  501 -0.00000000000E+00 -0.00000000000E+00 -0.37661430390E+03  0.37661430390E+03  0.00000000000E+00 0.  1.
         23    2    1    2    0    0  0.21773600955E+00 -0.21218741372E+02 -0.31210774338E+03  0.32613868421E+03  0.92222098605E+02 0.  0.
         11    1    3    3    0    0 -0.30615339090E+02 -0.28525265527E+01 -0.34470417650E+02  0.46191401670E+02  0.00000000000E+00 0. -1.
        -11    1    3    3    0    0  0.30833075100E+02 -0.18366214819E+02 -0.27763732573E+03  0.27994728254E+03  0.00000000000E+00 0.  1.
         22    1    1    2    0    0 -0.21773600955E+00  0.21218741372E+02 -0.55533037159E+02  0.59449143059E+02  0.00000000000E+00 0.  1.
<mgrwt>
<rscale>  0 0.65119914E+02</rscale>
<asrwt>0</asrwt>
<pdfrwt beam="1">  1        3 0.13805424E-02 0.94631907E+02</pdfrwt>
<pdfrwt beam="2">  1       -3 0.57940648E-01 0.94631907E+02</pdfrwt>
<totfact> 0.10373840E+04</totfact>
</mgrwt>
</event>
<event>
 6    1  0.1535970E-002  0.9229664E+02  0.7546771E-02  0.1368323E+00
         -2   -1    0    0    0  501 -0.00000000000E+00  0.00000000000E+00  0.74337692249E+02  0.74337692249E+02  0.00000000000E+00 0.  1.
          2   -1    0    0  501    0  0.00000000000E+00 -0.00000000000E+00 -0.50840253885E+02  0.50840253885E+02  0.00000000000E+00 0. -1.
         23    2    1    2    0    0  0.26428558922E+02  0.31522690945E+01  0.43663865392E+01  0.92399863960E+02  0.88375698024E+02 0.  0.
         13    1    3    3    0    0 -0.22320793312E+02 -0.26122155594E+02  0.84699223715E+01  0.35388195940E+02  0.00000000000E+00 0. -1.
        -13    1    3    3    0    0  0.48749352234E+02  0.29274424688E+02 -0.41035358323E+01  0.57011668020E+02  0.00000000000E+00 0.  1.
         22    1    1    2    0    0 -0.26428558922E+02 -0.31522690945E+01  0.19131051825E+02  0.32778082175E+02  0.00000000000E+00 0. -1.
<mgrwt>
<rscale>  0 0.67635492E+02</rscale>
<asrwt>0</asrwt>
<pdfrwt beam="1">  1        2 0.78215775E-02 0.92296639E+02</pdfrwt>
<pdfrwt beam="2">  1       -2 0.11436568E-01 0.92296639E+02</pdfrwt>
<totfact> 0.40572024E+04</totfact>
</mgrwt>
</event>
<event>
 6    1  0.1535970E-002  0.1280976E+03  0.7546771E-02  0.1247718E+00
          2   -1    0    0  501    0  0.00000000000E+00  0.00000000000E+00  0.18385580905E+03  0.18385580905E+03  0.00000000000E+00 0. -1.
         -2   -1    0    0    0  501 -0.00000000000E+00 -0.00000000000E+00 -0.65769871987E+02  0.65769871987E+02  0.00000000000E+00 0.  1.
         23    2    1    2    0    0  0.27933474171E+02  0.85438857761E+02  0.85508363006E+02  0.15401513912E+03  0.91262837661E+02 0.  0.
         13    1    3    3    0    0  0.57852579266E+02  0.35139122431E+02  0.58892826926E+02  0.89722036960E+02  0.00000000000E+00 0. -1.
        -13    1    3    3    0    0 -0.29919105095E+02  0.50299735330E+02  0.26615536080E+02  0.64293102156E+02  0.00000000000E+00 0.  1.
         22    1    1    2    0    0 -0.27933474171E+02 -0.85438857761E+02  0.32577574054E+02  0.95610541919E+02  0.00000000000E+00 0.  1.
<mgrwt>
<rscale>  0 0.11724182E+03</rscale>
<asrwt>0</asrwt>
<pdfrwt beam="1">  1        2 0.28285509E-01 0.12809755E+03</pdfrwt>
<pdfrwt beam="2">  1       -2 0.10118442E-01 0.12809755E+03</pdfrwt>
<totfact> 0.11407238E+04</totfact>
</mgrwt>
</event>
<event>
 6    1  0.1535970E-002  0.9338958E+02  0.7546771E-02  0.1385597E+00
         -1   -1    0    0    0  501 -0.00000000000E+00  0.00000000000E+00  0.90068693637E+01  0.90068693637E+01  0.00000000000E+00 0.  1.
          1   -1    0    0  501    0  0.00000000000E+00 -0.00000000000E+00 -0.57635626733E+03  0.57635626733E+03  0.00000000000E+00 0. -1.
         23    2    1    2    0    0  0.36820040077E+01 -0.19005680556E+02 -0.55407454059E+03  0.56188985645E+03  0.91361048617E+02 0.  0.
         13    1    3    3    0    0  0.18437137851E+02  0.25808240668E+02 -0.38652678313E+03  0.38782592411E+03  0.00000000000E+00 0.  1.
        -13    1    3    3    0    0 -0.14755133844E+02 -0.44813921224E+02 -0.16754775746E+03  0.17406393234E+03  0.00000000000E+00 0. -1.
         22    1    1    2    0    0 -0.36820040077E+01  0.19005680556E+02 -0.13274857371E+02  0.23473280238E+02  0.00000000000E+00 0.  1.
<mgrwt>
<rscale>  0 0.63015135E+02</rscale>
<asrwt>0</asrwt>
<pdfrwt beam="1">  1        1 0.88670239E-01 0.93389583E+02</pdfrwt>
<pdfrwt beam="2">  1       -1 0.13856715E-02 0.93389583E+02</pdfrwt>
<totfact> 0.39005180E+04</totfact>
</mgrwt>
</event>
<event>
 6    1  0.1535970E-002  0.8499685E+02  0.7546771E-02  0.1443864E+00
         -2   -1    0    0    0  501 -0.00000000000E+00  0.00000000000E+00  0.29292532910E+01  0.29292532910E+01  0.00000000000E+00 0. -1.
          2   -1    0    0  501    0  0.00000000000E+00 -0.00000000000E+00 -0.13222141746E+04  0.13222141746E+04  0.00000000000E+00 0.  1.
         23    2    1    2    0    0  0.17704514431E+01 -0.10252292984E+02 -0.13033139228E+04  0.13060825569E+04  0.84357690944E+02 0.  0.
         13    1    3    3    0    0  0.57460916009E+01  0.28831926838E+02 -0.97247385439E+03  0.97291813378E+03  0.00000000000E+00 0.  1.
        -13    1    3    3    0    0 -0.39756401578E+01 -0.39084219822E+02 -0.33084006846E+03  0.33316442315E+03  0.00000000000E+00 0. -1.
         22    1    1    2    0    0 -0.17704514431E+01  0.10252292984E+02 -0.15970998438E+02  0.19060870936E+02  0.00000000000E+00 0. -1.
<mgrwt>
<rscale>  0 0.50275060E+02</rscale>
<asrwt>0</asrwt>
<pdfrwt beam="1">  1        2 0.20341776E+00 0.84996847E+02</pdfrwt>
<pdfrwt beam="2">  1       -2 0.45065391E-03 0.84996847E+02</pdfrwt>
<totfact> 0.10191411E+05</totfact>
</mgrwt>
</event>
<event>
 6    1  0.1535970E-002  0.9021210E+02  0.7546771E-02  0.1398806E+00
         -2   -1    0    0    0  501 -0.00000000000E+00  0.00000000000E+00  0.47764252555E+01  0.47764252555E+01  0.00000000000E+00 0.  1.
          2   -1    0    0  501    0  0.00000000000E+00 -0.00000000000E+00 -0.16040506581E+04  0.16040506581E+04  0.00000000000E+00 0. -1.
         23    2    1    2    0    0 -0.90815471081E+01  0.14820687628E+02 -0.15811268813E+04  0.15836983419E+04  0.88521726217E+02 0.  0.
         11    1    3    3    0    0  0.35283856805E+02 -0.12276232686E+02 -0.55549597636E+03  0.55675078464E+03  0.00000000000E+00 0.  1.
        -11    1    3    3    0    0 -0.44365403913E+02  0.27096920314E+02 -0.10256309050E+04  0.10269475573E+04  0.00000000000E+00 0. -1.
         22    1    1    2    0    0  0.90815471081E+01 -0.14820687628E+02 -0.18147351501E+02  0.25128741436E+02  0.00000000000E+00 0.  1.
<mgrwt>
<rscale>  0 0.59768498E+02</rscale>
<asrwt>0</asrwt>
<pdfrwt beam="1">  1        2 0.24677745E+00 0.90212102E+02</pdfrwt>
<pdfrwt beam="2">  1       -2 0.73483338E-03 0.90212102E+02</pdfrwt>
<totfact> 0.37021622E+04</totfact>
</mgrwt>
</event>
<event>
 6    1  0.1535970E-002  0.9155660E+02  0.7546771E-02  0.1402964E+00
          1   -1    0    0  501    0  0.00000000000E+00  0.00000000000E+00  0.50639546587E+02  0.50639546587E+02  0.00000000000E+00 0. -1.
         -1   -1    0    0    0  501 -0.00000000000E+00 -0.00000000000E+00 -0.73727257334E+02  0.73727257334E+02  0.00000000000E+00 0.  1.
         23    2    1    2    0    0  0.22313690261E+01 -0.15408186788E+02  0.55989474102E+01  0.91727631381E+02  0.90223161765E+02 0.  0.
         13    1    3    3    0    0  0.23833471082E+02 -0.13545275368E+02  0.41529705844E+02  0.49761685021E+02  0.00000000000E+00 0. -1.
        -13    1    3    3    0    0 -0.21602102056E+02 -0.18629114196E+01 -0.35930758434E+02  0.41965946360E+02  0.00000000000E+00 0.  1.
         22    1    1    2    0    0 -0.22313690261E+01  0.15408186788E+02 -0.28686658157E+02  0.32639172539E+02  0.00000000000E+00 0.  1.
<mgrwt>
<rscale>  0 0.58793842E+02</rscale>
<asrwt>0</asrwt>
<pdfrwt beam="1">  1        1 0.77906995E-02 0.91556595E+02</pdfrwt>
<pdfrwt beam="2">  1       -1 0.11342655E-01 0.91556595E+02</pdfrwt>
<totfact> 0.39098095E+04</totfact>
</mgrwt>
</event>
<event>
 6    1  0.1535970E-002  0.9410514E+02  0.7546771E-02  0.1408357E+00
          1   -1    0    0  501    0  0.00000000000E+00  0.00000000000E+00  0.10042286363E+04  0.10042286363E+04  0.00000000000E+00 0. -1.
         -1   -1    0    0    0  501 -0.00000000000E+00 -0.00000000000E+00 -0.42251134875E+01  0.42251134875E+01  0.00000000000E+00 0.  1.
         23    2    1    2    0    0 -0.64690619483E+01 -0.11475953516E+02  0.97996310802E+03  0.98447116243E+03  0.93178486242E+02 0.  0.
         11    1    3    3    0    0  0.17961618079E+02  0.48592326520E+01  0.40737644371E+02  0.44786019414E+02  0.00000000000E+00 0.  1.
        -11    1    3    3    0    0 -0.24430680028E+02 -0.16335186168E+02  0.93922546365E+03  0.93968514302E+03  0.00000000000E+00 0. -1.
         22    1    1    2    0    0  0.64690619483E+01  0.11475953516E+02  0.20040414811E+02  0.23982587379E+02  0.00000000000E+00 0.  1.
<mgrwt>
<rscale>  0 0.57562137E+02</rscale>
<asrwt>0</asrwt>
<pdfrwt beam="1">  1        1 0.15449652E+00 0.94105136E+02</pdfrwt>
<pdfrwt beam="2">  1       -1 0.65001826E-03 0.94105136E+02</pdfrwt>
<totfact> 0.50287492E+04</totfact>
</mgrwt>
</event>
<event>
 6    1  0.1535970E-002  0.1049639E+03  0.7546771E-02  0.1285938E+00
         -1   -1    0    0    0  501 -0.00000000000E+00  0.00000000000E+00  0.94930798045E+01  0.94930798045E+01  0.00000000000E+00 0.  1.
          1   -1    0    0  501    0  0.00000000000E+00 -0.00000000000E+00 -0.95491091490E+03  0.95491091490E+03  0.00000000000E+00 0. -1.
         23    2    1    2    0    0  0.53487187265E+01  0.77526506903E+02 -0.67234524956E+03  0.68048920990E+03  0.70558217859E+02 0.  0.
         13    1    3    3    0    0 -0.13295001847E+00  0.21867212992E+02 -0.39267998562E+02  0.44946283392E+02  0.00000000000E+00 0.  1.
        -13    1    3    3    0    0  0.54816687449E+01  0.55659293911E+02 -0.63307725100E+03  0.63554292650E+03  0.00000000000E+00 0. -1.
         22    1    1    2    0    0 -0.53487187265E+01 -0.77526506903E+02 -0.27307258553E+03  0.28391478480E+03  0.00000000000E+00 0. -1.
<mgrwt>
<rscale>  0 0.97364459E+02</rscale>
<asrwt>0</asrwt>
<pdfrwt beam="1">  1        1 0.14690944E+00 0.10496395E+03</pdfrwt>
<pdfrwt beam="2">  1       -1 0.14604731E-02 0.10496395E+03</pdfrwt>
<totfact> 0.17577867E+04</totfact>
</mgrwt>
</event>
<event>
 6    1  0.1535970E-002  0.9165219E+02  0.7546771E-02  0.1419802E+00
          2   -1    0    0  501    0  0.00000000000E+00  0.00000000000E+00  0.12145374079E+03  0.12145374079E+03  0.00000000000E+00 0. -1.
         -2   -1    0    0    0  501 -0.00000000000E+00 -0.00000000000E+00 -0.31936705742E+02  0.31936705742E+02  0.00000000000E+00 0.  1.
         23    2    1    2    0    0  0.13212333596E+01 -0.11866691965E+02  0.10130494933E+03  0.13661191981E+03  0.90871116637E+02 0.  0.
         11    1    3    3    0    0  0.10477650513E+02  0.38002666878E+02  0.32192513598E+02  0.50895400400E+02  0.00000000000E+00 0.  1.
        -11    1    3    3    0    0 -0.91564171534E+01 -0.49869358843E+02  0.69112435734E+02  0.85716519409E+02  0.00000000000E+00 0. -1.
         22    1    1    2    0    0 -0.13212333596E+01  0.11866691965E+02 -0.11787914285E+02  0.16778526723E+02  0.00000000000E+00 0.  1.
<mgrwt>
<rscale>  0 0.55062811E+02</rscale>
<asrwt>0</asrwt>
<pdfrwt beam="1">  1        2 0.18685191E-01 0.91652190E+02</pdfrwt>
<pdfrwt beam="2">  1       -2 0.49133394E-02 0.91652190E+02</pdfrwt>
<totfact> 0.52305651E+04</totfact>
</mgrwt>
</event>
<event>
 6    1  0.2723511E-002  0.9589817E+02  0.7546771E-02  0.1352114E+00
         -1   -1    0    0    0  501 -0.00000000000E+00  0.00000000000E+00  0.33124686304E+03  0.33124686304E+03  0.00000000000E+00 0.  1.
          1   -1    0    0  501    0  0.00000000000E+00 -0.00000000000E+00 -0.78632261954E+02  0.78632261954E+02  0.00000000000E+00 0. -1.
         23    2    1    2    0    0 -0.17375659064E+02 -0.25861169316E+02  0.32084591118E+03  0.33487095689E+03  0.90695895398E+02 0.  0.
         13    1    3    3    0    0  0.21407207155E+02 -0.33124314548E+02  0.25557850103E+03  0.25860367152E+03  0.00000000000E+00 0. -1.
        -13    1    3    3    0    0 -0.38782866219E+02  0.72631452327E+01  0.65267410144E+02  0.76267285370E+02  0.00000000000E+00 0.  1.
         22    1    1    2    0    0  0.17375659064E+02  0.25861169316E+02 -0.68231310090E+02  0.75008168108E+02  0.00000000000E+00 0. -1.
<mgrwt>
<rscale>  0 0.72400928E+02</rscale>
<asrwt>0</asrwt>
<pdfrwt beam="1">  1        1 0.12097271E-01 0.95898170E+02</pdfrwt>
<pdfrwt beam="2">  1       -1 0.50961055E-01 0.95898170E+02</pdfrwt>
<totfact> 0.18869605E+03</totfact>
</mgrwt>
</event>
<event>
 6    1  0.1535970E-002  0.9340841E+02  0.7546771E-02  0.1401791E+00
         -2   -1    0    0    0  501 -0.00000000000E+00  0.00000000000E+00  0.98379666285E+02  0.98379666285E+02  0.00000000000E+00 0.  1.
          2   -1    0    0  501    0  0.00000000000E+00 -0.00000000000E+00 -0.29836182556E+02  0.29836182556E+02  0.00000000000E+00 0. -1.
         23    2    1    2    0    0  0.14543728498E+02 -0.33973820552E+01  0.59764603884E+02  0.11089156026E+03  0.92206659285E+02 0.  0.
         13    1    3    3    0    0 -0.34776473094E+02  0.39516909086E+01  0.26916584775E+01  0.35103617581E+02  0.00000000000E+00 0. -1.
        -13    1    3    3    0    0  0.49320201592E+02 -0.73490729638E+01  0.57072945406E+02  0.75787942681E+02  0.00000000000E+00 0.  1.
         22    1    1    2    0    0 -0.14543728498E+02  0.33973820552E+01  0.87788798449E+01  0.17324288579E+02  0.00000000000E+00 0. -1.
<mgrwt>
<rscale>  0 0.59066703E+02</rscale>
<asrwt>0</asrwt>
<pdfrwt beam="1">  1        2 0.45901820E-02 0.93408406E+02</pdfrwt>
<pdfrwt beam="2">  1       -2 0.15135333E-01 0.93408406E+02</pdfrwt>
<totfact> 0.51182587E+04</totfact>
</mgrwt>
</event>
<event>
 6    1  0.1535970E-002  0.9556016E+02  0.7546771E-02  0.1404375E+00
         -4   -1    0    0    0  501 -0.00000000000E+00  0.00000000000E+00  0.50556645579E+02  0.50556645579E+02  0.00000000000E+00 0.  1.
          4   -1    0    0  501    0  0.00000000000E+00 -0.00000000000E+00 -0.59543182425E+02  0.59543182425E+02  0.00000000000E+00 0. -1.
         23    2    1    2    0    0  0.33101928374E+01 -0.12976535082E+02 -0.34906495275E+01  0.95623895675E+02  0.94617107071E+02 0.  0.
         13    1    3    3    0    0  0.83426875221E+01  0.26336065961E+02  0.32103363382E+02  0.42353450224E+02  0.00000000000E+00 0.  1.
        -13    1    3    3    0    0 -0.50324946847E+01 -0.39312601044E+02 -0.35594012909E+02  0.53270445451E+02  0.00000000000E+00 0. -1.
         22    1    1    2    0    0 -0.33101928374E+01  0.12976535082E+02 -0.54958873190E+01  0.14475932329E+02  0.00000000000E+00 0.  1.
<mgrwt>
<rscale>  0 0.58468194E+02</rscale>
<asrwt>0</asrwt>
<pdfrwt beam="1">  1        4 0.91604896E-02 0.95560163E+02</pdfrwt>
<pdfrwt beam="2">  1       -4 0.77779455E-02 0.95560163E+02</pdfrwt>
<totfact> 0.14924736E+04</totfact>
</mgrwt>
</event>
<event>
 6    1  0.1535970E-002  0.1048309E+03  0.7546771E-02  0.1314927E+00
          4   -1    0    0  501    0  0.00000000000E+00  0.00000000000E+00  0.33416991518E+03  0.33416991518E+03  0.00000000000E+00 0. -1.
         -4   -1    0    0    0  501 -0.00000000000E+00 -0.00000000000E+00 -0.17279713784E+02  0.17279713784E+02  0.00000000000E+00 0.  1.
         23    2    1    2    0    0  0.18807505398E+02 -0.41678322007E+02  0.24158456712E+03  0.26334887222E+03  0.94333030513E+02 0.  0.
         11    1    3    3    0    0 -0.38316003859E+02 -0.13488705339E+02  0.10697637794E+03  0.11442904684E+03  0.00000000000E+00 0. -1.
        -11    1    3    3    0    0  0.57123509257E+02 -0.28189616668E+02  0.13460818918E+03  0.14891982538E+03  0.00000000000E+00 0.  1.
         22    1    1    2    0    0 -0.18807505398E+02  0.41678322007E+02  0.75305634278E+02  0.88100756743E+02  0.00000000000E+00 0.  1.
<mgrwt>
<rscale>  0 0.85193466E+02</rscale>
<asrwt>0</asrwt>
<pdfrwt beam="1">  1        4 0.51410751E-01 0.10483094E+03</pdfrwt>
<pdfrwt beam="2">  1       -4 0.26584178E-02 0.10483094E+03</pdfrwt>
<totfact> 0.36722011E+03</totfact>
</mgrwt>
</event>
<event>
 6    1  0.1535970E-002  0.1068906E+03  0.7546771E-02  0.1301929E+00
         -2   -1    0    0    0  501 -0.00000000000E+00  0.00000000000E+00  0.18939383384E+03  0.18939383384E+03  0.00000000000E+00 0. -1.
          2   -1    0    0  501    0  0.00000000000E+00 -0.00000000000E+00 -0.50385223604E+02  0.50385223604E+02  0.00000000000E+00 0.  1.
         23    2    1    2    0    0  0.42485473739E+02  0.34359048692E+02  0.19888677615E+02  0.10872518282E+03  0.91869723938E+02 0.  0.
         13    1    3    3    0    0  0.34030924037E+02  0.26016696060E+01  0.52375647444E+02  0.62514645650E+02  0.00000000000E+00 0. -1.
        -13    1    3    3    0    0  0.84545497018E+01  0.31757379086E+02 -0.32486969829E+02  0.46210537172E+02  0.00000000000E+00 0.  1.
         22    1    1    2    0    0 -0.42485473739E+02 -0.34359048692E+02  0.11911993262E+03  0.13105387462E+03  0.00000000000E+00 0. -1.
<mgrwt>
<rscale>  0 0.90382206E+02</rscale>
<asrwt>0</asrwt>
<pdfrwt beam="1">  1        2 0.77515730E-02 0.10689063E+03</pdfrwt>
<pdfrwt beam="2">  1       -2 0.29137512E-01 0.10689063E+03</pdfrwt>
<totfact> 0.87876507E+03</totfact>
</mgrwt>
</event>
<event>
 6    1  0.1535970E-002  0.8704897E+02  0.7546771E-02  0.1420899E+00
         -2   -1    0    0    0  501 -0.00000000000E+00  0.00000000000E+00  0.24700929845E+03  0.24700929845E+03  0.00000000000E+00 0.  1.
          2   -1    0    0  501    0  0.00000000000E+00 -0.00000000000E+00 -0.10306425070E+02  0.10306425070E+02  0.00000000000E+00 0. -1.
         23    2    1    2    0    0 -0.51282309473E+01 -0.12707316336E+02  0.19927192015E+03  0.21745533089E+03  0.85963644233E+02 0.  0.
         11    1    3    3    0    0 -0.61088924363E+01 -0.18582226462E+02  0.15263483572E+01  0.19620077634E+02  0.00000000000E+00 0. -1.
        -11    1    3    3    0    0  0.98066148899E+00  0.58749101257E+01  0.19774557179E+03  0.19783525325E+03  0.00000000000E+00 0.  1.
         22    1    1    2    0    0  0.51282309473E+01  0.12707316336E+02  0.37430953234E+02  0.39860392636E+02  0.00000000000E+00 0. -1.
<mgrwt>
<rscale>  0 0.54831148E+02</rscale>
<asrwt>0</asrwt>
<pdfrwt beam="1">  1        2 0.15856040E-02 0.87048968E+02</pdfrwt>
<pdfrwt beam="2">  1       -2 0.38001426E-01 0.87048968E+02</pdfrwt>
<totfact> 0.42577837E+04</totfact>
</mgrwt>
</event>
<event>
 6    1  0.1535970E-002  0.9289949E+02  0.7546771E-02  0.1407574E+00
         -2   -1    0    0    0  501 -0.00000000000E+00  0.00000000000E+00  0.48761697264E+01  0.48761697264E+01  0.00000000000E+00 0.  1.
          2   -1    0    0  501    0  0.00000000000E+00 -0.00000000000E+00 -0.86171126601E+03  0.86171126601E+03  0.00000000000E+00 0. -1.
         23    2    1    2    0    0 -0.72484967707E+01  0.11815931926E+02 -0.83835319428E+03  0.84348467282E+03  0.91859446815E+02 0.  0.
         13    1    3    3    0    0  0.17896675665E+02  0.40989942999E+02 -0.25746612324E+03  0.26132215949E+03  0.00000000000E+00 0.  1.
        -13    1    3    3    0    0 -0.25145172436E+02 -0.29174011073E+02 -0.58088707104E+03  0.58216251332E+03  0.00000000000E+00 0. -1.
         22    1    1    2    0    0  0.72484967707E+01 -0.11815931926E+02 -0.18481902002E+02  0.23102762916E+02  0.00000000000E+00 0.  1.
<mgrwt>
<rscale>  0 0.57738700E+02</rscale>
<asrwt>0</asrwt>
<pdfrwt beam="1">  1        2 0.13257098E+00 0.92899488E+02</pdfrwt>
<pdfrwt beam="2">  1       -2 0.75017987E-03 0.92899488E+02</pdfrwt>
<totfact> 0.92103968E+04</totfact>
</mgrwt>
</event>
<event>
 6    1  0.1535970E-002  0.9194988E+02  0.7546771E-02  0.1399694E+00
          2   -1    0    0  501    0  0.00000000000E+00  0.00000000000E+00  0.69424800876E+03  0.69424800876E+03  0.00000000000E+00 0. -1.
         -2   -1    0    0    0  501 -0.00000000000E+00 -0.00000000000E+00 -0.46232188710E+01  0.46232188710E+01  0.00000000000E+00 0.  1.
         23    2    1    2    0    0  0.92833321769E+01  0.13258256514E+02  0.64245933484E+03  0.64900599153E+03  0.90514189428E+02 0.  0.
         11    1    3    3    0    0 -0.17813556365E+02  0.38156975135E+01  0.57982820917E+03  0.58011432881E+03  0.00000000000E+00 0. -1.
        -11    1    3    3    0    0  0.27096888542E+02  0.94425590005E+01  0.62631125671E+02  0.68891662718E+02  0.00000000000E+00 0.  1.
         22    1    1    2    0    0 -0.92833321769E+01 -0.13258256514E+02  0.47165455047E+02  0.49865236106E+02  0.00000000000E+00 0. -1.
<mgrwt>
<rscale>  0 0.59558408E+02</rscale>
<asrwt>0</asrwt>
<pdfrwt beam="1">  1        2 0.10680730E+00 0.91949878E+02</pdfrwt>
<pdfrwt beam="2">  1       -2 0.71126499E-03 0.91949878E+02</pdfrwt>
<totfact> 0.12874116E+05</totfact>
</mgrwt>
</event>
<event>
 6    1  0.1535970E-002  0.9089555E+02  0.7546771E-02  0.1415858E+00
          2   -1    0    0  501    0  0.00000000000E+00  0.00000000000E+00  0.57224384851E+01  0.57224384851E+01  0.00000000000E+00 0. -1.
         -2   -1    0    0    0  501 -0.00000000000E+00 -0.00000000000E+00 -0.47235263854E+03  0.47235263854E+03  0.00000000000E+00 0.  1.
         23    2    1    2    0    0 -0.80769368848E+01 -0.10197545054E+02 -0.40187027813E+03  0.41202150542E+03  0.89959844635E+02 0.  0.
         13    1    3    3    0    0  0.77293256167E+01 -0.24875069144E+02 -0.30856027229E+02  0.40380762199E+02  0.00000000000E+00 0. -1.
        -13    1    3    3    0    0 -0.15806262501E+02  0.14677524090E+02 -0.37101425090E+03  0.37164074322E+03  0.00000000000E+00 0.  1.
         22    1    1    2    0    0  0.80769368848E+01  0.10197545054E+02 -0.64759921924E+02  0.66053571608E+02  0.00000000000E+00 0.  1.
<mgrwt>
<rscale>  0 0.55906926E+02</rscale>
<asrwt>0</asrwt>
<pdfrwt beam="1">  1        2 0.88037495E-03 0.90895547E+02</pdfrwt>
<pdfrwt beam="2">  1       -2 0.72669654E-01 0.90895547E+02</pdfrwt>
<totfact> 0.26417997E+04</totfact>
</mgrwt>
</event>
<event>
 6    1  0.1535970E-002  0.9231662E+02  0.7546771E-02  0.1399001E+00
         -2   -1    0    0    0  501 -0.00000000000E+00  0.00000000000E+00  0.47940766061E+02  0.47940766061E+02  0.00000000000E+00 0.  1.
          2   -1    0    0  501    0  0.00000000000E+00 -0.00000000000E+00 -0.66871057389E+02  0.66871057389E+02  0.00000000000E+00 0. -1.
         23    2    1    2    0    0 -0.15425719320E+02  0.48486690575E+01 -0.27744642113E+02  0.96395656966E+02  0.90889466429E+02 0.  0.
         11    1    3    3    0    0 -0.23094438907E+02 -0.40908908393E+00  0.30025487694E+02  0.37882058729E+02  0.00000000000E+00 0.  1.
        -11    1    3    3    0    0  0.76687195864E+01  0.52577581414E+01 -0.57770129807E+02  0.58513598237E+02  0.00000000000E+00 0. -1.
         22    1    1    2    0    0  0.15425719320E+02 -0.48486690575E+01  0.88143507855E+01  0.18416166483E+02  0.00000000000E+00 0. -1.
<mgrwt>
<rscale>  0 0.59722237E+02</rscale>
<asrwt>0</asrwt>
<pdfrwt beam="1">  1        2 0.10287855E-01 0.92316616E+02</pdfrwt>
<pdfrwt beam="2">  1       -2 0.73755025E-02 0.92316616E+02</pdfrwt>
<totfact> 0.57114206E+04</totfact>
</mgrwt>
</event>
<event>
 6    1  0.1535970E-002  0.9657766E+02  0.7546771E-02  0.1420130E+00
          2   -1    0    0  501    0  0.00000000000E+00  0.00000000000E+00  0.75287263059E+02  0.75287263059E+02  0.00000000000E+00 0. -1.
         -2   -1    0    0    0  501 -0.00000000000E+00 -0.00000000000E+00 -0.38084751944E+02  0.38084751944E+02  0.00000000000E+00 0.  1.
         23    2    1    2    0    0 -0.73114299650E+01 -0.70452868255E+01  0.36315951700E+02  0.10317990717E+03  0.96042448013E+02 0.  0.
         11    1    3    3    0    0  0.94876015416E+01 -0.11254268746E+02 -0.30655038657E+02  0.34005948642E+02  0.00000000000E+00 0.  1.
        -11    1    3    3    0    0 -0.16799031507E+02  0.42089819207E+01  0.66970990357E+02  0.69173958523E+02  0.00000000000E+00 0. -1.
         22    1    1    2    0    0  0.73114299650E+01  0.70452868255E+01  0.88655941431E+00  0.10192107838E+02  0.00000000000E+00 0. -1.
<mgrwt>
<rscale>  0 0.54993480E+02</rscale>
<asrwt>0</asrwt>
<pdfrwt beam="1">  1        2 0.11582656E-01 0.96577663E+02</pdfrwt>
<pdfrwt beam="2">  1       -2 0.58591926E-02 0.96577663E+02</pdfrwt>
<totfact> 0.70570547E+04</totfact>
</mgrwt>
</event>
<event>
 6    1  0.1535970E-002  0.1010283E+03  0.7546771E-02  0.1341359E+00
          2   -1    0    0  501    0  0.00000000000E+00  0.00000000000E+00  0.53009596605E+02  0.53009596605E+02  0.00000000000E+00 0. -1.
         -2   -1    0    0    0  501 -0.00000000000E+00 -0.00000000000E+00 -0.90462639899E+02  0.90462639899E+02  0.00000000000E+00 0.  1.
         23    2    1    2    0    0 -0.31464312163E+02  0.60641278170E+01 -0.10448162970E+02  0.10156710379E+03  0.95811981910E+02 0.  0.
         13    1    3    3    0    0  0.22948991380E+02  0.22766433662E+02  0.18984724182E+02  0.37488484356E+02  0.00000000000E+00 0.  1.
        -13    1    3    3    0    0 -0.54413303543E+02 -0.16702305845E+02 -0.29432887151E+02  0.64078619438E+02  0.00000000000E+00 0. -1.
         22    1    1    2    0    0  0.31464312163E+02 -0.60641278170E+01 -0.27004880325E+02  0.41905132710E+02  0.00000000000E+00 0.  1.
<mgrwt>
<rscale>  0 0.75817018E+02</rscale>
<asrwt>0</asrwt>
<pdfrwt beam="1">  1        2 0.81553226E-02 0.10102828E+03</pdfrwt>
<pdfrwt beam="2">  1       -2 0.13917329E-01 0.10102828E+03</pdfrwt>
<totfact> 0.28511301E+04</totfact>
</mgrwt>
</event>
<event>
 6    1  0.1535970E-002  0.9416504E+02  0.7546771E-02  0.1350212E+00
         -2   -1    0    0    0  501 -0.00000000000E+00  0.00000000000E+00  0.17139979805E+02  0.17139979805E+02  0.00000000000E+00 0.  1.
          2   -1    0    0  501    0  0.00000000000E+00 -0.00000000000E+00 -0.19748429613E+04  0.19748429613E+04  0.00000000000E+00 0. -1.
         23    2    1    2    0    0  0.30849891542E+02  0.14274190996E+02 -0.19556639531E+04  0.19579296597E+04  0.87815639120E+02 0.  0.
         11    1    3    3    0    0  0.86617165177E+01  0.44910019734E+02 -0.15003910724E+04  0.15010880405E+04  0.00000000000E+00 0. -1.
        -11    1    3    3    0    0  0.22188175024E+02 -0.30635828738E+02 -0.45527288071E+03  0.45684161919E+03  0.00000000000E+00 0.  1.
         22    1    1    2    0    0 -0.30849891542E+02 -0.14274190996E+02 -0.20390283623E+01  0.34053281390E+02  0.00000000000E+00 0.  1.
<mgrwt>
<rscale>  0 0.72989776E+02</rscale>
<asrwt>0</asrwt>
<pdfrwt beam="1">  1        2 0.30382188E+00 0.94165040E+02</pdfrwt>
<pdfrwt beam="2">  1       -2 0.26369210E-02 0.94165040E+02</pdfrwt>
<totfact> 0.39053815E+03</totfact>
</mgrwt>
</event>
<event>
 6    1  0.1535970E-002  0.9395269E+02  0.7546771E-02  0.1367029E+00
         -2   -1    0    0    0  501 -0.00000000000E+00  0.00000000000E+00  0.19520899566E+02  0.19520899566E+02  0.00000000000E+00 0.  1.
          2   -1    0    0  501    0  0.00000000000E+00 -0.00000000000E+00 -0.18402410478E+03  0.18402410478E+03  0.00000000000E+00 0. -1.
         23    2    1    2    0    0  0.75005896959E+01  0.24666645843E+02 -0.12496794428E+03  0.15634607300E+03  0.90346030252E+02 0.  0.
         11    1    3    3    0    0 -0.41393617713E+02  0.75419883264E+01 -0.52989476555E+02  0.67662380987E+02  0.00000000000E+00 0.  1.
        -11    1    3    3    0    0  0.48894207408E+02  0.17124657516E+02 -0.71978467727E+02  0.88683692016E+02  0.00000000000E+00 0. -1.
         22    1    1    2    0    0 -0.75005896959E+01 -0.24666645843E+02 -0.39535260927E+02  0.47198931338E+02  0.00000000000E+00 0. -1.
<mgrwt>
<rscale>  0 0.68000217E+02</rscale>
<asrwt>0</asrwt>
<pdfrwt beam="1">  1        2 0.28311400E-01 0.93952687E+02</pdfrwt>
<pdfrwt beam="2">  1       -2 0.30032153E-02 0.93952687E+02</pdfrwt>
<totfact> 0.68477187E+04</totfact>
</mgrwt>
</event>
<event>
 6    1  0.1535970E-002  0.9182189E+02  0.7546771E-02  0.1396001E+00
         -2   -1    0    0    0  501 -0.00000000000E+00  0.00000000000E+00  0.47156090522E+02  0.47156090522E+02  0.00000000000E+00 0.  1.
          2   -1    0    0  501    0  0.00000000000E+00 -0.00000000000E+00 -0.85900318620E+02  0.85900318620E+02  0.00000000000E+00 0. -1.
         23    2    1    2    0    0 -0.17176043742E+02 -0.14240490587E+01 -0.56900287190E+02  0.10802269435E+03  0.90189885347E+02 0.  0.
         13    1    3    3    0    0  0.36908076895E+02  0.43566790001E+01 -0.19097025759E+02  0.41783767002E+02  0.00000000000E+00 0.  1.
        -13    1    3    3    0    0 -0.54084120637E+02 -0.57807280588E+01 -0.37803261431E+02  0.66238927352E+02  0.00000000000E+00 0. -1.
         22    1    1    2    0    0  0.17176043742E+02  0.14240490587E+01  0.18156059092E+02  0.25033714788E+02  0.00000000000E+00 0.  1.
<mgrwt>
<rscale>  0 0.60438315E+02</rscale>
<asrwt>0</asrwt>
<pdfrwt beam="1">  1        2 0.13215434E-01 0.91821892E+02</pdfrwt>
<pdfrwt beam="2">  1       -2 0.72547832E-02 0.91821892E+02</pdfrwt>
<totfact> 0.43420873E+04</totfact>
</mgrwt>
</event>
<event>
 6    1  0.1535970E-002  0.9389288E+02  0.7546771E-02  0.1373342E+00
          1   -1    0    0  501    0  0.00000000000E+00  0.00000000000E+00  0.19865657173E+02  0.19865657173E+02  0.00000000000E+00 0. -1.
         -1   -1    0    0    0  501 -0.00000000000E+00 -0.00000000000E+00 -0.20545259665E+03  0.20545259665E+03  0.00000000000E+00 0.  1.
         23    2    1    2    0    0  0.13855604679E+02 -0.18693058016E+02 -0.10236413885E+03  0.13890388729E+03  0.90964085124E+02 0.  0.
         11    1    3    3    0    0 -0.20456465022E+02 -0.27747711814E+02 -0.97088640565E+02  0.10302721290E+03  0.00000000000E+00 0.  1.
        -11    1    3    3    0    0  0.34312069702E+02  0.90546537980E+01 -0.52754982821E+01  0.35876674382E+02  0.00000000000E+00 0. -1.
         22    1    1    2    0    0 -0.13855604679E+02  0.18693058016E+02 -0.83222800626E+02  0.86414366532E+02  0.00000000000E+00 0.  1.
<mgrwt>
<rscale>  0 0.66246830E+02</rscale>
<asrwt>0</asrwt>
<pdfrwt beam="1">  1        1 0.30562551E-02 0.93892880E+02</pdfrwt>
<pdfrwt beam="2">  1       -1 0.31608090E-01 0.93892880E+02</pdfrwt>
<totfact> 0.27312906E+04</totfact>
</mgrwt>
</event>
<event>
 6    1  0.1535970E-002  0.9185224E+02  0.7546771E-02  0.1415980E+00
          3   -1    0    0  501    0  0.00000000000E+00  0.00000000000E+00  0.23121619064E+03  0.23121619064E+03  0.00000000000E+00 0.  1.
         -3   -1    0    0    0  501 -0.00000000000E+00 -0.00000000000E+00 -0.12337951342E+02  0.12337951342E+02  0.00000000000E+00 0. -1.
         23    2    1    2    0    0 -0.87234861295E+00  0.12552395678E+02  0.20599634764E+03  0.22554673345E+03  0.90986318198E+02 0.  0.
         11    1    3    3    0    0 -0.51391701618E+01  0.37269126940E+01  0.21325475083E+03  0.21334922006E+03  0.00000000000E+00 0.  1.
        -11    1    3    3    0    0  0.42668215489E+01  0.88254829836E+01 -0.72584031902E+01  0.12197513390E+02  0.00000000000E+00 0. -1.
         22    1    1    2    0    0  0.87234861295E+00 -0.12552395678E+02  0.12881891651E+02  0.18007408527E+02  0.00000000000E+00 0.  1.
<mgrwt>
<rscale>  0 0.55880531E+02</rscale>
<asrwt>0</asrwt>
<pdfrwt beam="1">  1        3 0.35571719E-01 0.91852239E+02</pdfrwt>
<pdfrwt beam="2">  1       -3 0.18981465E-02 0.91852239E+02</pdfrwt>
<totfact> 0.16538042E+04</totfact>
</mgrwt>
</event>
<event>
 6    1  0.1535970E-002  0.8877054E+02  0.7546771E-02  0.1412696E+00
          2   -1    0    0  501    0  0.00000000000E+00  0.00000000000E+00  0.13945225781E+04  0.13945225781E+04  0.00000000000E+00 0. -1.
         -2   -1    0    0    0  501 -0.00000000000E+00 -0.00000000000E+00 -0.25113871727E+01  0.25113871727E+01  0.00000000000E+00 0.  1.
         23    2    1    2    0    0 -0.12306181456E+02  0.79808666393E+01  0.13415638669E+04  0.13444976080E+04  0.87550400344E+02 0.  0.
         11    1    3    3    0    0 -0.24411516269E+02 -0.16606621368E+02  0.11966998676E+04  0.11970640230E+04  0.00000000000E+00 0. -1.
        -11    1    3    3    0    0  0.12105334814E+02  0.24587488007E+02  0.14486399933E+03  0.14743358504E+03  0.00000000000E+00 0.  1.
         22    1    1    2    0    0  0.12306181456E+02 -0.79808666393E+01  0.50447324007E+02  0.52536357257E+02  0.00000000000E+00 0.  1.
<mgrwt>
<rscale>  0 0.56596669E+02</rscale>
<asrwt>0</asrwt>
<pdfrwt beam="1">  1        2 0.21454132E+00 0.88770541E+02</pdfrwt>
<pdfrwt beam="2">  1       -2 0.38636837E-03 0.88770541E+02</pdfrwt>
<totfact> 0.11646793E+05</totfact>
</mgrwt>
</event>
<event>
 6    1  0.1535970E-002  0.9198454E+02  0.7546771E-02  0.1424460E+00
          4   -1    0    0  501    0  0.00000000000E+00  0.00000000000E+00  0.23755008173E+03  0.23755008173E+03  0.00000000000E+00 0. -1.
         -4   -1    0    0    0  501 -0.00000000000E+00 -0.00000000000E+00 -0.11163193237E+02  0.11163193237E+02  0.00000000000E+00 0.  1.
         23    2    1    2    0    0 -0.93353599412E+00  0.10957251020E+02  0.20327129904E+03  0.22311516341E+03  0.91324817503E+02 0.  0.
         13    1    3    3    0    0  0.25312584778E+02  0.37423423732E+02  0.15873422483E+03  0.16503876431E+03  0.00000000000E+00 0. -1.
        -13    1    3    3    0    0 -0.26246120772E+02 -0.26466172712E+02  0.44537074201E+02  0.58076399096E+02  0.00000000000E+00 0.  1.
         22    1    1    2    0    0  0.93353599412E+00 -0.10957251020E+02  0.23115589453E+02  0.25598111554E+02  0.00000000000E+00 0.  1.
<mgrwt>
<rscale>  0 0.54088402E+02</rscale>
<asrwt>0</asrwt>
<pdfrwt beam="1">  1        4 0.36546163E-01 0.91984537E+02</pdfrwt>
<pdfrwt beam="2">  1       -4 0.17174145E-02 0.91984537E+02</pdfrwt>
<totfact> 0.13589861E+04</totfact>
</mgrwt>
</event>
<event>
 6    1  0.1535970E-002  0.1357471E+03  0.7546771E-02  0.1232716E+00
         -2   -1    0    0    0  501 -0.00000000000E+00  0.00000000000E+00  0.11811216633E+02  0.11811216633E+02  0.00000000000E+00 0.  1.
          2   -1    0    0  501    0  0.00000000000E+00 -0.00000000000E+00 -0.18409194348E+04  0.18409194348E+04  0.00000000000E+00 0. -1.
         23    2    1    2    0    0 -0.10076102404E+03  0.18394617041E+02 -0.15408071626E+04  0.15467753532E+04  0.89084987054E+02 0.  0.
         11    1    3    3    0    0 -0.11706507302E+03  0.11339334037E+02 -0.12969196610E+04  0.13022416899E+04  0.00000000000E+00 0. -1.
        -11    1    3    3    0    0  0.16304048981E+02  0.70552830040E+01 -0.24388750164E+03  0.24453366330E+03  0.00000000000E+00 0.  1.
         22    1    1    2    0    0  0.10076102404E+03 -0.18394617041E+02 -0.28830105560E+03  0.30595529831E+03  0.00000000000E+00 0.  1.
<mgrwt>
<rscale>  0 0.12651757E+03</rscale>
<asrwt>0</asrwt>
<pdfrwt beam="1">  1        2 0.28321820E+00 0.13574712E+03</pdfrwt>
<pdfrwt beam="2">  1       -2 0.18171114E-02 0.13574712E+03</pdfrwt>
<totfact> 0.78918378E+03</totfact>
</mgrwt>
</event>
<event>
 6    1  0.1535970E-002  0.9422138E+02  0.7546771E-02  0.1406222E+00
         -2   -1    0    0    0  501 -0.00000000000E+00  0.00000000000E+00  0.22723941593E+02  0.22723941593E+02  0.00000000000E+00 0.  1.
          2   -1    0    0  501    0  0.00000000000E+00 -0.00000000000E+00 -0.22021582129E+03  0.22021582129E+03  0.00000000000E+00 0. -1.
         23    2    1    2    0    0 -0.10959176687E+02  0.80048686681E+01 -0.20627424898E+03  0.22677463108E+03  0.93238865462E+02 0.  0.
         11    1    3    3    0    0 -0.48146464472E+02  0.50884246566E+00 -0.15917500188E+03  0.16629799212E+03  0.00000000000E+00 0. -1.
        -11    1    3    3    0    0  0.37187287785E+02  0.74960262025E+01 -0.47099247103E+02  0.60476638955E+02  0.00000000000E+00 0.  1.
         22    1    1    2    0    0  0.10959176687E+02 -0.80048686681E+01  0.87823692827E+01  0.16165131805E+02  0.00000000000E+00 0.  1.
<mgrwt>
<rscale>  0 0.58045402E+02</rscale>
<asrwt>0</asrwt>
<pdfrwt beam="1">  1        2 0.33879358E-01 0.94221375E+02</pdfrwt>
<pdfrwt beam="2">  1       -2 0.34959909E-02 0.94221375E+02</pdfrwt>
<totfact> 0.45304758E+04</totfact>
</mgrwt>
</event>
<event>
 6    1  0.1535970E-002  0.9047724E+02  0.7546771E-02  0.1432964E+00
          2   -1    0    0  501    0  0.00000000000E+00  0.00000000000E+00  0.11080213417E+04  0.11080213417E+04  0.00000000000E+00 0. -1.
         -2   -1    0    0    0  501 -0.00000000000E+00 -0.00000000000E+00 -0.24830939221E+01  0.24830939221E+01  0.00000000000E+00 0.  1.
         23    2    1    2    0    0  0.10120961411E+02  0.83668277951E+00  0.10596613413E+04  0.10635169432E+04  0.89905485288E+02 0.  0.
         13    1    3    3    0    0  0.19228487994E+02 -0.13634310062E+02  0.73080490547E+02  0.76787936943E+02  0.00000000000E+00 0.  1.
        -13    1    3    3    0    0 -0.91075265829E+01  0.14470992841E+02  0.98658085078E+03  0.98672900626E+03  0.00000000000E+00 0. -1.
         22    1    1    2    0    0 -0.10120961411E+02 -0.83668277951E+00  0.45876906406E+02  0.46987492371E+02  0.00000000000E+00 0. -1.
<mgrwt>
<rscale>  0 0.52369650E+02</rscale>
<asrwt>0</asrwt>
<pdfrwt beam="1">  1        2 0.17046443E+00 0.90477236E+02</pdfrwt>
<pdfrwt beam="2">  1       -2 0.38201533E-03 0.90477236E+02</pdfrwt>
<totfact> 0.16897423E+05</totfact>
</mgrwt>
</event>
<event>
 6    1  0.1535970E-002  0.9273951E+02  0.7546771E-02  0.1374227E+00
         -2   -1    0    0    0  501 -0.00000000000E+00  0.00000000000E+00  0.65322444616E+01  0.65322444616E+01  0.00000000000E+00 0.  1.
          2   -1    0    0  501    0  0.00000000000E+00 -0.00000000000E+00 -0.62008635103E+03  0.62008635103E+03  0.00000000000E+00 0. -1.
         23    2    1    2    0    0  0.66645616531E+01 -0.22845589543E+02 -0.56483608813E+03  0.57239883282E+03  0.89634145371E+02 0.  0.
         13    1    3    3    0    0  0.22325785695E+02 -0.35971755343E+01 -0.33118761651E+02  0.40102777360E+02  0.00000000000E+00 0.  1.
        -13    1    3    3    0    0 -0.15661224042E+02 -0.19248414009E+02 -0.53171732648E+03  0.53229605546E+03  0.00000000000E+00 0. -1.
         22    1    1    2    0    0 -0.66645616531E+01  0.22845589543E+02 -0.48718018440E+02  0.54219762673E+02  0.00000000000E+00 0.  1.
<mgrwt>
<rscale>  0 0.66005938E+02</rscale>
<asrwt>0</asrwt>
<pdfrwt beam="1">  1        2 0.95397897E-01 0.92739513E+02</pdfrwt>
<pdfrwt beam="2">  1       -2 0.10049607E-02 0.92739513E+02</pdfrwt>
<totfact> 0.90044633E+04</totfact>
</mgrwt>
</event>
<event>
 6    1  0.1535970E-002  0.1029669E+03  0.7546771E-02  0.1379190E+00
          2   -1    0    0  501    0  0.00000000000E+00  0.00000000000E+00  0.29062934193E+02  0.29062934193E+02  0.00000000000E+00 0. -1.
         -2   -1    0    0    0  501 -0.00000000000E+00 -0.00000000000E+00 -0.15123620506E+03  0.15123620506E+03  0.00000000000E+00 0.  1.
         23    2    1    2    0    0 -0.14763081549E+02  0.62440829407E+01 -0.67003867036E+02  0.12284828837E+03  0.10171158542E+03 0.  0.
         11    1    3    3    0    0 -0.67921209833E+01 -0.13557940693E+02  0.24540770753E+02  0.28847878473E+02  0.00000000000E+00 0. -1.
        -11    1    3    3    0    0 -0.79709605652E+01  0.19802023633E+02 -0.91544637789E+02  0.94000409893E+02  0.00000000000E+00 0.  1.
         22    1    1    2    0    0  0.14763081549E+02 -0.62440829407E+01 -0.55169403833E+02  0.57450850889E+02  0.00000000000E+00 0. -1.
<mgrwt>
<rscale>  0 0.64677260E+02</rscale>
<asrwt>0</asrwt>
<pdfrwt beam="1">  1        2 0.44712208E-02 0.10296691E+03</pdfrwt>
<pdfrwt beam="2">  1       -2 0.23267108E-01 0.10296691E+03</pdfrwt>
<totfact> 0.26208723E+04</totfact>
</mgrwt>
</event>
<event>
 6    1  0.1535970E-002  0.9622469E+02  0.7546771E-02  0.1349172E+00
         -2   -1    0    0    0  501 -0.00000000000E+00  0.00000000000E+00  0.46412856180E+01  0.46412856180E+01  0.00000000000E+00 0.  1.
          2   -1    0    0  501    0  0.00000000000E+00 -0.00000000000E+00 -0.15104976261E+04  0.15104976261E+04  0.00000000000E+00 0. -1.
         23    2    1    2    0    0 -0.53567554073E+01 -0.31980472625E+02 -0.14216849816E+04  0.14249376750E+04  0.90596606575E+02 0.  0.
         13    1    3    3    0    0 -0.60482704711E+01 -0.52532596646E+01 -0.13125854166E+04  0.13126098636E+04  0.00000000000E+00 0. -1.
        -13    1    3    3    0    0  0.69151506382E+00 -0.26727212960E+02 -0.10909956509E+03  0.11232781137E+03  0.00000000000E+00 0.  1.
         22    1    1    2    0    0  0.53567554073E+01  0.31980472625E+02 -0.84171358804E+02  0.90201236692E+02  0.00000000000E+00 0.  1.
<mgrwt>
<rscale>  0 0.73314222E+02</rscale>
<asrwt>0</asrwt>
<pdfrwt beam="1">  1        2 0.23238438E+00 0.96224688E+02</pdfrwt>
<pdfrwt beam="2">  1       -2 0.71404353E-03 0.96224688E+02</pdfrwt>
<totfact> 0.43259445E+04</totfact>
</mgrwt>
</event>
<event>
 6    1  0.1535970E-002  0.9247130E+02  0.7546771E-02  0.1397462E+00
          2   -1    0    0  501    0  0.00000000000E+00  0.00000000000E+00  0.22706963281E+04  0.22706963281E+04  0.00000000000E+00 0. -1.
         -2   -1    0    0    0  501 -0.00000000000E+00 -0.00000000000E+00 -0.28658378021E+01  0.28658378021E+01  0.00000000000E+00 0.  1.
         23    2    1    2    0    0  0.15897433972E+02 -0.43687648129E+01  0.22341509471E+04  0.22360638173E+04  0.90989705063E+02 0.  0.
         13    1    3    3    0    0  0.69481041234E+01 -0.31884404360E+02  0.19803536128E+04  0.19806224585E+04  0.00000000000E+00 0. -1.
        -13    1    3    3    0    0  0.89493298491E+01  0.27515639547E+02  0.25379733427E+03  0.25544135884E+03  0.00000000000E+00 0.  1.
         22    1    1    2    0    0 -0.15897433972E+02  0.43687648129E+01  0.33679543273E+02  0.37498348603E+02  0.00000000000E+00 0.  1.
<mgrwt>
<rscale>  0 0.60088214E+02</rscale>
<asrwt>0</asrwt>
<pdfrwt beam="1">  1        2 0.34933646E+00 0.92471298E+02</pdfrwt>
<pdfrwt beam="2">  1       -2 0.44089994E-03 0.92471298E+02</pdfrwt>
<totfact> 0.35046062E+04</totfact>
</mgrwt>
</event>
<event>
 6    1  0.1535970E-002  0.9456194E+02  0.7546771E-02  0.1376027E+00
         -3   -1    0    0    0  501 -0.00000000000E+00  0.00000000000E+00  0.37439836575E+01  0.37439836575E+01  0.00000000000E+00 0.  1.
          3   -1    0    0  501    0  0.00000000000E+00 -0.00000000000E+00 -0.12812998916E+04  0.12812998916E+04  0.00000000000E+00 0. -1.
         23    2    1    2    0    0  0.76790822507E-01  0.21793932440E+02 -0.12173063823E+04  0.12209737049E+04  0.92016185049E+02 0.  0.
         13    1    3    3    0    0  0.14696876905E+02  0.67928915271E+01 -0.11573545893E+04  0.11574678341E+04  0.00000000000E+00 0. -1.
        -13    1    3    3    0    0 -0.14620086082E+02  0.15001040912E+02 -0.59951792972E+02  0.63505870800E+02  0.00000000000E+00 0.  1.
         22    1    1    2    0    0 -0.76790822507E-01 -0.21793932440E+02 -0.60249525656E+02  0.64070170358E+02  0.00000000000E+00 0.  1.
<mgrwt>
<rscale>  0 0.65519691E+02</rscale>
<asrwt>0</asrwt>
<pdfrwt beam="1">  1        3 0.19712298E+00 0.94561936E+02</pdfrwt>
<pdfrwt beam="2">  1       -3 0.57599773E-03 0.94561936E+02</pdfrwt>
<totfact> 0.22599283E+03</totfact>
</mgrwt>
</event>
<event>
 6    1  0.1535970E-002  0.9493028E+02  0.7546771E-02  0.1392319E+00
         -2   -1    0    0    0  501 -0.00000000000E+00  0.00000000000E+00  0.44202916470E+01  0.44202916470E+01  0.00000000000E+00 0.  1.
          2   -1    0    0  501    0  0.00000000000E+00 -0.00000000000E+00 -0.81964165472E+03  0.81964165472E+03  0.00000000000E+00 0. -1.
         23    2    1    2    0    0  0.14945377973E+02 -0.70898271840E+01 -0.77145598035E+03  0.77727478256E+03  0.93477954688E+02 0.  0.
         13    1    3    3    0    0  0.30518249239E+02  0.48007866756E+01 -0.73692491915E+03  0.73757219820E+03  0.00000000000E+00 0. -1.
        -13    1    3    3    0    0 -0.15572871266E+02 -0.11890613860E+02 -0.34531061200E+02  0.39702584362E+02  0.00000000000E+00 0.  1.
         22    1    1    2    0    0 -0.14945377973E+02  0.70898271840E+01 -0.43765382720E+02  0.46787163805E+02  0.00000000000E+00 0.  1.
<mgrwt>
<rscale>  0 0.61333681E+02</rscale>
<asrwt>0</asrwt>
<pdfrwt beam="1">  1        2 0.12609868E+00 0.94930280E+02</pdfrwt>
<pdfrwt beam="2">  1       -2 0.68004507E-03 0.94930280E+02</pdfrwt>
<totfact> 0.11290728E+05</totfact>
</mgrwt>
</event>
<event>
 6    1  0.1535970E-002  0.9494834E+02  0.7546771E-02  0.1373962E+00
         -1   -1    0    0    0  501 -0.00000000000E+00  0.00000000000E+00  0.60420347557E+02  0.60420347557E+02  0.00000000000E+00 0.  1.
          1   -1    0    0  501    0  0.00000000000E+00 -0.00000000000E+00 -0.86345434641E+02  0.86345434641E+02  0.00000000000E+00 0. -1.
         23    2    1    2    0    0 -0.14930929445E+02 -0.16526463252E+02 -0.55318060572E+02  0.10988755648E+03  0.92299136517E+02 0.  0.
         11    1    3    3    0    0 -0.25731033724E+02 -0.26042710774E+02  0.13921315157E+02  0.39167740510E+02  0.00000000000E+00 0.  1.
        -11    1    3    3    0    0  0.10800104280E+02  0.95162475222E+01 -0.69239375729E+02  0.70719815969E+02  0.00000000000E+00 0. -1.
         22    1    1    2    0    0  0.14930929445E+02  0.16526463252E+02  0.29392973489E+02  0.36878225719E+02  0.00000000000E+00 0.  1.
<mgrwt>
<rscale>  0 0.66078008E+02</rscale>
<asrwt>0</asrwt>
<pdfrwt beam="1">  1        1 0.13283913E-01 0.94948340E+02</pdfrwt>
<pdfrwt beam="2">  1       -1 0.92954382E-02 0.94948340E+02</pdfrwt>
<totfact> 0.26396250E+04</totfact>
</mgrwt>
</event>
<event>
 6    1  0.1535970E-002  0.9343229E+02  0.7546771E-02  0.1392407E+00
         -2   -1    0    0    0  501 -0.00000000000E+00  0.00000000000E+00  0.82246255436E+01  0.82246255436E+01  0.00000000000E+00 0. -1.
          2   -1    0    0  501    0  0.00000000000E+00 -0.00000000000E+00 -0.37401851337E+03  0.37401851337E+03  0.00000000000E+00 0.  1.
         23    2    1    2    0    0 -0.15118230966E+02 -0.84625205334E+01 -0.31585240184E+03  0.32938174294E+03  0.91811860211E+02 0.  0.
         11    1    3    3    0    0  0.14626546542E+01  0.40736970098E+02 -0.15990870876E+03  0.16502252946E+03  0.00000000000E+00 0.  1.
        -11    1    3    3    0    0 -0.16580885620E+02 -0.49199490631E+02 -0.15594369308E+03  0.16435921349E+03  0.00000000000E+00 0. -1.
         22    1    1    2    0    0  0.15118230966E+02  0.84625205334E+01 -0.49941485988E+02  0.52861395971E+02  0.00000000000E+00 0.  1.
<mgrwt>
<rscale>  0 0.61311874E+02</rscale>
<asrwt>0</asrwt>
<pdfrwt beam="1">  1        2 0.57541301E-01 0.93432290E+02</pdfrwt>
<pdfrwt beam="2">  1       -2 0.12653272E-02 0.93432290E+02</pdfrwt>
<totfact> 0.11220781E+05</totfact>
</mgrwt>
</event>
<event>
 6    1  0.1535970E-002  0.9960477E+02  0.7546771E-02  0.1333588E+00
         -1   -1    0    0    0  501 -0.00000000000E+00  0.00000000000E+00  0.31873392064E+02  0.31873392064E+02  0.00000000000E+00 0.  1.
          1   -1    0    0  501    0  0.00000000000E+00 -0.00000000000E+00 -0.26840113759E+03  0.26840113759E+03  0.00000000000E+00 0. -1.
         23    2    1    2    0    0 -0.22248883882E+02  0.31145683710E+02 -0.24191789849E+03  0.26162067866E+03  0.91956747679E+02 0.  0.
         11    1    3    3    0    0 -0.16590265742E+02 -0.26601207125E+02 -0.14753158137E+03  0.15082582219E+03  0.00000000000E+00 0. -1.
        -11    1    3    3    0    0 -0.56586181397E+01  0.57746890834E+02 -0.94386317127E+02  0.11079485647E+03  0.00000000000E+00 0.  1.
         22    1    1    2    0    0  0.22248883882E+02 -0.31145683710E+02  0.53901529653E+01  0.38653850995E+02  0.00000000000E+00 0.  1.
<mgrwt>
<rscale>  0 0.78422785E+02</rscale>
<asrwt>0</asrwt>
<pdfrwt beam="1">  1        1 0.41292485E-01 0.99604768E+02</pdfrwt>
<pdfrwt beam="2">  1       -1 0.49035985E-02 0.99604768E+02</pdfrwt>
<totfact> 0.16615714E+04</totfact>
</mgrwt>
</event>
<event>
 6    1  0.1535970E-002  0.1038996E+03  0.7546771E-02  0.1313251E+00
          2   -1    0    0  501    0  0.00000000000E+00  0.00000000000E+00  0.95511572386E+01  0.95511572386E+01  0.00000000000E+00 0. -1.
         -2   -1    0    0    0  501 -0.00000000000E+00 -0.00000000000E+00 -0.64403252400E+03  0.64403252400E+03  0.00000000000E+00 0.  1.
         23    2    1    2    0    0 -0.44714967753E+02 -0.18543419184E+02 -0.35310569213E+03  0.36807438715E+03  0.91933878009E+02 0.  0.
         11    1    3    3    0    0  0.84634217046E+01 -0.25051603995E+02 -0.25436312080E+03  0.25573386477E+03  0.00000000000E+00 0. -1.
        -11    1    3    3    0    0 -0.53178389458E+02  0.65081848111E+01 -0.98742571330E+02  0.11234052238E+03  0.00000000000E+00 0.  1.
         22    1    1    2    0    0  0.44714967753E+02  0.18543419184E+02 -0.28137567463E+03  0.28550929409E+03  0.00000000000E+00 0. -1.
<mgrwt>
<rscale>  0 0.85839771E+02</rscale>
<asrwt>0</asrwt>
<pdfrwt beam="1">  1        2 0.14694083E-02 0.10389959E+03</pdfrwt>
<pdfrwt beam="2">  1       -2 0.99081961E-01 0.10389959E+03</pdfrwt>
<totfact> 0.67347634E+03</totfact>
</mgrwt>
</event>
<event>
 6    1  0.1535970E-002  0.1014682E+03  0.7546771E-02  0.1321213E+00
         -2   -1    0    0    0  501 -0.00000000000E+00  0.00000000000E+00  0.95905365405E+01  0.95905365405E+01  0.00000000000E+00 0.  1.
          2   -1    0    0  501    0  0.00000000000E+00 -0.00000000000E+00 -0.55996267740E+03  0.55996267740E+03  0.00000000000E+00 0. -1.
         23    2    1    2    0    0  0.10679356993E+02  0.43768221010E+02 -0.38757313646E+03  0.40063541835E+03  0.90918075701E+02 0.  0.
         13    1    3    3    0    0  0.33625938090E+02 -0.15137633377E+02 -0.17589557122E+03  0.17971951377E+03  0.00000000000E+00 0. -1.
        -13    1    3    3    0    0 -0.22946581097E+02  0.58905854387E+02 -0.21167756525E+03  0.22091590458E+03  0.00000000000E+00 0.  1.
         22    1    1    2    0    0 -0.10679356993E+02 -0.43768221010E+02 -0.16279900440E+03  0.16891779560E+03  0.00000000000E+00 0.  1.
<mgrwt>
<rscale>  0 0.82827912E+02</rscale>
<asrwt>0</asrwt>
<pdfrwt beam="1">  1        2 0.86148118E-01 0.10146823E+03</pdfrwt>
<pdfrwt beam="2">  1       -2 0.14754669E-02 0.10146823E+03</pdfrwt>
<totfact> 0.59111152E+04</totfact>
</mgrwt>
</event>
<event>
 6    1  0.1535970E-002  0.9081834E+02  0.7546771E-02  0.1423434E+00
          2   -1    0    0  501    0  0.00000000000E+00  0.00000000000E+00  0.24680878722E+03  0.24680878722E+03  0.00000000000E+00 0. -1.
         -2   -1    0    0    0  501 -0.00000000000E+00 -0.00000000000E+00 -0.11480687533E+02  0.11480687533E+02  0.00000000000E+00 0.  1.
         23    2    1    2    0    0  0.10708852282E+02 -0.44763337400E+01  0.22542636828E+03  0.24303295596E+03  0.90073598143E+02 0.  0.
         13    1    3    3    0    0  0.16285281689E+02  0.38031643209E+02  0.65599037771E+02  0.77555464291E+02  0.00000000000E+00 0. -1.
        -13    1    3    3    0    0 -0.55764294075E+01 -0.42507976949E+02  0.15982733051E+03  0.16547749167E+03  0.00000000000E+00 0.  1.
         22    1    1    2    0    0 -0.10708852282E+02  0.44763337400E+01  0.99017313998E+01  0.15256518792E+02  0.00000000000E+00 0.  1.
<mgrwt>
<rscale>  0 0.54301020E+02</rscale>
<asrwt>0</asrwt>
<pdfrwt beam="1">  1        2 0.37970579E-01 0.90818336E+02</pdfrwt>
<pdfrwt beam="2">  1       -2 0.17662598E-02 0.90818336E+02</pdfrwt>
<totfact> 0.10728049E+05</totfact>
</mgrwt>
</event>
<event>
 6    1  0.1535970E-002  0.9257196E+02  0.7546771E-02  0.1400180E+00
          1   -1    0    0  501    0  0.00000000000E+00  0.00000000000E+00  0.25028004623E+02  0.25028004623E+02  0.00000000000E+00 0. -1.
         -1   -1    0    0    0  501 -0.00000000000E+00 -0.00000000000E+00 -0.11736482576E+03  0.11736482576E+03  0.00000000000E+00 0.  1.
         23    2    1    2    0    0 -0.11399431143E+02  0.10852900548E+02 -0.76888401888E+02  0.12033866665E+03  0.91224096957E+02 0.  0.
         13    1    3    3    0    0  0.12149531878E+02 -0.27985118327E+02 -0.67336441522E+02  0.73925464689E+02  0.00000000000E+00 0.  1.
        -13    1    3    3    0    0 -0.23548963021E+02  0.38838018875E+02 -0.95519603658E+01  0.46413201962E+02  0.00000000000E+00 0. -1.
         22    1    1    2    0    0  0.11399431143E+02 -0.10852900548E+02 -0.15448419252E+02  0.22054163736E+02  0.00000000000E+00 0. -1.
<mgrwt>
<rscale>  0 0.59443925E+02</rscale>
<asrwt>0</asrwt>
<pdfrwt beam="1">  1        1 0.38504623E-02 0.92571963E+02</pdfrwt>
<pdfrwt beam="2">  1       -1 0.18056127E-01 0.92571963E+02</pdfrwt>
<totfact> 0.49267399E+04</totfact>
</mgrwt>
</event>
<event>
 6    1  0.1535970E-002  0.9165577E+02  0.7546771E-02  0.1399102E+00
          3   -1    0    0  501    0  0.00000000000E+00  0.00000000000E+00  0.16813755167E+02  0.16813755167E+02  0.00000000000E+00 0. -1.
         -3   -1    0    0    0  501 -0.00000000000E+00 -0.00000000000E+00 -0.21481779618E+03  0.21481779618E+03  0.00000000000E+00 0.  1.
         23    2    1    2    0    0  0.14144005303E+02  0.84884514694E+01 -0.11526611019E+03  0.14726525541E+03  0.90159151486E+02 0.  0.
         13    1    3    3    0    0  0.27923410549E+02 -0.24619583855E+02 -0.10274495580E+03  0.10928113610E+03  0.00000000000E+00 0.  1.
        -13    1    3    3    0    0 -0.13779405246E+02  0.33108035325E+02 -0.12521154397E+02  0.37984119306E+02  0.00000000000E+00 0. -1.
         22    1    1    2    0    0 -0.14144005303E+02 -0.84884514694E+01 -0.82737930815E+02  0.84366295935E+02  0.00000000000E+00 0.  1.
<mgrwt>
<rscale>  0 0.59698338E+02</rscale>
<asrwt>0</asrwt>
<pdfrwt beam="1">  1        3 0.25867315E-02 0.91655765E+02</pdfrwt>
<pdfrwt beam="2">  1       -3 0.33048892E-01 0.91655765E+02</pdfrwt>
<totfact> 0.11862333E+04</totfact>
</mgrwt>
</event>
<event>
 6    1  0.1535970E-002  0.9347866E+02  0.7546771E-02  0.1425044E+00
          2   -1    0    0  501    0  0.00000000000E+00  0.00000000000E+00  0.58984784382E+02  0.58984784382E+02  0.00000000000E+00 0. -1.
         -2   -1    0    0    0  501 -0.00000000000E+00 -0.00000000000E+00 -0.47313711674E+02  0.47313711674E+02  0.00000000000E+00 0.  1.
         23    2    1    2    0    0  0.58126244483E+01  0.86057365363E+01  0.16367993087E+02  0.94900848695E+02  0.92900024656E+02 0.  0.
         11    1    3    3    0    0  0.11857770951E+02 -0.37372009612E+02 -0.11422225235E+02  0.40837985549E+02  0.00000000000E+00 0.  1.
        -11    1    3    3    0    0 -0.60451465028E+01  0.45977746149E+02  0.27790218322E+02  0.54062863146E+02  0.00000000000E+00 0. -1.
         22    1    1    2    0    0 -0.58126244483E+01 -0.86057365363E+01 -0.46969203795E+01  0.11397647361E+02  0.00000000000E+00 0.  1.
<mgrwt>
<rscale>  0 0.53967775E+02</rscale>
<asrwt>0</asrwt>
<pdfrwt beam="1">  1        2 0.90745822E-02 0.93478660E+02</pdfrwt>
<pdfrwt beam="2">  1       -2 0.72790326E-02 0.93478660E+02</pdfrwt>
<totfact> 0.68005221E+04</totfact>
</mgrwt>
</event>
<event>
 6    1  0.1535970E-002  0.9470894E+02  0.7546771E-02  0.1404781E+00
         -2   -1    0    0    0  501 -0.00000000000E+00  0.00000000000E+00  0.21528462624E+02  0.21528462624E+02  0.00000000000E+00 0.  1.
          2   -1    0    0  501    0  0.00000000000E+00 -0.00000000000E+00 -0.14224368379E+03  0.14224368379E+03  0.00000000000E+00 0. -1.
         23    2    1    2    0    0 -0.81573318155E+01 -0.10967967141E+02 -0.11494121590E+03  0.14893376704E+03  0.93717370254E+02 0.  0.
         11    1    3    3    0    0 -0.37678144663E+02 -0.37463714004E+02 -0.80198464820E+02  0.96202734949E+02  0.00000000000E+00 0. -1.
        -11    1    3    3    0    0  0.29520812848E+02  0.26495746863E+02 -0.34742751082E+02  0.52731032095E+02  0.00000000000E+00 0.  1.
         22    1    1    2    0    0  0.81573318155E+01  0.10967967141E+02 -0.57740052640E+01  0.14838379370E+02  0.00000000000E+00 0. -1.
<mgrwt>
<rscale>  0 0.58374947E+02</rscale>
<asrwt>0</asrwt>
<pdfrwt beam="1">  1        2 0.21883643E-01 0.94708943E+02</pdfrwt>
<pdfrwt beam="2">  1       -2 0.33120712E-02 0.94708943E+02</pdfrwt>
<totfact> 0.78721260E+04</totfact>
</mgrwt>
</event>
<event>
 6    1  0.1535970E-002  0.9261010E+02  0.7546771E-02  0.1387198E+00
         -2   -1    0    0    0  501 -0.00000000000E+00  0.00000000000E+00  0.67267745392E+01  0.67267745392E+01  0.00000000000E+00 0.  1.
          2   -1    0    0  501    0  0.00000000000E+00 -0.00000000000E+00 -0.55830364618E+03  0.55830364618E+03  0.00000000000E+00 0. -1.
         23    2    1    2    0    0  0.19274719744E+02 -0.16500996178E+01 -0.51855031594E+03  0.52675521946E+03  0.90567065851E+02 0.  0.
         13    1    3    3    0    0 -0.12338434155E+02 -0.30291269732E+01 -0.46021474031E+03  0.46039007348E+03  0.00000000000E+00 0. -1.
        -13    1    3    3    0    0  0.31613153899E+02  0.13790273553E+01 -0.58335575635E+02  0.66365145977E+02  0.00000000000E+00 0.  1.
         22    1    1    2    0    0 -0.19274719744E+02  0.16500996178E+01 -0.33026555698E+02  0.38275201257E+02  0.00000000000E+00 0.  1.
<mgrwt>
<rscale>  0 0.62609064E+02</rscale>
<asrwt>0</asrwt>
<pdfrwt beam="1">  1        2 0.85892877E-01 0.92610102E+02</pdfrwt>
<pdfrwt beam="2">  1       -2 0.10348883E-02 0.92610102E+02</pdfrwt>
<totfact> 0.97083498E+04</totfact>
</mgrwt>
</event>
<event>
 6    1  0.1535970E-002  0.9291387E+02  0.7546771E-02  0.1382862E+00
          1   -1    0    0  501    0  0.00000000000E+00  0.00000000000E+00  0.17389276084E+02  0.17389276084E+02  0.00000000000E+00 0. -1.
         -1   -1    0    0    0  501 -0.00000000000E+00 -0.00000000000E+00 -0.18988588216E+03  0.18988588216E+03  0.00000000000E+00 0.  1.
         23    2    1    2    0    0 -0.17220697087E+01 -0.20476779294E+02 -0.15266939526E+03  0.17872025844E+03  0.90613037205E+02 0.  0.
         13    1    3    3    0    0 -0.41491563394E+02 -0.12249966209E+02 -0.39867645623E+02  0.58830609996E+02  0.00000000000E+00 0. -1.
        -13    1    3    3    0    0  0.39769493685E+02 -0.82268130843E+01 -0.11280174964E+03  0.11988964844E+03  0.00000000000E+00 0.  1.
         22    1    1    2    0    0  0.17220697087E+01  0.20476779294E+02 -0.19827210814E+02  0.28554899807E+02  0.00000000000E+00 0.  1.
<mgrwt>
<rscale>  0 0.63717453E+02</rscale>
<asrwt>0</asrwt>
<pdfrwt beam="1">  1        1 0.26752732E-02 0.92913866E+02</pdfrwt>
<pdfrwt beam="2">  1       -1 0.29213213E-01 0.92913866E+02</pdfrwt>
<totfact> 0.37332389E+04</totfact>
</mgrwt>
</event>
<event>
 6    1  0.1535970E-002  0.9444804E+02  0.7546771E-02  0.1359038E+00
         -2   -1    0    0    0  501 -0.00000000000E+00  0.00000000000E+00  0.11079826583E+02  0.11079826583E+02  0.00000000000E+00 0.  1.
          2   -1    0    0  501    0  0.00000000000E+00 -0.00000000000E+00 -0.78925607365E+03  0.78925607365E+03  0.00000000000E+00 0. -1.
         23    2    1    2    0    0  0.28934885599E+02  0.20611749965E+01 -0.76055081327E+03  0.76639283078E+03  0.89883009892E+02 0.  0.
         13    1    3    3    0    0  0.48448888490E+02  0.15247435825E+02 -0.24029865408E+03  0.24560786275E+03  0.00000000000E+00 0.  1.
        -13    1    3    3    0    0 -0.19514002891E+02 -0.13186260828E+02 -0.52025215919E+03  0.52078496803E+03  0.00000000000E+00 0. -1.
         22    1    1    2    0    0 -0.28934885599E+02 -0.20611749965E+01 -0.17625433799E+02  0.33943069449E+02  0.00000000000E+00 0. -1.
<mgrwt>
<rscale>  0 0.70311266E+02</rscale>
<asrwt>0</asrwt>
<pdfrwt beam="1">  1        2 0.12142401E+00 0.94448036E+02</pdfrwt>
<pdfrwt beam="2">  1       -2 0.17045887E-02 0.94448036E+02</pdfrwt>
<totfact> 0.32071504E+04</totfact>
</mgrwt>
</event>
<event>
 6    1  0.1535970E-002  0.9350767E+02  0.7546771E-02  0.1405410E+00
          2   -1    0    0  501    0  0.00000000000E+00  0.00000000000E+00  0.36863587110E+02  0.36863587110E+02  0.00000000000E+00 0. -1.
         -2   -1    0    0    0  501 -0.00000000000E+00 -0.00000000000E+00 -0.78610300859E+02  0.78610300859E+02  0.00000000000E+00 0.  1.
         23    2    1    2    0    0  0.28606336419E+01  0.13768685104E+02 -0.37882830364E+02  0.10089000957E+03  0.92444173859E+02 0.  0.
         13    1    3    3    0    0 -0.24265192780E+02  0.17607281548E+02  0.20554393927E+02  0.36349677493E+02  0.00000000000E+00 0. -1.
        -13    1    3    3    0    0  0.27125826422E+02 -0.38385964434E+01 -0.58437224292E+02  0.64540332077E+02  0.00000000000E+00 0.  1.
         22    1    1    2    0    0 -0.28606336419E+01 -0.13768685104E+02 -0.38638833845E+01  0.14583878399E+02  0.00000000000E+00 0.  1.
<mgrwt>
<rscale>  0 0.58230796E+02</rscale>
<asrwt>0</asrwt>
<pdfrwt beam="1">  1        2 0.56713211E-02 0.93507675E+02</pdfrwt>
<pdfrwt beam="2">  1       -2 0.12093892E-01 0.93507675E+02</pdfrwt>
<totfact> 0.55823951E+04</totfact>
</mgrwt>
</event>
<event>
 6    1  0.1535970E-002  0.9616208E+02  0.7546771E-02  0.1381472E+00
          2   -1    0    0  501    0  0.00000000000E+00  0.00000000000E+00  0.27081813370E+03  0.27081813370E+03  0.00000000000E+00 0. -1.
         -2   -1    0    0    0  501 -0.00000000000E+00 -0.00000000000E+00 -0.18538126614E+02  0.18538126614E+02  0.00000000000E+00 0.  1.
         23    2    1    2    0    0  0.94341843147E+01 -0.16445976185E+02  0.25271409444E+03  0.27039149303E+03  0.94274450458E+02 0.  0.
         13    1    3    3    0    0  0.14615143794E+02  0.32902560082E+02  0.49505795029E+02  0.61212781586E+02  0.00000000000E+00 0.  1.
        -13    1    3    3    0    0 -0.51809594791E+01 -0.49348536267E+02  0.20320829941E+03  0.20917871145E+03  0.00000000000E+00 0. -1.
         22    1    1    2    0    0 -0.94341843147E+01  0.16445976185E+02 -0.43408735095E+00  0.18964767286E+02  0.00000000000E+00 0.  1.
<mgrwt>
<rscale>  0 0.64078350E+02</rscale>
<asrwt>0</asrwt>
<pdfrwt beam="1">  1        2 0.41664325E-01 0.96162082E+02</pdfrwt>
<pdfrwt beam="2">  1       -2 0.28520197E-02 0.96162082E+02</pdfrwt>
<totfact> 0.49150639E+04</totfact>
</mgrwt>
</event>
<event>
 6    1  0.1535970E-002  0.9342291E+02  0.7546771E-02  0.1384842E+00
          1   -1    0    0  501    0  0.00000000000E+00  0.00000000000E+00  0.25674646427E+03  0.25674646427E+03  0.00000000000E+00 0. -1.
         -1   -1    0    0    0  501 -0.00000000000E+00 -0.00000000000E+00 -0.17870907722E+02  0.17870907722E+02  0.00000000000E+00 0.  1.
         23    2    1    2    0    0 -0.16729383094E+01  0.19504698770E+02  0.23724115630E+03  0.25497295139E+03  0.91348824302E+02 0.  0.
         11    1    3    3    0    0  0.91766419991E+01 -0.34505239521E+02  0.12408025370E+03  0.12911518761E+03  0.00000000000E+00 0. -1.
        -11    1    3    3    0    0 -0.10849580308E+02  0.54009938290E+02  0.11316090260E+03  0.12585776378E+03  0.00000000000E+00 0.  1.
         22    1    1    2    0    0  0.16729383094E+01 -0.19504698770E+02  0.16344002507E+01  0.19644420604E+02  0.00000000000E+00 0. -1.
<mgrwt>
<rscale>  0 0.63208103E+02</rscale>
<asrwt>0</asrwt>
<pdfrwt beam="1">  1        1 0.39499453E-01 0.93422908E+02</pdfrwt>
<pdfrwt beam="2">  1       -1 0.27493706E-02 0.93422908E+02</pdfrwt>
<totfact> 0.40331511E+04</totfact>
</mgrwt>
</event>
<event>
 6    1  0.1535970E-002  0.9112608E+02  0.7546771E-02  0.1429953E+00
         -2   -1    0    0    0  501 -0.00000000000E+00  0.00000000000E+00  0.80000361450E+02  0.80000361450E+02  0.00000000000E+00 0. -1.
          2   -1    0    0  501    0  0.00000000000E+00 -0.00000000000E+00 -0.32244996421E+02  0.32244996421E+02  0.00000000000E+00 0.  1.
         23    2    1    2    0    0  0.10358173344E+02  0.96830618063E+00  0.41770856407E+02  0.10024353654E+03  0.90530286649E+02 0.  0.
         13    1    3    3    0    0 -0.17271567063E+02 -0.29938987177E+02 -0.79910160284E+01  0.35475432614E+02  0.00000000000E+00 0.  1.
        -13    1    3    3    0    0  0.27629740406E+02  0.30907293357E+02  0.49761872435E+02  0.64768103924E+02  0.00000000000E+00 0. -1.
         22    1    1    2    0    0 -0.10358173344E+02 -0.96830618063E+00  0.59845086216E+01  0.12001821333E+02  0.00000000000E+00 0.  1.
<mgrwt>
<rscale>  0 0.52969412E+02</rscale>
<asrwt>0</asrwt>
<pdfrwt beam="1">  1        2 0.49607687E-02 0.91126078E+02</pdfrwt>
<pdfrwt beam="2">  1       -2 0.12307748E-01 0.91126078E+02</pdfrwt>
<totfact> 0.64241964E+04</totfact>
</mgrwt>
</event>
<event>
 6    1  0.1535970E-002  0.1006540E+03  0.7546771E-02  0.1331693E+00
          2   -1    0    0  501    0  0.00000000000E+00  0.00000000000E+00  0.14595177169E+02  0.14595177169E+02  0.00000000000E+00 0. -1.
         -2   -1    0    0    0  501 -0.00000000000E+00 -0.00000000000E+00 -0.38631447188E+03  0.38631447188E+03  0.00000000000E+00 0.  1.
         23    2    1    2    0    0 -0.33214565361E+02 -0.19158397793E+02 -0.32628710497E+03  0.34145937215E+03  0.93064367004E+02 0.  0.
         13    1    3    3    0    0 -0.60353122859E+02 -0.20567415734E+02 -0.14853665295E+03  0.16164360581E+03  0.00000000000E+00 0. -1.
        -13    1    3    3    0    0  0.27138557498E+02  0.14090179408E+01 -0.17775045202E+03  0.17981576635E+03  0.00000000000E+00 0.  1.
         22    1    1    2    0    0  0.33214565361E+02  0.19158397793E+02 -0.45432189745E+02  0.59450276896E+02  0.00000000000E+00 0.  1.
<mgrwt>
<rscale>  0 0.79076464E+02</rscale>
<asrwt>0</asrwt>
<pdfrwt beam="1">  1        2 0.22454119E-02 0.10065400E+03</pdfrwt>
<pdfrwt beam="2">  1       -2 0.59432994E-01 0.10065400E+03</pdfrwt>
<totfact> 0.11370079E+04</totfact>
</mgrwt>
</event>
<event>
 6    1  0.1535970E-002  0.9475238E+02  0.7546771E-02  0.1357520E+00
          2   -1    0    0  501    0  0.00000000000E+00  0.00000000000E+00  0.14975613972E+03  0.14975613972E+03  0.00000000000E+00 0. -1.
         -2   -1    0    0    0  501 -0.00000000000E+00 -0.00000000000E+00 -0.26236574424E+02  0.26236574424E+02  0.00000000000E+00 0.  1.
         23    2    1    2    0    0 -0.25886845990E+02  0.14091762549E+02  0.10372892820E+03  0.14049094118E+03  0.90051693160E+02 0.  0.
         13    1    3    3    0    0  0.24683628260E+02 -0.16311846993E+02  0.13125429176E+02  0.32367186276E+02  0.00000000000E+00 0. -1.
        -13    1    3    3    0    0 -0.50570474250E+02  0.30403609542E+02  0.90603499024E+02  0.10812375490E+03  0.00000000000E+00 0.  1.
         22    1    1    2    0    0  0.25886845990E+02 -0.14091762549E+02  0.19790637098E+02  0.35501772967E+02  0.00000000000E+00 0. -1.
<mgrwt>
<rscale>  0 0.70762268E+02</rscale>
<asrwt>0</asrwt>
<pdfrwt beam="1">  1        2 0.23039406E-01 0.94752383E+02</pdfrwt>
<pdfrwt beam="2">  1       -2 0.40363962E-02 0.94752383E+02</pdfrwt>
<totfact> 0.55652977E+04</totfact>
</mgrwt>
</event>
<event>
 6    1  0.1535970E-002  0.8954787E+02  0.7546771E-02  0.1432137E+00
         -2   -1    0    0    0  501 -0.00000000000E+00  0.00000000000E+00  0.10853113304E+03  0.10853113304E+03  0.00000000000E+00 0.  1.
          2   -1    0    0  501    0  0.00000000000E+00 -0.00000000000E+00 -0.26717783287E+02  0.26717783287E+02  0.00000000000E+00 0. -1.
         23    2    1    2    0    0  0.55455399379E+01 -0.90413496111E+01  0.51877491750E+02  0.10348959312E+03  0.88917505129E+02 0.  0.
         11    1    3    3    0    0 -0.22236541853E+02  0.23706547399E+02  0.51071256344E+02  0.60537074654E+02  0.00000000000E+00 0.  1.
        -11    1    3    3    0    0  0.27782081791E+02 -0.32747897010E+02  0.80623540643E+00  0.42952518468E+02  0.00000000000E+00 0. -1.
         22    1    1    2    0    0 -0.55455399379E+01  0.90413496111E+01  0.29935858007E+02  0.31759323208E+02  0.00000000000E+00 0.  1.
<mgrwt>
<rscale>  0 0.52533344E+02</rscale>
<asrwt>0</asrwt>
<pdfrwt beam="1">  1        2 0.41104283E-02 0.89547874E+02</pdfrwt>
<pdfrwt beam="2">  1       -2 0.16697097E-01 0.89547874E+02</pdfrwt>
<totfact> 0.50051576E+04</totfact>
</mgrwt>
</event>
<event>
 6    1  0.1535970E-002  0.1054605E+03  0.7546771E-02  0.1306835E+00
         -2   -1    0    0    0  501 -0.00000000000E+00  0.00000000000E+00  0.28482275618E+02  0.28482275618E+02  0.00000000000E+00 0.  1.
          2   -1    0    0  501    0  0.00000000000E+00 -0.00000000000E+00 -0.36074853952E+03  0.36074853952E+03  0.00000000000E+00 0. -1.
         23    2    1    2    0    0 -0.92906688591E+01 -0.51169422612E+02 -0.31839574936E+03  0.33540686590E+03  0.91745769054E+02 0.  0.
         11    1    3    3    0    0  0.11212777865E+01 -0.60680936283E+02 -0.31514345349E+03  0.32093430725E+03  0.00000000000E+00 0. -1.
        -11    1    3    3    0    0 -0.10411946646E+02  0.95115136706E+01 -0.32522958696E+01  0.14472558643E+02  0.00000000000E+00 0.  1.
         22    1    1    2    0    0  0.92906688591E+01  0.51169422612E+02 -0.13870514537E+02  0.53823949241E+02  0.00000000000E+00 0. -1.
<mgrwt>
<rscale>  0 0.88375261E+02</rscale>
<asrwt>0</asrwt>
<pdfrwt beam="1">  1        2 0.55499776E-01 0.10546048E+03</pdfrwt>
<pdfrwt beam="2">  1       -2 0.43818885E-02 0.10546048E+03</pdfrwt>
<totfact> 0.19574995E+04</totfact>
</mgrwt>
</event>
<event>
 6    1  0.1535970E-002  0.9733157E+02  0.7546771E-02  0.1340103E+00
         -1   -1    0    0    0  501 -0.00000000000E+00  0.00000000000E+00  0.80031041578E+01  0.80031041578E+01  0.00000000000E+00 0.  1.
          1   -1    0    0  501    0  0.00000000000E+00 -0.00000000000E+00 -0.78561100565E+03  0.78561100565E+03  0.00000000000E+00 0. -1.
         23    2    1    2    0    0  0.21515410754E+02 -0.29636410526E+02 -0.71074460932E+03  0.71737809753E+03  0.90178741403E+02 0.  0.
         11    1    3    3    0    0  0.37330120789E+01 -0.40519266264E+02 -0.67323831881E+03  0.67446688594E+03  0.00000000000E+00 0. -1.
        -11    1    3    3    0    0  0.17782398675E+02  0.10882855738E+02 -0.37506290511E+02  0.42911211584E+02  0.00000000000E+00 0.  1.
         22    1    1    2    0    0 -0.21515410754E+02  0.29636410526E+02 -0.66863292168E+02  0.76236012280E+02  0.00000000000E+00 0.  1.
<mgrwt>
<rscale>  0 0.76230401E+02</rscale>
<asrwt>0</asrwt>
<pdfrwt beam="1">  1        1 0.12086322E+00 0.97331573E+02</pdfrwt>
<pdfrwt beam="2">  1       -1 0.12312469E-02 0.97331573E+02</pdfrwt>
<totfact> 0.30085225E+04</totfact>
</mgrwt>
</event>
<event>
 6    1  0.1535970E-002  0.8935028E+02  0.7546771E-02  0.1383684E+00
         -2   -1    0    0    0  501 -0.00000000000E+00  0.00000000000E+00  0.20268422118E+02  0.20268422118E+02  0.00000000000E+00 0.  1.
          2   -1    0    0  501    0  0.00000000000E+00 -0.00000000000E+00 -0.16444688356E+03  0.16444688356E+03  0.00000000000E+00 0. -1.
         23    2    1    2    0    0  0.13331586300E+02 -0.18497412301E+02 -0.13039919394E+03  0.15807410323E+03  0.86392053315E+02 0.  0.
         11    1    3    3    0    0  0.32989269388E+02 -0.31713911647E+02 -0.12590606150E+03  0.13396417584E+03  0.00000000000E+00 0. -1.
        -11    1    3    3    0    0 -0.19657683087E+02  0.13216499346E+02 -0.44931324374E+01  0.24109927383E+02  0.00000000000E+00 0.  1.
         22    1    1    2    0    0 -0.13331586300E+02  0.18497412301E+02 -0.13779267501E+02  0.26641202450E+02  0.00000000000E+00 0.  1.
<mgrwt>
<rscale>  0 0.63505362E+02</rscale>
<asrwt>0</asrwt>
<pdfrwt beam="1">  1        2 0.25299520E-01 0.89350279E+02</pdfrwt>
<pdfrwt beam="2">  1       -2 0.31182188E-02 0.89350279E+02</pdfrwt>
<totfact> 0.72695987E+04</totfact>
</mgrwt>
</event>
<event>
 6    1  0.1535970E-002  0.9441926E+02  0.7546771E-02  0.1374738E+00
         -2   -1    0    0    0  501 -0.00000000000E+00  0.00000000000E+00  0.30358062785E+02  0.30358062785E+02  0.00000000000E+00 0.  1.
          2   -1    0    0  501    0  0.00000000000E+00 -0.00000000000E+00 -0.11621341847E+03  0.11621341847E+03  0.00000000000E+00 0. -1.
         23    2    1    2    0    0  0.21732121873E+02  0.52675715580E+01 -0.79207146554E+02  0.12324271969E+03  0.91733109952E+02 0.  0.
         11    1    3    3    0    0  0.15286582021E+02  0.39103996749E+02 -0.60987823865E+01  0.42426375030E+02  0.00000000000E+00 0.  1.
        -11    1    3    3    0    0  0.64455398522E+01 -0.33836425191E+02 -0.73108364168E+02  0.80816344665E+02  0.00000000000E+00 0. -1.
         22    1    1    2    0    0 -0.21732121873E+02 -0.52675715580E+01 -0.66482091288E+01  0.23328761558E+02  0.00000000000E+00 0.  1.
<mgrwt>
<rscale>  0 0.65867352E+02</rscale>
<asrwt>0</asrwt>
<pdfrwt beam="1">  1        2 0.17878987E-01 0.94419256E+02</pdfrwt>
<pdfrwt beam="2">  1       -2 0.46704712E-02 0.94419256E+02</pdfrwt>
<totfact> 0.59514084E+04</totfact>
</mgrwt>
</event>
<event>
 6    1  0.1535970E-002  0.9134146E+02  0.7546771E-02  0.1355347E+00
          2   -1    0    0  501    0  0.00000000000E+00  0.00000000000E+00  0.18218191035E+04  0.18218191035E+04  0.00000000000E+00 0. -1.
         -2   -1    0    0    0  501 -0.00000000000E+00 -0.00000000000E+00 -0.49241835003E+01  0.49241835003E+01  0.00000000000E+00 0.  1.
         23    2    1    2    0    0 -0.33021254665E+02 -0.86327885963E+01  0.17425023253E+04  0.17448947290E+04  0.84725045608E+02 0.  0.
         13    1    3    3    0    0 -0.12609666149E+02 -0.39210282913E+02  0.45304906221E+03  0.45491746805E+03  0.00000000000E+00 0.  1.
        -13    1    3    3    0    0 -0.20411588516E+02  0.30577494316E+02  0.12894532631E+04  0.12899772610E+04  0.00000000000E+00 0. -1.
         22    1    1    2    0    0  0.33021254665E+02  0.86327885963E+01  0.74392594681E+02  0.81848557971E+02  0.00000000000E+00 0.  1.
<mgrwt>
<rscale>  0 0.71414820E+02</rscale>
<asrwt>0</asrwt>
<pdfrwt beam="1">  1        2 0.28027933E+00 0.91341456E+02</pdfrwt>
<pdfrwt beam="2">  1       -2 0.75756814E-03 0.91341456E+02</pdfrwt>
<totfact> 0.27589707E+04</totfact>
</mgrwt>
</event>
<event>
 6    1  0.1535970E-002  0.9269821E+02  0.7546771E-02  0.1391388E+00
         -2   -1    0    0    0  501 -0.00000000000E+00  0.00000000000E+00  0.46589698221E+02  0.46589698221E+02  0.00000000000E+00 0. -1.
          2   -1    0    0  501    0  0.00000000000E+00 -0.00000000000E+00 -0.20640948690E+03  0.20640948690E+03  0.00000000000E+00 0.  1.
         23    2    1    2    0    0  0.80156714728E+01  0.16153075480E+02 -0.19363298386E+03  0.21467810730E+03  0.90927358259E+02 0.  0.
         11    1    3    3    0    0 -0.16971775483E+02 -0.32754707151E+02 -0.63639019156E+02  0.73558390159E+02  0.00000000000E+00 0. -1.
        -11    1    3    3    0    0  0.24987446956E+02  0.48907782632E+02 -0.12999396471E+03  0.14111971715E+03  0.00000000000E+00 0.  1.
         22    1    1    2    0    0 -0.80156714728E+01 -0.16153075480E+02  0.33813195182E+02  0.38321077817E+02  0.00000000000E+00 0. -1.
<mgrwt>
<rscale>  0 0.61562717E+02</rscale>
<asrwt>0</asrwt>
<pdfrwt beam="1">  1        2 0.31755305E-01 0.92698206E+02</pdfrwt>
<pdfrwt beam="2">  1       -2 0.71676459E-02 0.92698206E+02</pdfrwt>
<totfact> 0.16642439E+04</totfact>
</mgrwt>
</event>
<event>
 6    1  0.1535970E-002  0.9940593E+02  0.7546771E-02  0.1332960E+00
         -2   -1    0    0    0  501 -0.00000000000E+00  0.00000000000E+00  0.16566325974E+03  0.16566325974E+03  0.00000000000E+00 0.  1.
          2   -1    0    0  501    0  0.00000000000E+00 -0.00000000000E+00 -0.36775382846E+02  0.36775382846E+02  0.00000000000E+00 0. -1.
         23    2    1    2    0    0  0.31274757918E+01 -0.38805885430E+02  0.43329015120E+02  0.10843866026E+03  0.91465084264E+02 0.  0.
         11    1    3    3    0    0 -0.26653422696E+02 -0.14817529759E+02 -0.18552105531E+02  0.35695164227E+02  0.00000000000E+00 0. -1.
        -11    1    3    3    0    0  0.29780898487E+02 -0.23988355671E+02  0.61881120651E+02  0.72743496036E+02  0.00000000000E+00 0.  1.
         22    1    1    2    0    0 -0.31274757918E+01  0.38805885430E+02  0.85558861778E+02  0.93999982327E+02  0.00000000000E+00 0. -1.
<mgrwt>
<rscale>  0 0.78638477E+02</rscale>
<asrwt>0</asrwt>
<pdfrwt beam="1">  1        2 0.56577513E-02 0.99405933E+02</pdfrwt>
<pdfrwt beam="2">  1       -2 0.25486655E-01 0.99405933E+02</pdfrwt>
<totfact> 0.16446502E+04</totfact>
</mgrwt>
</event>
<event>
 6    1  0.1535970E-002  0.9351956E+02  0.7546771E-02  0.1379774E+00
         -2   -1    0    0    0  501 -0.00000000000E+00  0.00000000000E+00  0.12496687203E+02  0.12496687203E+02  0.00000000000E+00 0. -1.
          2   -1    0    0  501    0  0.00000000000E+00 -0.00000000000E+00 -0.40633255030E+03  0.40633255030E+03  0.00000000000E+00 0.  1.
         23    2    1    2    0    0  0.12805093880E+02 -0.16884861801E+02 -0.38443471999E+03  0.39564625928E+03  0.91086988991E+02 0.  0.
         13    1    3    3    0    0 -0.54319872681E+01 -0.39983687492E+02 -0.78164662113E+02  0.87965425904E+02  0.00000000000E+00 0. -1.
        -13    1    3    3    0    0  0.18237081148E+02  0.23098825690E+02 -0.30627005788E+03  0.30768083338E+03  0.00000000000E+00 0.  1.
         22    1    1    2    0    0 -0.12805093880E+02  0.16884861801E+02 -0.94011431016E+01  0.23182978216E+02  0.00000000000E+00 0. -1.
<mgrwt>
<rscale>  0 0.64523213E+02</rscale>
<asrwt>0</asrwt>
<pdfrwt beam="1">  1        2 0.62512701E-01 0.93519562E+02</pdfrwt>
<pdfrwt beam="2">  1       -2 0.19225672E-02 0.93519562E+02</pdfrwt>
<totfact> 0.56571282E+04</totfact>
</mgrwt>
</event>
<event>
 6    1  0.1535970E-002  0.9244514E+02  0.7546771E-02  0.1400841E+00
         -4   -1    0    0    0  501 -0.00000000000E+00  0.00000000000E+00  0.28086303841E+02  0.28086303841E+02  0.00000000000E+00 0.  1.
          4   -1    0    0  501    0  0.00000000000E+00 -0.00000000000E+00 -0.10827902594E+03  0.10827902594E+03  0.00000000000E+00 0. -1.
         23    2    1    2    0    0 -0.15599761119E+02  0.11206091841E+01 -0.77202188968E+02  0.12044202610E+03  0.91112542259E+02 0.  0.
         11    1    3    3    0    0  0.13572917548E+02 -0.34179768603E+02 -0.62188756844E+02  0.72249028715E+02  0.00000000000E+00 0.  1.
        -11    1    3    3    0    0 -0.29172678667E+02  0.35300377787E+02 -0.15013432124E+02  0.48192997381E+02  0.00000000000E+00 0. -1.
         22    1    1    2    0    0  0.15599761119E+02 -0.11206091841E+01 -0.29905331345E+01  0.15923303688E+02  0.00000000000E+00 0. -1.
<mgrwt>
<rscale>  0 0.59288704E+02</rscale>
<asrwt>0</asrwt>
<pdfrwt beam="1">  1        4 0.16658312E-01 0.92445139E+02</pdfrwt>
<pdfrwt beam="2">  1       -4 0.43209698E-02 0.92445139E+02</pdfrwt>
<totfact> 0.13751220E+04</totfact>
</mgrwt>
</event>
<event>
 6    1  0.1535970E-002  0.9798619E+02  0.7546771E-02  0.1407149E+00
         -2   -1    0    0    0  501 -0.00000000000E+00  0.00000000000E+00  0.67978238833E+02  0.67978238833E+02  0.00000000000E+00 0. -1.
          2   -1    0    0  501    0  0.00000000000E+00 -0.00000000000E+00 -0.95882674536E+02  0.95882674536E+02  0.00000000000E+00 0.  1.
         23    2    1    2    0    0  0.10482874146E+02 -0.56158390405E+01 -0.69803248987E+02  0.12030705185E+03  0.97261836593E+02 0.  0.
         13    1    3    3    0    0 -0.11866272057E+02  0.11646655776E+02 -0.86107892044E+02  0.87698472481E+02  0.00000000000E+00 0.  1.
        -13    1    3    3    0    0  0.22349146203E+02 -0.17262494816E+02  0.16304643057E+02  0.32608579370E+02  0.00000000000E+00 0. -1.
         22    1    1    2    0    0 -0.10482874146E+02  0.56158390405E+01  0.41898813284E+02  0.43553861518E+02  0.00000000000E+00 0. -1.
<mgrwt>
<rscale>  0 0.57834993E+02</rscale>
<asrwt>0</asrwt>
<pdfrwt beam="1">  1        2 0.14751181E-01 0.97986189E+02</pdfrwt>
<pdfrwt beam="2">  1       -2 0.10458191E-01 0.97986189E+02</pdfrwt>
<totfact> 0.21914026E+04</totfact>
</mgrwt>
</event>
<event>
 6    1  0.1535970E-002  0.9168708E+02  0.7546771E-02  0.1427171E+00
         -2   -1    0    0    0  501 -0.00000000000E+00  0.00000000000E+00  0.23832867398E+02  0.23832867398E+02  0.00000000000E+00 0.  1.
          2   -1    0    0  501    0  0.00000000000E+00 -0.00000000000E+00 -0.13421503080E+03  0.13421503080E+03  0.00000000000E+00 0. -1.
         23    2    1    2    0    0 -0.10523174087E+02 -0.16680357660E+01 -0.11444672972E+03  0.14664437964E+03  0.91065913499E+02 0.  0.
         11    1    3    3    0    0 -0.32290538944E+02  0.11183964042E+02 -0.11637900389E+03  0.12129234313E+03  0.00000000000E+00 0. -1.
        -11    1    3    3    0    0  0.21767364857E+02 -0.12851999808E+02  0.19322741653E+01  0.25352036512E+02  0.00000000000E+00 0.  1.
         22    1    1    2    0    0  0.10523174087E+02  0.16680357660E+01  0.40645663139E+01  0.11403518558E+02  0.00000000000E+00 0.  1.
<mgrwt>
<rscale>  0 0.53532179E+02</rscale>
<asrwt>0</asrwt>
<pdfrwt beam="1">  1        2 0.20648466E-01 0.91687077E+02</pdfrwt>
<pdfrwt beam="2">  1       -2 0.36665950E-02 0.91687077E+02</pdfrwt>
<totfact> 0.72019334E+04</totfact>
</mgrwt>
</event>
<event>
 6    1  0.1535970E-002  0.9413166E+02  0.7546771E-02  0.1392385E+00
          2   -1    0    0  501    0  0.00000000000E+00  0.00000000000E+00  0.64994341052E+03  0.64994341052E+03  0.00000000000E+00 0.  1.
         -2   -1    0    0    0  501 -0.00000000000E+00 -0.00000000000E+00 -0.47462194016E+01  0.47462194016E+01  0.00000000000E+00 0. -1.
         23    2    1    2    0    0 -0.11556791955E+00 -0.16947827007E+02  0.54548365112E+03  0.55354600800E+03  0.92593342841E+02 0.  0.
         11    1    3    3    0    0 -0.40270338825E+02 -0.23295174098E+02  0.18427969969E+03  0.19006149806E+03  0.00000000000E+00 0. -1.
        -11    1    3    3    0    0  0.40154770906E+02  0.63473470912E+01  0.36120395143E+03  0.36348450995E+03  0.00000000000E+00 0.  1.
         22    1    1    2    0    0  0.11556791955E+00  0.16947827007E+02  0.99713539992E+02  0.10114362191E+03  0.00000000000E+00 0.  1.
<mgrwt>
<rscale>  0 0.61317271E+02</rscale>
<asrwt>0</asrwt>
<pdfrwt beam="1">  1        2 0.99991223E-01 0.94131660E+02</pdfrwt>
<pdfrwt beam="2">  1       -2 0.73018812E-03 0.94131660E+02</pdfrwt>
<totfact> 0.13432805E+05</totfact>
</mgrwt>
</event>
<event>
 6    1  0.1535970E-002  0.9456650E+02  0.7546771E-02  0.1370747E+00
         -2   -1    0    0    0  501 -0.00000000000E+00  0.00000000000E+00  0.30152232005E+02  0.30152232005E+02  0.00000000000E+00 0. -1.
          2   -1    0    0  501    0  0.00000000000E+00 -0.00000000000E+00 -0.15109208427E+03  0.15109208427E+03  0.00000000000E+00 0.  1.
         23    2    1    2    0    0 -0.98461258190E+01  0.21635804737E+02 -0.12539815925E+03  0.15705897482E+03  0.91530153433E+02 0.  0.
         11    1    3    3    0    0 -0.11046430461E+02  0.17647471933E+02 -0.14017175858E+03  0.14170948731E+03  0.00000000000E+00 0.  1.
        -11    1    3    3    0    0  0.12003046423E+01  0.39883328048E+01  0.14773599324E+02  0.15349487509E+02  0.00000000000E+00 0. -1.
         22    1    1    2    0    0  0.98461258190E+01 -0.21635804737E+02  0.44583069842E+01  0.24185341458E+02  0.00000000000E+00 0. -1.
<mgrwt>
<rscale>  0 0.66959817E+02</rscale>
<asrwt>0</asrwt>
<pdfrwt beam="1">  1        2 0.23244936E-01 0.94566502E+02</pdfrwt>
<pdfrwt beam="2">  1       -2 0.46388049E-02 0.94566502E+02</pdfrwt>
<totfact> 0.44864095E+04</totfact>
</mgrwt>
</event>
<event>
 6    1  0.1535970E-002  0.6861313E+02  0.7546771E-02  0.1452275E+00
          2   -1    0    0  501    0  0.00000000000E+00  0.00000000000E+00  0.22251903225E+03  0.22251903225E+03  0.00000000000E+00 0. -1.
         -2   -1    0    0    0  501 -0.00000000000E+00 -0.00000000000E+00 -0.14068402029E+02  0.14068402029E+02  0.00000000000E+00 0.  1.
         23    2    1    2    0    0 -0.17185196745E+02  0.31240171064E+01  0.20809735256E+03  0.21911702286E+03  0.66352626869E+02 0.  0.
         11    1    3    3    0    0  0.17866641245E+02  0.11889948716E+02  0.27202851028E+02  0.34649427902E+02  0.00000000000E+00 0.  1.
        -11    1    3    3    0    0 -0.35051837990E+02 -0.87659316093E+01  0.18089450153E+03  0.18446759495E+03  0.00000000000E+00 0. -1.
         22    1    1    2    0    0  0.17185196745E+02 -0.31240171064E+01  0.35327765575E+00  0.17470411419E+02  0.00000000000E+00 0. -1.
<mgrwt>
<rscale>  0 0.48737024E+02</rscale>
<asrwt>0</asrwt>
<pdfrwt beam="1">  1        2 0.34233695E-01 0.68613130E+02</pdfrwt>
<pdfrwt beam="2">  1       -2 0.21643697E-02 0.68613130E+02</pdfrwt>
<totfact> 0.85574951E+04</totfact>
</mgrwt>
</event>
<event>
 6    1  0.1535970E-002  0.9371266E+02  0.7546771E-02  0.1426865E+00
         -2   -1    0    0    0  501 -0.00000000000E+00  0.00000000000E+00  0.96478979536E+01  0.96478979536E+01  0.00000000000E+00 0.  1.
          2   -1    0    0  501    0  0.00000000000E+00 -0.00000000000E+00 -0.42626354289E+03  0.42626354289E+03  0.00000000000E+00 0. -1.
         23    2    1    2    0    0  0.75136174289E+01  0.66368663594E+01 -0.41536893344E+03  0.42580912767E+03  0.93174888795E+02 0.  0.
         11    1    3    3    0    0 -0.31192740854E+02 -0.33625810941E+00 -0.33379149034E+03  0.33524596818E+03  0.00000000000E+00 0. -1.
        -11    1    3    3    0    0  0.38706358283E+02  0.69731244688E+01 -0.81577443091E+02  0.90563159495E+02  0.00000000000E+00 0.  1.
         22    1    1    2    0    0 -0.75136174289E+01 -0.66368663594E+01 -0.12467115041E+01  0.10102313176E+02  0.00000000000E+00 0.  1.
<mgrwt>
<rscale>  0 0.53594567E+02</rscale>
<asrwt>0</asrwt>
<pdfrwt beam="1">  1        2 0.65579002E-01 0.93712658E+02</pdfrwt>
<pdfrwt beam="2">  1       -2 0.14842921E-02 0.93712658E+02</pdfrwt>
<totfact> 0.77906548E+04</totfact>
</mgrwt>
</event>
<event>
 6    1  0.1535970E-002  0.9415996E+02  0.7546771E-02  0.1381622E+00
          2   -1    0    0  501    0  0.00000000000E+00  0.00000000000E+00  0.10883682559E+04  0.10883682559E+04  0.00000000000E+00 0. -1.
         -2   -1    0    0    0  501 -0.00000000000E+00 -0.00000000000E+00 -0.39942792622E+01  0.39942792622E+01  0.00000000000E+00 0.  1.
         23    2    1    2    0    0  0.18452445667E+02  0.80852846857E+01  0.10313658670E+04  0.10356551788E+04  0.91979525785E+02 0.  0.
         13    1    3    3    0    0 -0.13604893682E+02 -0.13585689910E+02  0.84953779938E+03  0.84975533930E+03  0.00000000000E+00 0. -1.
        -13    1    3    3    0    0  0.32057339349E+02  0.21670974596E+02  0.18182806760E+03  0.18589983946E+03  0.00000000000E+00 0.  1.
         22    1    1    2    0    0 -0.18452445667E+02 -0.80852846857E+01  0.53008109673E+02  0.56707356407E+02  0.00000000000E+00 0. -1.
<mgrwt>
<rscale>  0 0.64039412E+02</rscale>
<asrwt>0</asrwt>
<pdfrwt beam="1">  1        2 0.16744103E+00 0.94159958E+02</pdfrwt>
<pdfrwt beam="2">  1       -2 0.61450537E-03 0.94159958E+02</pdfrwt>
<totfact> 0.89508562E+04</totfact>
</mgrwt>
</event>
<event>
 6    1  0.1535970E-002  0.9278761E+02  0.7546771E-02  0.1428467E+00
          1   -1    0    0  501    0  0.00000000000E+00  0.00000000000E+00  0.42410437301E+02  0.42410437301E+02  0.00000000000E+00 0. -1.
         -1   -1    0    0    0  501 -0.00000000000E+00 -0.00000000000E+00 -0.66730714505E+02  0.66730714505E+02  0.00000000000E+00 0.  1.
         23    2    1    2    0    0 -0.89199537890E+01  0.46931952680E+01 -0.12530027035E+02  0.93629812197E+02  0.92238541278E+02 0.  0.
         13    1    3    3    0    0  0.55915863087E+01  0.58399036589E+01  0.39130763586E+02  0.39957314362E+02  0.00000000000E+00 0. -1.
        -13    1    3    3    0    0 -0.14511540098E+02 -0.11467083909E+01 -0.51660790622E+02  0.53672497835E+02  0.00000000000E+00 0.  1.
         22    1    1    2    0    0  0.89199537890E+01 -0.46931952680E+01 -0.11790250169E+02  0.15511339609E+02  0.00000000000E+00 0. -1.
<mgrwt>
<rscale>  0 0.53269024E+02</rscale>
<asrwt>0</asrwt>
<pdfrwt beam="1">  1        1 0.65246827E-02 0.92787608E+02</pdfrwt>
<pdfrwt beam="2">  1       -1 0.10266264E-01 0.92787608E+02</pdfrwt>
<totfact> 0.57713084E+04</totfact>
</mgrwt>
</event>
<event>
 6    1  0.1535970E-002  0.9519143E+02  0.7546771E-02  0.1350196E+00
          2   -1    0    0  501    0  0.00000000000E+00  0.00000000000E+00  0.65450375128E+02  0.65450375128E+02  0.00000000000E+00 0. -1.
         -2   -1    0    0    0  501 -0.00000000000E+00 -0.00000000000E+00 -0.77570156795E+02  0.77570156795E+02  0.00000000000E+00 0.  1.
         23    2    1    2    0    0 -0.29062912344E+02  0.15447159006E+02  0.19736149295E+02  0.97215860406E+02  0.89320436241E+02 0.  0.
         13    1    3    3    0    0 -0.50040415965E+02 -0.19240972747E+02  0.41061558465E+01  0.53769124765E+02  0.00000000000E+00 0. -1.
        -13    1    3    3    0    0  0.20977503620E+02  0.34688131753E+02  0.15629993448E+02  0.43446735641E+02  0.00000000000E+00 0.  1.
         22    1    1    2    0    0  0.29062912344E+02 -0.15447159006E+02 -0.31855930962E+02  0.45804671517E+02  0.00000000000E+00 0.  1.
<mgrwt>
<rscale>  0 0.72994536E+02</rscale>
<asrwt>0</asrwt>
<pdfrwt beam="1">  1        2 0.10069288E-01 0.95191428E+02</pdfrwt>
<pdfrwt beam="2">  1       -2 0.11933870E-01 0.95191428E+02</pdfrwt>
<totfact> 0.27926133E+04</totfact>
</mgrwt>
</event>
<event>
 6    1  0.1535970E-002  0.9477063E+02  0.7546771E-02  0.1359516E+00
         -2   -1    0    0    0  501 -0.00000000000E+00  0.00000000000E+00  0.17978966218E+02  0.17978966218E+02  0.00000000000E+00 0.  1.
          2   -1    0    0  501    0  0.00000000000E+00 -0.00000000000E+00 -0.24672482036E+03  0.24672482036E+03  0.00000000000E+00 0. -1.
         23    2    1    2    0    0 -0.54270488771E+01  0.27961171096E+02 -0.21057472261E+03  0.23091813919E+03  0.90389121335E+02 0.  0.
         13    1    3    3    0    0 -0.13100437133E+02  0.56449227038E+02 -0.17688688347E+03  0.18613733164E+03  0.00000000000E+00 0. -1.
        -13    1    3    3    0    0  0.76733882563E+01 -0.28488055943E+02 -0.33687839133E+02  0.44780807543E+02  0.00000000000E+00 0.  1.
         22    1    1    2    0    0  0.54270488771E+01 -0.27961171096E+02 -0.18171131538E+02  0.33785647395E+02  0.00000000000E+00 0.  1.
<mgrwt>
<rscale>  0 0.70170034E+02</rscale>
<asrwt>0</asrwt>
<pdfrwt beam="1">  1        2 0.37957665E-01 0.94770635E+02</pdfrwt>
<pdfrwt beam="2">  1       -2 0.27659948E-02 0.94770635E+02</pdfrwt>
<totfact> 0.56565402E+04</totfact>
</mgrwt>
</event>
<event>
 6    1  0.1535970E-002  0.8982134E+02  0.7546771E-02  0.1412898E+00
         -2   -1    0    0    0  501 -0.00000000000E+00  0.00000000000E+00  0.92595672263E+02  0.92595672263E+02  0.00000000000E+00 0.  1.
          2   -1    0    0  501    0  0.00000000000E+00 -0.00000000000E+00 -0.29173528692E+02  0.29173528692E+02  0.00000000000E+00 0. -1.
         23    2    1    2    0    0  0.13703819514E+02  0.33787956930E+01  0.54135514135E+02  0.10487386385E+03  0.88705481784E+02 0.  0.
         11    1    3    3    0    0  0.13944171172E+02 -0.39609601693E+02  0.98041720106E+01  0.43121714307E+02  0.00000000000E+00 0. -1.
        -11    1    3    3    0    0 -0.24035165837E+00  0.42988397385E+02  0.44331342125E+02  0.61752149544E+02  0.00000000000E+00 0.  1.
         22    1    1    2    0    0 -0.13703819514E+02 -0.33787956930E+01  0.92866294353E+01  0.16895337104E+02  0.00000000000E+00 0. -1.
<mgrwt>
<rscale>  0 0.56552108E+02</rscale>
<asrwt>0</asrwt>
<pdfrwt beam="1">  1        2 0.44882352E-02 0.89821342E+02</pdfrwt>
<pdfrwt beam="2">  1       -2 0.14245488E-01 0.89821342E+02</pdfrwt>
<totfact> 0.57780338E+04</totfact>
</mgrwt>
</event>
<event>
 6    1  0.1535970E-002  0.9232422E+02  0.7546771E-02  0.1404750E+00
          2   -1    0    0  501    0  0.00000000000E+00  0.00000000000E+00  0.67386059063E+03  0.67386059063E+03  0.00000000000E+00 0. -1.
         -2   -1    0    0    0  501 -0.00000000000E+00 -0.00000000000E+00 -0.69396332022E+01  0.69396332022E+01  0.00000000000E+00 0.  1.
         23    2    1    2    0    0 -0.98551985432E+01  0.10991743969E+02  0.65592901774E+03  0.66239462381E+03  0.91136260487E+02 0.  0.
         13    1    3    3    0    0  0.11726437971E+02 -0.14751862620E+02  0.29118065561E+02  0.34684125191E+02  0.00000000000E+00 0.  1.
        -13    1    3    3    0    0 -0.21581636514E+02  0.25743606589E+02  0.62681095218E+03  0.62771049862E+03  0.00000000000E+00 0. -1.
         22    1    1    2    0    0  0.98551985432E+01 -0.10991743969E+02  0.10991939689E+02  0.18405600016E+02  0.00000000000E+00 0.  1.
<mgrwt>
<rscale>  0 0.58382097E+02</rscale>
<asrwt>0</asrwt>
<pdfrwt beam="1">  1        2 0.10367081E+00 0.92324219E+02</pdfrwt>
<pdfrwt beam="2">  1       -2 0.10676364E-02 0.92324219E+02</pdfrwt>
<totfact> 0.75118222E+04</totfact>
</mgrwt>
</event>
<event>
 6    1  0.1535970E-002  0.9889241E+02  0.7546771E-02  0.1339812E+00
          2   -1    0    0  501    0  0.00000000000E+00  0.00000000000E+00  0.16464294525E+03  0.16464294525E+03  0.00000000000E+00 0.  1.
         -2   -1    0    0    0  501 -0.00000000000E+00 -0.00000000000E+00 -0.38453727213E+02  0.38453727213E+02  0.00000000000E+00 0. -1.
         23    2    1    2    0    0 -0.10683277433E+02  0.33426673464E+02  0.13458737489E+03  0.16701338056E+03  0.92456654114E+02 0.  0.
         13    1    3    3    0    0 -0.13706642155E+02  0.63789461457E+02  0.70651575313E+02  0.96169706906E+02  0.00000000000E+00 0. -1.
        -13    1    3    3    0    0  0.30233647227E+01 -0.30362787992E+02  0.63935799581E+02  0.70843673656E+02  0.00000000000E+00 0.  1.
         22    1    1    2    0    0  0.10683277433E+02 -0.33426673464E+02 -0.83981568599E+01  0.36083291899E+02  0.00000000000E+00 0. -1.
<mgrwt>
<rscale>  0 0.76326509E+02</rscale>
<asrwt>0</asrwt>
<pdfrwt beam="1">  1        2 0.25329684E-01 0.98892405E+02</pdfrwt>
<pdfrwt beam="2">  1       -2 0.59159581E-02 0.98892405E+02</pdfrwt>
<totfact> 0.28567082E+04</totfact>
</mgrwt>
</event>
<event>
 6    1  0.1535970E-002  0.9095838E+02  0.7546771E-02  0.1422300E+00
         -2   -1    0    0    0  501 -0.00000000000E+00  0.00000000000E+00  0.58778148801E+01  0.58778148801E+01  0.00000000000E+00 0. -1.
          2   -1    0    0  501    0  0.00000000000E+00 -0.00000000000E+00 -0.47396801115E+03  0.47396801115E+03  0.00000000000E+00 0.  1.
         23    2    1    2    0    0  0.38432417372E+01 -0.11109670093E+02 -0.44150940666E+03  0.45078152400E+03  0.90195515008E+02 0.  0.
         13    1    3    3    0    0  0.32455403674E+02 -0.33581199363E+00 -0.38638927681E+03  0.38775009894E+03  0.00000000000E+00 0.  1.
        -13    1    3    3    0    0 -0.28612161937E+02 -0.10773858100E+02 -0.55120129853E+02  0.63031425052E+02  0.00000000000E+00 0. -1.
         22    1    1    2    0    0 -0.38432417372E+01  0.11109670093E+02 -0.26580789612E+02  0.29064302039E+02  0.00000000000E+00 0. -1.
<mgrwt>
<rscale>  0 0.54537305E+02</rscale>
<asrwt>0</asrwt>
<pdfrwt beam="1">  1        2 0.72918156E-01 0.90958376E+02</pdfrwt>
<pdfrwt beam="2">  1       -2 0.90427921E-03 0.90958376E+02</pdfrwt>
<totfact> 0.14001882E+05</totfact>
</mgrwt>
</event>
<event>
 6    1  0.1535970E-002  0.1015367E+03  0.7546771E-02  0.1346647E+00
         -4   -1    0    0    0  501 -0.00000000000E+00  0.00000000000E+00  0.18059737538E+03  0.18059737538E+03  0.00000000000E+00 0.  1.
          4   -1    0    0  501    0  0.00000000000E+00 -0.00000000000E+00 -0.51954525419E+02  0.51954525419E+02  0.00000000000E+00 0. -1.
         23    2    1    2    0    0  0.12219999991E+01  0.28791791080E+02  0.16029412873E+03  0.18974694822E+03  0.97361368802E+02 0.  0.
         11    1    3    3    0    0  0.31484664013E+02  0.33896579581E+02  0.28301161560E+02  0.54232996607E+02  0.00000000000E+00 0. -1.
        -11    1    3    3    0    0 -0.30262664014E+02 -0.51047885012E+01  0.13199296717E+03  0.13551395161E+03  0.00000000000E+00 0.  1.
         22    1    1    2    0    0 -0.12219999991E+01 -0.28791791080E+02 -0.31651278770E+02  0.42804952580E+02  0.00000000000E+00 0.  1.
<mgrwt>
<rscale>  0 0.74110899E+02</rscale>
<asrwt>0</asrwt>
<pdfrwt beam="1">  1        4 0.79930040E-02 0.10153668E+03</pdfrwt>
<pdfrwt beam="2">  1       -4 0.27784211E-01 0.10153668E+03</pdfrwt>
<totfact> 0.20830977E+03</totfact>
</mgrwt>
</event>
<event>
 6    1  0.1535970E-002  0.9150265E+02  0.7546771E-02  0.1425356E+00
         -2   -1    0    0    0  501 -0.00000000000E+00  0.00000000000E+00  0.17017414713E+01  0.17017414713E+01  0.00000000000E+00 0.  1.
          2   -1    0    0  501    0  0.00000000000E+00 -0.00000000000E+00 -0.19313157214E+04  0.19313157214E+04  0.00000000000E+00 0. -1.
         23    2    1    2    0    0 -0.92691371643E+01 -0.59597620147E+01 -0.18785860838E+04  0.18808132307E+04  0.90836661576E+02 0.  0.
         13    1    3    3    0    0  0.15532639609E+02  0.13538548751E+02 -0.16424192940E+04  0.16425485358E+04  0.00000000000E+00 0. -1.
        -13    1    3    3    0    0 -0.24801776774E+02 -0.19498310766E+02 -0.23616678978E+03  0.23826469493E+03  0.00000000000E+00 0.  1.
         22    1    1    2    0    0  0.92691371643E+01  0.59597620147E+01 -0.51027896127E+02  0.52204232110E+02  0.00000000000E+00 0.  1.
<mgrwt>
<rscale>  0 0.53903695E+02</rscale>
<asrwt>0</asrwt>
<pdfrwt beam="1">  1        2 0.29712474E+00 0.91502649E+02</pdfrwt>
<pdfrwt beam="2">  1       -2 0.26180705E-03 0.91502649E+02</pdfrwt>
<totfact> 0.10758057E+05</totfact>
</mgrwt>
</event>
<event>
 6    1  0.1535970E-002  0.9513943E+02  0.7546771E-02  0.1359155E+00
         -2   -1    0    0    0  501 -0.00000000000E+00  0.00000000000E+00  0.13691495000E+02  0.13691495000E+02  0.00000000000E+00 0.  1.
          2   -1    0    0  501    0  0.00000000000E+00 -0.00000000000E+00 -0.31095808701E+03  0.31095808701E+03  0.00000000000E+00 0. -1.
         23    2    1    2    0    0  0.26795779991E+02  0.91794009487E+01 -0.26579322409E+03  0.28230754480E+03  0.90825308425E+02 0.  0.
         11    1    3    3    0    0 -0.13499243312E+02  0.25635822940E+02 -0.20773363861E+03  0.20974434342E+03  0.00000000000E+00 0. -1.
        -11    1    3    3    0    0  0.40295023303E+02 -0.16456421991E+02 -0.58059585483E+02  0.72563201377E+02  0.00000000000E+00 0.  1.
         22    1    1    2    0    0 -0.26795779991E+02 -0.91794009487E+01 -0.31473367922E+02  0.42342037214E+02  0.00000000000E+00 0.  1.
<mgrwt>
<rscale>  0 0.70276617E+02</rscale>
<asrwt>0</asrwt>
<pdfrwt beam="1">  1        2 0.47839707E-01 0.95139434E+02</pdfrwt>
<pdfrwt beam="2">  1       -2 0.21063838E-02 0.95139434E+02</pdfrwt>
<totfact> 0.65838530E+04</totfact>
</mgrwt>
</event>
<event>
 6    1  0.1535970E-002  0.9188351E+02  0.7546771E-02  0.1403306E+00
         -2   -1    0    0    0  501 -0.00000000000E+00  0.00000000000E+00  0.25227708246E+02  0.25227708246E+02  0.00000000000E+00 0.  1.
          2   -1    0    0  501    0  0.00000000000E+00 -0.00000000000E+00 -0.12060429397E+03  0.12060429397E+03  0.00000000000E+00 0. -1.
         23    2    1    2    0    0 -0.13067932253E+02 -0.79970397089E+01 -0.92236670443E+02  0.13019286651E+03  0.90597216398E+02 0.  0.
         11    1    3    3    0    0 -0.12378362245E+02  0.22076196756E+02  0.71933877685E+01  0.26312110190E+02  0.00000000000E+00 0.  1.
        -11    1    3    3    0    0 -0.68957000795E+00 -0.30073236465E+02 -0.99430058211E+02  0.10388075632E+03  0.00000000000E+00 0. -1.
         22    1    1    2    0    0  0.13067932253E+02  0.79970397089E+01 -0.31399152783E+01  0.15639135700E+02  0.00000000000E+00 0. -1.
<mgrwt>
<rscale>  0 0.58714822E+02</rscale>
<asrwt>0</asrwt>
<pdfrwt beam="1">  1        2 0.18554507E-01 0.91883508E+02</pdfrwt>
<pdfrwt beam="2">  1       -2 0.38811858E-02 0.91883508E+02</pdfrwt>
<totfact> 0.74705168E+04</totfact>
</mgrwt>
</event>
<event>
 6    1  0.1535970E-002  0.9789194E+02  0.7546771E-02  0.1368026E+00
          2   -1    0    0  501    0  0.00000000000E+00  0.00000000000E+00  0.31845574143E+03  0.31845574143E+03  0.00000000000E+00 0. -1.
         -2   -1    0    0    0  501 -0.00000000000E+00 -0.00000000000E+00 -0.11694842147E+02  0.11694842147E+02  0.00000000000E+00 0.  1.
         23    2    1    2    0    0 -0.44096898786E+01  0.21980108127E+02  0.26872215305E+03  0.28599725150E+03  0.95290407756E+02 0.  0.
         11    1    3    3    0    0 -0.26551426506E+01  0.81683028557E+01 -0.62818212443E+01  0.10641063489E+02  0.00000000000E+00 0.  1.
        -11    1    3    3    0    0 -0.17545472280E+01  0.13811805271E+02  0.27500397429E+03  0.27535618801E+03  0.00000000000E+00 0. -1.
         22    1    1    2    0    0  0.44096898786E+01 -0.21980108127E+02  0.38038746238E+02  0.44153332077E+02  0.00000000000E+00 0.  1.
<mgrwt>
<rscale>  0 0.67718891E+02</rscale>
<asrwt>0</asrwt>
<pdfrwt beam="1">  1        2 0.48993185E-01 0.97891942E+02</pdfrwt>
<pdfrwt beam="2">  1       -2 0.17992067E-02 0.97891942E+02</pdfrwt>
<totfact> 0.80866636E+04</totfact>
</mgrwt>
</event>
<event>
 6    1  0.1535970E-002  0.9317720E+02  0.7546771E-02  0.1404920E+00
         -2   -1    0    0    0  501 -0.00000000000E+00  0.00000000000E+00  0.44526344569E+01  0.44526344569E+01  0.00000000000E+00 0.  1.
          2   -1    0    0  501    0  0.00000000000E+00 -0.00000000000E+00 -0.75353322843E+03  0.75353322843E+03  0.00000000000E+00 0. -1.
         23    2    1    2    0    0 -0.13487374868E+02 -0.48200931959E+01 -0.71459579186E+03  0.72064494490E+03  0.92069801178E+02 0.  0.
         13    1    3    3    0    0  0.15769248097E+02  0.19011263860E+02 -0.58968163598E+02  0.63932320912E+02  0.00000000000E+00 0. -1.
        -13    1    3    3    0    0 -0.29256622965E+02 -0.23831357056E+02 -0.65562762826E+03  0.65671262399E+03  0.00000000000E+00 0.  1.
         22    1    1    2    0    0  0.13487374868E+02  0.48200931959E+01 -0.34484802122E+02  0.37340917994E+02  0.00000000000E+00 0. -1.
<mgrwt>
<rscale>  0 0.58343063E+02</rscale>
<asrwt>0</asrwt>
<pdfrwt beam="1">  1        2 0.11592811E+00 0.93177201E+02</pdfrwt>
<pdfrwt beam="2">  1       -2 0.68502117E-03 0.93177201E+02</pdfrwt>
<totfact> 0.12346332E+05</totfact>
</mgrwt>
</event>
<event>
 6    1  0.1535970E-002  0.1171391E+03  0.7546771E-02  0.1280348E+00
         -2   -1    0    0    0  501 -0.00000000000E+00  0.00000000000E+00  0.65504392231E+01  0.65504392231E+01  0.00000000000E+00 0. -1.
          2   -1    0    0  501    0  0.00000000000E+00 -0.00000000000E+00 -0.16801748113E+04  0.16801748113E+04  0.00000000000E+00 0.  1.
         23    2    1    2    0    0 -0.39584369289E+02  0.47918066525E+02 -0.14469597562E+04  0.14516935261E+04  0.99289950561E+02 0.  0.
         11    1    3    3    0    0 -0.62287341684E+01  0.73544835405E+02 -0.10199267600E+04  0.10225938762E+04  0.00000000000E+00 0.  1.
        -11    1    3    3    0    0 -0.33355635121E+02 -0.25626768880E+02 -0.42703299623E+03  0.42909964990E+03  0.00000000000E+00 0. -1.
         22    1    1    2    0    0  0.39584369289E+02 -0.47918066525E+02 -0.22666461585E+03  0.23503172439E+03  0.00000000000E+00 0.  1.
<mgrwt>
<rscale>  0 0.99975310E+02</rscale>
<asrwt>0</asrwt>
<pdfrwt beam="1">  1        2 0.25848866E+00 0.11713905E+03</pdfrwt>
<pdfrwt beam="2">  1       -2 0.10077590E-02 0.11713905E+03</pdfrwt>
<totfact> 0.22075961E+04</totfact>
</mgrwt>
</event>
<event>
 6    1  0.1535970E-002  0.1266061E+03  0.7546771E-02  0.1251165E+00
         -3   -1    0    0    0  501 -0.00000000000E+00  0.00000000000E+00  0.18407111361E+02  0.18407111361E+02  0.00000000000E+00 0.  1.
          3   -1    0    0  501    0  0.00000000000E+00 -0.00000000000E+00 -0.73434503150E+03  0.73434503150E+03  0.00000000000E+00 0. -1.
         23    2    1    2    0    0 -0.66576777946E+02 -0.55852059174E+02 -0.56098593839E+03  0.57509506722E+03  0.92071675334E+02 0.  0.
         11    1    3    3    0    0 -0.61347414240E+02 -0.29578826648E+02 -0.52903064549E+03  0.53339650926E+03  0.00000000000E+00 0. -1.
        -11    1    3    3    0    0 -0.52293637059E+01 -0.26273232527E+02 -0.31955292896E+02  0.41698557963E+02  0.00000000000E+00 0.  1.
         22    1    1    2    0    0  0.66576777946E+02  0.55852059174E+02 -0.15495198175E+03  0.17765707564E+03  0.00000000000E+00 0.  1.
<mgrwt>
<rscale>  0 0.11523867E+03</rscale>
<asrwt>0</asrwt>
<pdfrwt beam="1">  1        3 0.11297613E+00 0.12660613E+03</pdfrwt>
<pdfrwt beam="2">  1       -3 0.28318641E-02 0.12660613E+03</pdfrwt>
<totfact> 0.87115282E+02</totfact>
</mgrwt>
</event>
<event>
 6    1  0.1535970E-002  0.9178103E+02  0.7546771E-02  0.1417233E+00
          2   -1    0    0  501    0  0.00000000000E+00  0.00000000000E+00  0.82683466116E+02  0.82683466116E+02  0.00000000000E+00 0. -1.
         -2   -1    0    0    0  501 -0.00000000000E+00 -0.00000000000E+00 -0.32924810475E+02  0.32924810475E+02  0.00000000000E+00 0.  1.
         23    2    1    2    0    0 -0.61892517318E+01  0.10710485577E+02  0.41450270736E+02  0.10070691430E+03  0.90943588593E+02 0.  0.
         11    1    3    3    0    0  0.27314895619E+02 -0.12033945005E+02  0.51008006854E+02  0.59099374940E+02  0.00000000000E+00 0. -1.
        -11    1    3    3    0    0 -0.33504147351E+02  0.22744430582E+02 -0.95577361182E+01  0.41607539364E+02  0.00000000000E+00 0.  1.
         22    1    1    2    0    0  0.61892517318E+01 -0.10710485577E+02  0.83083849051E+01  0.14901362287E+02  0.00000000000E+00 0.  1.
<mgrwt>
<rscale>  0 0.55610743E+02</rscale>
<asrwt>0</asrwt>
<pdfrwt beam="1">  1        2 0.12720533E-01 0.91781031E+02</pdfrwt>
<pdfrwt beam="2">  1       -2 0.50653555E-02 0.91781031E+02</pdfrwt>
<totfact> 0.77896214E+04</totfact>
</mgrwt>
</event>
<event>
 6    1  0.1535970E-002  0.9401826E+02  0.7546771E-02  0.1372221E+00
         -2   -1    0    0    0  501 -0.00000000000E+00  0.00000000000E+00  0.57285311383E+02  0.57285311383E+02  0.00000000000E+00 0.  1.
          2   -1    0    0  501    0  0.00000000000E+00 -0.00000000000E+00 -0.13445942466E+03  0.13445942466E+03  0.00000000000E+00 0. -1.
         23    2    1    2    0    0 -0.23419640163E+02  0.29722620936E+01 -0.11414463946E+03  0.14787978769E+03  0.91006148159E+02 0.  0.
         11    1    3    3    0    0 -0.31125604486E+00  0.35686718390E+02 -0.11178469554E+02  0.37397819875E+02  0.00000000000E+00 0.  1.
        -11    1    3    3    0    0 -0.23108384119E+02 -0.32714456297E+02 -0.10296616991E+03  0.11048196782E+03  0.00000000000E+00 0. -1.
         22    1    1    2    0    0  0.23419640163E+02 -0.29722620936E+01  0.36970526186E+02  0.43864948350E+02  0.00000000000E+00 0.  1.
<mgrwt>
<rscale>  0 0.66553613E+02</rscale>
<asrwt>0</asrwt>
<pdfrwt beam="1">  1        2 0.20686065E-01 0.94018258E+02</pdfrwt>
<pdfrwt beam="2">  1       -2 0.88131250E-02 0.94018258E+02</pdfrwt>
<totfact> 0.19369502E+04</totfact>
</mgrwt>
</event>
<event>
 6    1  0.1535970E-002  0.9229065E+02  0.7546771E-02  0.1407187E+00
          1   -1    0    0  501    0  0.00000000000E+00  0.00000000000E+00  0.16134744815E+03  0.16134744815E+03  0.00000000000E+00 0. -1.
         -1   -1    0    0    0  501 -0.00000000000E+00 -0.00000000000E+00 -0.29269499101E+02  0.29269499101E+02  0.00000000000E+00 0.  1.
         23    2    1    2    0    0 -0.13569811386E+02 -0.42647409724E+01  0.14468241908E+03  0.17161167268E+03  0.91187915947E+02 0.  0.
         11    1    3    3    0    0 -0.16019921910E+01  0.22903893496E+02  0.13962017948E+03  0.14149540358E+03  0.00000000000E+00 0. -1.
        -11    1    3    3    0    0 -0.11967819195E+02 -0.27168634469E+02  0.50622396008E+01  0.30116269107E+02  0.00000000000E+00 0.  1.
         22    1    1    2    0    0  0.13569811386E+02  0.42647409724E+01 -0.12604470030E+02  0.19005274566E+02  0.00000000000E+00 0.  1.
<mgrwt>
<rscale>  0 0.57826275E+02</rscale>
<asrwt>0</asrwt>
<pdfrwt beam="1">  1        1 0.24822684E-01 0.92290649E+02</pdfrwt>
<pdfrwt beam="2">  1       -1 0.45029999E-02 0.92290649E+02</pdfrwt>
<totfact> 0.34880606E+04</totfact>
</mgrwt>
</event>
<event>
 6    1  0.1535970E-002  0.1011305E+03  0.7546771E-02  0.1389218E+00
         -1   -1    0    0    0  501 -0.00000000000E+00  0.00000000000E+00  0.13859009459E+03  0.13859009459E+03  0.00000000000E+00 0.  1.
          1   -1    0    0  501    0  0.00000000000E+00 -0.00000000000E+00 -0.24081580198E+02  0.24081580198E+02  0.00000000000E+00 0. -1.
         23    2    1    2    0    0  0.12359294018E+02  0.73509970257E+01  0.10147371142E+03  0.14326303253E+03  0.10010291241E+03 0.  0.
         11    1    3    3    0    0 -0.18753149148E+02  0.23008812528E+02 -0.60024676499E+01  0.30283917759E+02  0.00000000000E+00 0. -1.
        -11    1    3    3    0    0  0.31112443167E+02 -0.15657815502E+02  0.10747617907E+03  0.11297911477E+03  0.00000000000E+00 0.  1.
         22    1    1    2    0    0 -0.12359294018E+02 -0.73509970257E+01  0.13034802968E+02  0.19408642258E+02  0.00000000000E+00 0.  1.
<mgrwt>
<rscale>  0 0.62101586E+02</rscale>
<asrwt>0</asrwt>
<pdfrwt beam="1">  1        1 0.37048586E-02 0.10113052E+03</pdfrwt>
<pdfrwt beam="2">  1       -1 0.21321553E-01 0.10113052E+03</pdfrwt>
<totfact> 0.40369000E+04</totfact>
</mgrwt>
</event>
<event>
 6    1  0.1535970E-002  0.9366867E+02  0.7546771E-02  0.1381690E+00
          2   -1    0    0  501    0  0.00000000000E+00  0.00000000000E+00  0.59724101171E+03  0.59724101171E+03  0.00000000000E+00 0. -1.
         -2   -1    0    0    0  501 -0.00000000000E+00 -0.00000000000E+00 -0.54765168886E+01  0.54765168886E+01  0.00000000000E+00 0.  1.
         23    2    1    2    0    0  0.74202434154E+01 -0.19047604915E+02  0.50078997591E+03  0.50947465029E+03  0.91410874868E+02 0.  0.
         11    1    3    3    0    0  0.43681165421E+02 -0.29577301984E+02  0.35385834945E+03  0.35776890933E+03  0.00000000000E+00 0. -1.
        -11    1    3    3    0    0 -0.36260922006E+02  0.10529697070E+02  0.14693162646E+03  0.15170574096E+03  0.00000000000E+00 0.  1.
         22    1    1    2    0    0 -0.74202434154E+01  0.19047604915E+02  0.90974518905E+02  0.93242878309E+02  0.00000000000E+00 0. -1.
<mgrwt>
<rscale>  0 0.64021533E+02</rscale>
<asrwt>0</asrwt>
<pdfrwt beam="1">  1        2 0.91883181E-01 0.93668668E+02</pdfrwt>
<pdfrwt beam="2">  1       -2 0.84254153E-03 0.93668668E+02</pdfrwt>
<totfact> 0.12069203E+05</totfact>
</mgrwt>
</event>
<event>
 6    1  0.1535970E-002  0.9053252E+02  0.7546771E-02  0.1406820E+00
         -1   -1    0    0    0  501 -0.00000000000E+00  0.00000000000E+00  0.81184125216E+02  0.81184125216E+02  0.00000000000E+00 0.  1.
          1   -1    0    0  501    0  0.00000000000E+00 -0.00000000000E+00 -0.38831563772E+02  0.38831563772E+02  0.00000000000E+00 0. -1.
         23    2    1    2    0    0  0.11669638395E+02  0.96708896472E+01  0.19523664121E+02  0.92613770810E+02  0.89254862703E+02 0.  0.
         13    1    3    3    0    0 -0.15109755587E+02  0.30311478344E+02 -0.20989668838E+02  0.39845409161E+02  0.00000000000E+00 0. -1.
        -13    1    3    3    0    0  0.26779393981E+02 -0.20640588697E+02  0.40513332959E+02  0.52768361649E+02  0.00000000000E+00 0.  1.
         22    1    1    2    0    0 -0.11669638395E+02 -0.96708896472E+01  0.22828897323E+02  0.27401918178E+02  0.00000000000E+00 0.  1.
<mgrwt>
<rscale>  0 0.57909542E+02</rscale>
<asrwt>0</asrwt>
<pdfrwt beam="1">  1        1 0.59740868E-02 0.90532519E+02</pdfrwt>
<pdfrwt beam="2">  1       -1 0.12489865E-01 0.90532519E+02</pdfrwt>
<totfact> 0.48030049E+04</totfact>
</mgrwt>
</event>
<event>
 6    1  0.1535970E-002  0.9030210E+02  0.7546771E-02  0.1412296E+00
          1   -1    0    0  501    0  0.00000000000E+00  0.00000000000E+00  0.12922942996E+04  0.12922942996E+04  0.00000000000E+00 0. -1.
         -1   -1    0    0    0  501 -0.00000000000E+00 -0.00000000000E+00 -0.53121724106E+01  0.53121724106E+01  0.00000000000E+00 0.  1.
         23    2    1    2    0    0 -0.40760017792E+01 -0.13415089009E+02  0.12774837183E+04  0.12806713553E+04  0.89207015301E+02 0.  0.
         11    1    3    3    0    0 -0.71105712052E+01  0.27830998490E+02  0.16955505082E+03  0.17197104395E+03  0.00000000000E+00 0.  1.
        -11    1    3    3    0    0  0.30345694260E+01 -0.41246087499E+02  0.11079286674E+04  0.11087003114E+04  0.00000000000E+00 0. -1.
         22    1    1    2    0    0  0.40760017792E+01  0.13415089009E+02  0.94984088856E+01  0.16935116621E+02  0.00000000000E+00 0.  1.
<mgrwt>
<rscale>  0 0.56684638E+02</rscale>
<asrwt>0</asrwt>
<pdfrwt beam="1">  1        1 0.19881426E+00 0.90302104E+02</pdfrwt>
<pdfrwt beam="2">  1       -1 0.81725832E-03 0.90302104E+02</pdfrwt>
<totfact> 0.23044771E+04</totfact>
</mgrwt>
</event>
<event>
 6    1  0.1535970E-002  0.9482287E+02  0.7546771E-02  0.1378913E+00
          3   -1    0    0  501    0  0.00000000000E+00  0.00000000000E+00  0.26919797930E+03  0.26919797930E+03  0.00000000000E+00 0.  1.
         -3   -1    0    0    0  501 -0.00000000000E+00 -0.00000000000E+00 -0.18274237212E+02  0.18274237212E+02  0.00000000000E+00 0. -1.
         23    2    1    2    0    0 -0.20236726120E+02 -0.39428558643E+01  0.24937784187E+03  0.26679708643E+03  0.92554341407E+02 0.  0.
         13    1    3    3    0    0  0.11286757363E+02  0.24366679355E+02  0.19856135578E+02  0.33397486053E+02  0.00000000000E+00 0. -1.
        -13    1    3    3    0    0 -0.31523483483E+02 -0.28309535219E+02  0.22952170629E+03  0.23339960038E+03  0.00000000000E+00 0.  1.
         22    1    1    2    0    0  0.20236726120E+02  0.39428558643E+01  0.15459002146E+01  0.20675130082E+02  0.00000000000E+00 0. -1.
<mgrwt>
<rscale>  0 0.64750413E+02</rscale>
<asrwt>0</asrwt>
<pdfrwt beam="1">  1        3 0.41415071E-01 0.94822873E+02</pdfrwt>
<pdfrwt beam="2">  1       -3 0.28114213E-02 0.94822873E+02</pdfrwt>
<totfact> 0.68783542E+03</totfact>
</mgrwt>
</event>
<event>
 6    1  0.1535970E-002  0.9003576E+02  0.7546771E-02  0.1411212E+00
         -1   -1    0    0    0  501 -0.00000000000E+00  0.00000000000E+00  0.37003657328E+01  0.37003657328E+01  0.00000000000E+00 0.  1.
          1   -1    0    0  501    0  0.00000000000E+00 -0.00000000000E+00 -0.82150137710E+03  0.82150137710E+03  0.00000000000E+00 0. -1.
         23    2    1    2    0    0 -0.12769191488E+02  0.66265889937E+01 -0.77100628826E+03  0.77624553746E+03  0.88878984980E+02 0.  0.
         13    1    3    3    0    0 -0.45600990940E+02  0.63674049593E+01 -0.62018768488E+03  0.62189449161E+03  0.00000000000E+00 0. -1.
        -13    1    3    3    0    0  0.32831799452E+02  0.25918403437E+00 -0.15081860338E+03  0.15435104586E+03  0.00000000000E+00 0.  1.
         22    1    1    2    0    0  0.12769191488E+02 -0.66265889937E+01 -0.46794723108E+02  0.48956205364E+02  0.00000000000E+00 0. -1.
<mgrwt>
<rscale>  0 0.56924353E+02</rscale>
<asrwt>0</asrwt>
<pdfrwt beam="1">  1        1 0.12638487E+00 0.90035759E+02</pdfrwt>
<pdfrwt beam="2">  1       -1 0.56928683E-03 0.90035759E+02</pdfrwt>
<totfact> 0.82685193E+04</totfact>
</mgrwt>
</event>
<event>
 6    1  0.1535970E-002  0.9692607E+02  0.7546771E-02  0.1390887E+00
         -2   -1    0    0    0  501 -0.00000000000E+00  0.00000000000E+00  0.64532948598E+01  0.64532948598E+01  0.00000000000E+00 0.  1.
          2   -1    0    0  501    0  0.00000000000E+00 -0.00000000000E+00 -0.69495240797E+03  0.69495240797E+03  0.00000000000E+00 0. -1.
         23    2    1    2    0    0 -0.34065966051E+01  0.15532465232E+02 -0.67015815919E+03  0.67713116952E+03  0.95612760827E+02 0.  0.
         11    1    3    3    0    0  0.42420473087E+02  0.25791886724E+02 -0.37175176663E+03  0.37505212165E+03  0.00000000000E+00 0.  1.
        -11    1    3    3    0    0 -0.45827069692E+02 -0.10259421492E+02 -0.29840639256E+03  0.30207904787E+03  0.00000000000E+00 0. -1.
         22    1    1    2    0    0  0.34065966051E+01 -0.15532465232E+02 -0.18340953920E+02  0.24274533307E+02  0.00000000000E+00 0.  1.
<mgrwt>
<rscale>  0 0.61686619E+02</rscale>
<asrwt>0</asrwt>
<pdfrwt beam="1">  1        2 0.10691577E+00 0.96926067E+02</pdfrwt>
<pdfrwt beam="2">  1       -2 0.99281450E-03 0.96926067E+02</pdfrwt>
<totfact> 0.80850105E+04</totfact>
</mgrwt>
</event>
<event>
 6    1  0.1535970E-002  0.1215131E+03  0.7546771E-02  0.1261461E+00
         -2   -1    0    0    0  501 -0.00000000000E+00  0.00000000000E+00  0.30574909556E+03  0.30574909556E+03  0.00000000000E+00 0.  1.
          2   -1    0    0  501    0  0.00000000000E+00 -0.00000000000E+00 -0.38902221872E+02  0.38902221872E+02  0.00000000000E+00 0. -1.
         23    2    1    2    0    0 -0.74473339133E+02  0.29727864835E+02  0.92388768173E+02  0.15264700819E+03  0.91298414193E+02 0.  0.
         13    1    3    3    0    0 -0.49513877033E+02 -0.26666429883E+02  0.25757840021E+02  0.61856194710E+02  0.00000000000E+00 0. -1.
        -13    1    3    3    0    0 -0.24959462100E+02  0.56394294718E+02  0.66630928152E+02  0.90790813475E+02  0.00000000000E+00 0.  1.
         22    1    1    2    0    0  0.74473339133E+02 -0.29727864835E+02  0.17445810551E+03  0.19200430925E+03  0.00000000000E+00 0.  1.
<mgrwt>
<rscale>  0 0.10952009E+03</rscale>
<asrwt>0</asrwt>
<pdfrwt beam="1">  1        2 0.59849574E-02 0.12151306E+03</pdfrwt>
<pdfrwt beam="2">  1       -2 0.47038321E-01 0.12151306E+03</pdfrwt>
<totfact> 0.50580316E+03</totfact>
</mgrwt>
</event>
<event>
 6    1  0.1535970E-002  0.1034980E+03  0.7546771E-02  0.1390048E+00
          2   -1    0    0  501    0  0.00000000000E+00  0.00000000000E+00  0.17435093819E+04  0.17435093819E+04  0.00000000000E+00 0. -1.
         -2   -1    0    0    0  501 -0.00000000000E+00 -0.00000000000E+00 -0.34264996542E+01  0.34264996542E+01  0.00000000000E+00 0.  1.
         23    2    1    2    0    0  0.89301836270E+01  0.97720319894E+01  0.17185197687E+04  0.17216335367E+04  0.10264793462E+03 0.  0.
         13    1    3    3    0    0  0.98046179705E+01 -0.35211129536E+02  0.13324149355E+04  0.13329161693E+04  0.00000000000E+00 0.  1.
        -13    1    3    3    0    0 -0.87443434357E+00  0.44983161525E+02  0.38610483328E+03  0.38871736742E+03  0.00000000000E+00 0. -1.
         22    1    1    2    0    0 -0.89301836270E+01 -0.97720319894E+01  0.21563113463E+02  0.25302344773E+02  0.00000000000E+00 0. -1.
<mgrwt>
<rscale>  0 0.61894694E+02</rscale>
<asrwt>0</asrwt>
<pdfrwt beam="1">  1        2 0.26823150E+00 0.10349802E+03</pdfrwt>
<pdfrwt beam="2">  1       -2 0.52715519E-03 0.10349802E+03</pdfrwt>
<totfact> 0.50845968E+04</totfact>
</mgrwt>
</event>
<event>
 6    1  0.1535970E-002  0.9763110E+02  0.7546771E-02  0.1352067E+00
          2   -1    0    0  501    0  0.00000000000E+00  0.00000000000E+00  0.18418380288E+02  0.18418380288E+02  0.00000000000E+00 0.  1.
         -2   -1    0    0    0  501 -0.00000000000E+00 -0.00000000000E+00 -0.22017229685E+03  0.22017229685E+03  0.00000000000E+00 0. -1.
         23    2    1    2    0    0 -0.22321092588E+02  0.19364415383E+02 -0.16008161271E+03  0.18750454726E+03  0.93051710131E+02 0.  0.
         13    1    3    3    0    0 -0.25431115504E+02  0.29785306068E+02 -0.14880455961E+02  0.41896707066E+02  0.00000000000E+00 0.  1.
        -13    1    3    3    0    0  0.31100229162E+01 -0.10420890686E+02 -0.14520115675E+03  0.14560784019E+03  0.00000000000E+00 0. -1.
         22    1    1    2    0    0  0.22321092588E+02 -0.19364415383E+02 -0.41672303854E+02  0.51086129878E+02  0.00000000000E+00 0. -1.
<mgrwt>
<rscale>  0 0.72415427E+02</rscale>
<asrwt>0</asrwt>
<pdfrwt beam="1">  1        2 0.28335970E-02 0.97631104E+02</pdfrwt>
<pdfrwt beam="2">  1       -2 0.33872660E-01 0.97631104E+02</pdfrwt>
<totfact> 0.24476375E+04</totfact>
</mgrwt>
</event>
<event>
 6    1  0.1535970E-002  0.9436675E+02  0.7546771E-02  0.1369319E+00
         -1   -1    0    0    0  501 -0.00000000000E+00  0.00000000000E+00  0.59647587212E+01  0.59647587212E+01  0.00000000000E+00 0.  1.
          1   -1    0    0  501    0  0.00000000000E+00 -0.00000000000E+00 -0.77455122479E+03  0.77455122479E+03  0.00000000000E+00 0. -1.
         23    2    1    2    0    0 -0.24225218649E+02 -0.36230707510E+01 -0.71945197764E+03  0.72561438232E+03  0.91132298550E+02 0.  0.
         11    1    3    3    0    0 -0.12323818870E+02 -0.15031794186E+02 -0.28684163332E+02  0.34649856768E+02  0.00000000000E+00 0.  1.
        -11    1    3    3    0    0 -0.11901399779E+02  0.11408723435E+02 -0.69076781431E+03  0.69096452555E+03  0.00000000000E+00 0. -1.
         22    1    1    2    0    0  0.24225218649E+02  0.36230707510E+01 -0.49134488433E+02  0.54901601196E+02  0.00000000000E+00 0.  1.
<mgrwt>
<rscale>  0 0.67356895E+02</rscale>
<asrwt>0</asrwt>
<pdfrwt beam="1">  1        1 0.11916170E+00 0.94366751E+02</pdfrwt>
<pdfrwt beam="2">  1       -1 0.91765538E-03 0.94366751E+02</pdfrwt>
<totfact> 0.46392042E+04</totfact>
</mgrwt>
</event>
<event>
 6    1  0.1535970E-002  0.1019127E+03  0.7546771E-02  0.1318078E+00
         -1   -1    0    0    0  501 -0.00000000000E+00  0.00000000000E+00  0.78679522924E+02  0.78679522924E+02  0.00000000000E+00 0.  1.
          1   -1    0    0  501    0  0.00000000000E+00 -0.00000000000E+00 -0.14558771771E+03  0.14558771771E+03  0.00000000000E+00 0. -1.
         23    2    1    2    0    0 -0.36614260349E+02  0.29513390953E+02 -0.11726749039E+03  0.15536366338E+03  0.90413269428E+02 0.  0.
         13    1    3    3    0    0 -0.56701421161E+02  0.79525804199E+01 -0.11149262244E+03  0.12533514892E+03  0.00000000000E+00 0. -1.
        -13    1    3    3    0    0  0.20087160812E+02  0.21560810534E+02 -0.57748679493E+01  0.30028514452E+02  0.00000000000E+00 0.  1.
         22    1    1    2    0    0  0.36614260349E+02 -0.29513390953E+02  0.50359295598E+02  0.68903577263E+02  0.00000000000E+00 0.  1.
<mgrwt>
<rscale>  0 0.83996409E+02</rscale>
<asrwt>0</asrwt>
<pdfrwt beam="1">  1        1 0.22398110E-01 0.10191273E+03</pdfrwt>
<pdfrwt beam="2">  1       -1 0.12104542E-01 0.10191273E+03</pdfrwt>
<totfact> 0.91680438E+03</totfact>
</mgrwt>
</event>
<event>
 6    1  0.1535970E-002  0.8871315E+02  0.7546771E-02  0.1429825E+00
         -2   -1    0    0    0  501 -0.00000000000E+00  0.00000000000E+00  0.26447459982E+01  0.26447459982E+01  0.00000000000E+00 0.  1.
          2   -1    0    0  501    0  0.00000000000E+00 -0.00000000000E+00 -0.11828100489E+04  0.11828100489E+04  0.00000000000E+00 0. -1.
         23    2    1    2    0    0  0.11055309797E+02  0.23263263081E+01 -0.11468512586E+04  0.11502772848E+04  0.87990856967E+02 0.  0.
         11    1    3    3    0    0 -0.37362397782E+02  0.87893368795E+01 -0.40289848519E+03  0.40472260942E+03  0.00000000000E+00 0.  1.
        -11    1    3    3    0    0  0.48417707579E+02 -0.64630105715E+01 -0.74395277344E+03  0.74555467541E+03  0.00000000000E+00 0. -1.
         22    1    1    2    0    0 -0.11055309797E+02 -0.23263263081E+01 -0.33314044289E+02  0.35177510084E+02  0.00000000000E+00 0.  1.
<mgrwt>
<rscale>  0 0.52995110E+02</rscale>
<asrwt>0</asrwt>
<pdfrwt beam="1">  1        2 0.18197092E+00 0.88713148E+02</pdfrwt>
<pdfrwt beam="2">  1       -2 0.40688368E-03 0.88713148E+02</pdfrwt>
<totfact> 0.14030956E+05</totfact>
</mgrwt>
</event>
<event>
 6    1  0.1535970E-002  0.1037703E+03  0.7546771E-02  0.1316023E+00
         -2   -1    0    0    0  501 -0.00000000000E+00  0.00000000000E+00  0.18799692355E+02  0.18799692355E+02  0.00000000000E+00 0. -1.
          2   -1    0    0  501    0  0.00000000000E+00 -0.00000000000E+00 -0.42596913780E+03  0.42596913780E+03  0.00000000000E+00 0.  1.
         23    2    1    2    0    0 -0.18737722326E+01  0.46183439596E+02 -0.37333151843E+03  0.38748509407E+03  0.92907773394E+02 0.  0.
         11    1    3    3    0    0 -0.32650650049E+02  0.57563564874E+02 -0.29894792949E+03  0.30618539073E+03  0.00000000000E+00 0.  1.
        -11    1    3    3    0    0  0.30776877817E+02 -0.11380125279E+02 -0.74383588940E+02  0.81299703340E+02  0.00000000000E+00 0. -1.
         22    1    1    2    0    0  0.18737722326E+01 -0.46183439596E+02 -0.33837927015E+02  0.57283736086E+02  0.00000000000E+00 0. -1.
<mgrwt>
<rscale>  0 0.84774584E+02</rscale>
<asrwt>0</asrwt>
<pdfrwt beam="1">  1        2 0.65533709E-01 0.10377030E+03</pdfrwt>
<pdfrwt beam="2">  1       -2 0.28922605E-02 0.10377030E+03</pdfrwt>
<totfact> 0.30179843E+04</totfact>
</mgrwt>
</event>
<event>
 6    1  0.1535970E-002  0.9245880E+02  0.7546771E-02  0.1415764E+00
         -4   -1    0    0    0  501 -0.00000000000E+00  0.00000000000E+00  0.23785952273E+03  0.23785952273E+03  0.00000000000E+00 0.  1.
          4   -1    0    0  501    0  0.00000000000E+00 -0.00000000000E+00 -0.11921642611E+02  0.11921642611E+02  0.00000000000E+00 0. -1.
         23    2    1    2    0    0 -0.10505122059E+02  0.65464733447E+01  0.18208056129E+03  0.20421057924E+03  0.91626502557E+02 0.  0.
         11    1    3    3    0    0 -0.17711589900E+02  0.28643891996E+02  0.17416998379E+02  0.37914704245E+02  0.00000000000E+00 0. -1.
        -11    1    3    3    0    0  0.72064678410E+01 -0.22097418651E+02  0.16466356291E+03  0.16629587499E+03  0.00000000000E+00 0.  1.
         22    1    1    2    0    0  0.10505122059E+02 -0.65464733447E+01  0.43857318834E+02  0.45570586106E+02  0.00000000000E+00 0. -1.
<mgrwt>
<rscale>  0 0.55927250E+02</rscale>
<asrwt>0</asrwt>
<pdfrwt beam="1">  1        4 0.18340990E-02 0.92458801E+02</pdfrwt>
<pdfrwt beam="2">  1       -4 0.36593769E-01 0.92458801E+02</pdfrwt>
<totfact> 0.12284915E+04</totfact>
</mgrwt>
</event>
<event>
 6    1  0.1535970E-002  0.9889633E+02  0.7546771E-02  0.1345915E+00
         -2   -1    0    0    0  501 -0.00000000000E+00  0.00000000000E+00  0.64053189294E+01  0.64053189294E+01  0.00000000000E+00 0.  1.
          2   -1    0    0  501    0  0.00000000000E+00 -0.00000000000E+00 -0.73160578168E+03  0.73160578168E+03  0.00000000000E+00 0. -1.
         23    2    1    2    0    0 -0.30913552697E+02  0.64630582727E+01 -0.62983905066E+03  0.63755604708E+03  0.93718005613E+02 0.  0.
         11    1    3    3    0    0 -0.10259302246E+02  0.37801393107E+02 -0.52016422130E+03  0.52163686193E+03  0.00000000000E+00 0. -1.
        -11    1    3    3    0    0 -0.20654250451E+02 -0.31338334834E+02 -0.10967482936E+03  0.11591918515E+03  0.00000000000E+00 0.  1.
         22    1    1    2    0    0  0.30913552697E+02 -0.64630582727E+01 -0.95361412090E+02  0.10045505352E+03  0.00000000000E+00 0.  1.
<mgrwt>
<rscale>  0 0.74343811E+02</rscale>
<asrwt>0</asrwt>
<pdfrwt beam="1">  1        2 0.11255477E+00 0.98896327E+02</pdfrwt>
<pdfrwt beam="2">  1       -2 0.98543340E-03 0.98896327E+02</pdfrwt>
<totfact> 0.77110378E+04</totfact>
</mgrwt>
</event>
<event>
 6    1  0.1535970E-002  0.9284248E+02  0.7546771E-02  0.1401395E+00
          2   -1    0    0  501    0  0.00000000000E+00  0.00000000000E+00  0.70744354888E+03  0.70744354888E+03  0.00000000000E+00 0. -1.
         -2   -1    0    0    0  501 -0.00000000000E+00 -0.00000000000E+00 -0.15338400612E+02  0.15338400612E+02  0.00000000000E+00 0.  1.
         23    2    1    2    0    0  0.15285257748E+02  0.78299712679E+00  0.69960454855E+03  0.70573808862E+03  0.91572229379E+02 0.  0.
         11    1    3    3    0    0  0.43579682665E+02 -0.25410366059E+02  0.49233335903E+03  0.49491111511E+03  0.00000000000E+00 0. -1.
        -11    1    3    3    0    0 -0.28294424917E+02  0.26193363186E+02  0.20727118951E+03  0.21082697351E+03  0.00000000000E+00 0.  1.
         22    1    1    2    0    0 -0.15285257748E+02 -0.78299712679E+00 -0.74994002785E+01  0.17043860873E+02  0.00000000000E+00 0.  1.
<mgrwt>
<rscale>  0 0.59158955E+02</rscale>
<asrwt>0</asrwt>
<pdfrwt beam="1">  1        2 0.10883744E+00 0.92842476E+02</pdfrwt>
<pdfrwt beam="2">  1       -2 0.23597545E-02 0.92842476E+02</pdfrwt>
<totfact> 0.22858180E+04</totfact>
</mgrwt>
</event>
<event>
 6    1  0.1535970E-002  0.9526480E+02  0.7546771E-02  0.1362324E+00
         -2   -1    0    0    0  501 -0.00000000000E+00  0.00000000000E+00  0.18297889328E+02  0.18297889328E+02  0.00000000000E+00 0.  1.
          2   -1    0    0  501    0  0.00000000000E+00 -0.00000000000E+00 -0.38320297691E+03  0.38320297691E+03  0.00000000000E+00 0. -1.
         23    2    1    2    0    0 -0.10038665936E+02 -0.24796126885E+02 -0.36230899552E+03  0.37462406553E+03  0.91431720532E+02 0.  0.
         11    1    3    3    0    0  0.10328083142E+02  0.32575923708E+02 -0.11852366013E+03  0.12335200897E+03  0.00000000000E+00 0. -1.
        -11    1    3    3    0    0 -0.20366749078E+02 -0.57372050592E+02 -0.24378533539E+03  0.25127205656E+03  0.00000000000E+00 0.  1.
         22    1    1    2    0    0  0.10038665936E+02  0.24796126885E+02 -0.25960920654E+01  0.26876800708E+02  0.00000000000E+00 0.  1.
<mgrwt>
<rscale>  0 0.69348147E+02</rscale>
<asrwt>0</asrwt>
<pdfrwt beam="1">  1        2 0.58954297E-01 0.95264801E+02</pdfrwt>
<pdfrwt beam="2">  1       -2 0.28150602E-02 0.95264801E+02</pdfrwt>
<totfact> 0.34773325E+04</totfact>
</mgrwt>
</event>
<event>
 6    1  0.1535970E-002  0.9137921E+02  0.7546771E-02  0.1403926E+00
         -2   -1    0    0    0  501 -0.00000000000E+00  0.00000000000E+00  0.85247426283E+02  0.85247426283E+02  0.00000000000E+00 0.  1.
          2   -1    0    0  501    0  0.00000000000E+00 -0.00000000000E+00 -0.48432058324E+02  0.48432058324E+02  0.00000000000E+00 0. -1.
         23    2    1    2    0    0  0.90472412351E+01  0.12492227709E+02 -0.25347639003E+01  0.91414354718E+02  0.90068034804E+02 0.  0.
         13    1    3    3    0    0  0.43827672256E+01  0.75101103295E+01  0.43761862380E+02  0.44617384557E+02  0.00000000000E+00 0.  1.
        -13    1    3    3    0    0  0.46644740095E+01  0.49821173792E+01 -0.46296626280E+02  0.46796970162E+02  0.00000000000E+00 0. -1.
         22    1    1    2    0    0 -0.90472412351E+01 -0.12492227709E+02  0.39350131860E+02  0.42265129888E+02  0.00000000000E+00 0. -1.
<mgrwt>
<rscale>  0 0.58571553E+02</rscale>
<asrwt>0</asrwt>
<pdfrwt beam="1">  1        2 0.74510859E-02 0.91379206E+02</pdfrwt>
<pdfrwt beam="2">  1       -2 0.13114989E-01 0.91379206E+02</pdfrwt>
<totfact> 0.34649646E+04</totfact>
</mgrwt>
</event>
<event>
 6    1  0.1535970E-002  0.9127694E+02  0.7546771E-02  0.1399734E+00
          2   -1    0    0  501    0  0.00000000000E+00  0.00000000000E+00  0.33883473993E+03  0.33883473993E+03  0.00000000000E+00 0. -1.
         -2   -1    0    0    0  501 -0.00000000000E+00 -0.00000000000E+00 -0.49414997129E+02  0.49414997129E+02  0.00000000000E+00 0.  1.
         23    2    1    2    0    0 -0.73654735078E+00  0.16518912853E+02  0.33107792313E+03  0.34342986455E+03  0.89766718202E+02 0.  0.
         13    1    3    3    0    0  0.26581229342E+02  0.41653346098E+02  0.24080801685E+03  0.24582527123E+03  0.00000000000E+00 0. -1.
        -13    1    3    3    0    0 -0.27317776693E+02 -0.25134433244E+02  0.90269906277E+02  0.97604593321E+02  0.00000000000E+00 0.  1.
         22    1    1    2    0    0  0.73654735078E+00 -0.16518912853E+02 -0.41658180327E+02  0.44819872512E+02  0.00000000000E+00 0.  1.
<mgrwt>
<rscale>  0 0.59548936E+02</rscale>
<asrwt>0</asrwt>
<pdfrwt beam="1">  1        2 0.52128420E-01 0.91276945E+02</pdfrwt>
<pdfrwt beam="2">  1       -2 0.76023074E-02 0.91276945E+02</pdfrwt>
<totfact> 0.90263543E+03</totfact>
</mgrwt>
</event>
<event>
 6    1  0.1535970E-002  0.9276722E+02  0.7546771E-02  0.1402436E+00
         -2   -1    0    0    0  501 -0.00000000000E+00  0.00000000000E+00  0.77554341474E+01  0.77554341474E+01  0.00000000000E+00 0.  1.
          2   -1    0    0  501    0  0.00000000000E+00 -0.00000000000E+00 -0.15502945206E+04  0.15502945206E+04  0.00000000000E+00 0. -1.
         23    2    1    2    0    0 -0.49768979030E+01 -0.14248301449E+02 -0.15399443899E+04  0.15427360376E+04  0.91531273975E+02 0.  0.
         11    1    3    3    0    0  0.74731285253E+01 -0.17482269437E+02 -0.64702082340E+02  0.67437651603E+02  0.00000000000E+00 0.  1.
        -11    1    3    3    0    0 -0.12450026428E+02  0.32339679881E+01 -0.14752423076E+04  0.14752983860E+04  0.00000000000E+00 0. -1.
         22    1    1    2    0    0  0.49768979030E+01  0.14248301449E+02 -0.25946965009E+01  0.15313917097E+02  0.00000000000E+00 0.  1.
<mgrwt>
<rscale>  0 0.58916403E+02</rscale>
<asrwt>0</asrwt>
<pdfrwt beam="1">  1        2 0.23850672E+00 0.92767223E+02</pdfrwt>
<pdfrwt beam="2">  1       -2 0.11931444E-02 0.92767223E+02</pdfrwt>
<totfact> 0.19904468E+04</totfact>
</mgrwt>
</event>
<event>
 6    1  0.1535970E-002  0.9407169E+02  0.7546771E-02  0.1383485E+00
         -1   -1    0    0    0  501 -0.00000000000E+00  0.00000000000E+00  0.38559089475E+01  0.38559089475E+01  0.00000000000E+00 0.  1.
          1   -1    0    0  501    0  0.00000000000E+00 -0.00000000000E+00 -0.88792954212E+03  0.88792954212E+03  0.00000000000E+00 0. -1.
         23    2    1    2    0    0 -0.32612126437E+01  0.19327000451E+02 -0.79703050296E+03  0.80256283639E+03  0.92007147746E+02 0.  0.
         11    1    3    3    0    0  0.58836960618E+01 -0.12970711404E+02 -0.18687685554E+02  0.23496527936E+02  0.00000000000E+00 0.  1.
        -11    1    3    3    0    0 -0.91449087055E+01  0.32297711855E+02 -0.77834281741E+03  0.77906630845E+03  0.00000000000E+00 0. -1.
         22    1    1    2    0    0  0.32612126437E+01 -0.19327000451E+02 -0.87043130203E+02  0.89222614678E+02  0.00000000000E+00 0.  1.
<mgrwt>
<rscale>  0 0.63556422E+02</rscale>
<asrwt>0</asrwt>
<pdfrwt beam="1">  1        1 0.13660474E+00 0.94071694E+02</pdfrwt>
<pdfrwt beam="2">  1       -1 0.59321589E-03 0.94071694E+02</pdfrwt>
<totfact> 0.69696156E+04</totfact>
</mgrwt>
</event>
<event>
 6    1  0.1535970E-002  0.9244613E+02  0.7546771E-02  0.1425232E+00
         -2   -1    0    0    0  501 -0.00000000000E+00  0.00000000000E+00  0.20065439363E+01  0.20065439363E+01  0.00000000000E+00 0.  1.
          2   -1    0    0  501    0  0.00000000000E+00 -0.00000000000E+00 -0.19683402089E+04  0.19683402089E+04  0.00000000000E+00 0. -1.
         23    2    1    2    0    0  0.68669409617E+01 -0.82136746124E+01 -0.19355143894E+04  0.19377208877E+04  0.91824113234E+02 0.  0.
         11    1    3    3    0    0 -0.40487852673E+02 -0.17264881459E+02 -0.99048411869E+03  0.99146161384E+03  0.00000000000E+00 0.  1.
        -11    1    3    3    0    0  0.47354793635E+02  0.90512068468E+01 -0.94503027075E+03  0.94625927391E+03  0.00000000000E+00 0. -1.
         22    1    1    2    0    0 -0.68669409617E+01  0.82136746124E+01 -0.30819275552E+02  0.32625865113E+02  0.00000000000E+00 0.  1.
<mgrwt>
<rscale>  0 0.53929176E+02</rscale>
<asrwt>0</asrwt>
<pdfrwt beam="1">  1        2 0.30282247E+00 0.92446131E+02</pdfrwt>
<pdfrwt beam="2">  1       -2 0.30869815E-03 0.92446131E+02</pdfrwt>
<totfact> 0.82034260E+04</totfact>
</mgrwt>
</event>
<event>
 6    1  0.1535970E-002  0.8826528E+02  0.7546771E-02  0.1438263E+00
          1   -1    0    0  501    0  0.00000000000E+00  0.00000000000E+00  0.58225650555E+03  0.58225650555E+03  0.00000000000E+00 0. -1.
         -1   -1    0    0    0  501 -0.00000000000E+00 -0.00000000000E+00 -0.41584198365E+01  0.41584198365E+01  0.00000000000E+00 0.  1.
         23    2    1    2    0    0  0.26902337458E+01 -0.97354531980E+01  0.52403182285E+03  0.53141331462E+03  0.87685478799E+02 0.  0.
         13    1    3    3    0    0 -0.40830525585E+02 -0.16772099691E+02  0.27000087166E+03  0.27358528075E+03  0.00000000000E+00 0. -1.
        -13    1    3    3    0    0  0.43520759331E+02  0.70366464935E+01  0.25403095119E+03  0.25782803387E+03  0.00000000000E+00 0.  1.
         22    1    1    2    0    0 -0.26902337458E+01  0.97354531980E+01  0.54066262862E+02  0.55001610763E+02  0.00000000000E+00 0.  1.
<mgrwt>
<rscale>  0 0.51336491E+02</rscale>
<asrwt>0</asrwt>
<pdfrwt beam="1">  1        1 0.89577859E-01 0.88265280E+02</pdfrwt>
<pdfrwt beam="2">  1       -1 0.63975736E-03 0.88265280E+02</pdfrwt>
<totfact> 0.11352682E+05</totfact>
</mgrwt>
</event>
<event>
 6    1  0.1535970E-002  0.9561638E+02  0.7546771E-02  0.1383674E+00
         -4   -1    0    0    0  501 -0.00000000000E+00  0.00000000000E+00  0.10420385057E+04  0.10420385057E+04  0.00000000000E+00 0.  1.
          4   -1    0    0  501    0  0.00000000000E+00 -0.00000000000E+00 -0.35061227596E+01  0.35061227596E+01  0.00000000000E+00 0. -1.
         23    2    1    2    0    0 -0.10246223492E+02 -0.15533516517E+02  0.96375910693E+03  0.96849063417E+03  0.93788149828E+02 0.  0.
         13    1    3    3    0    0  0.65957815690E+01  0.11225382444E+02  0.18063610263E+02  0.22266736654E+02  0.00000000000E+00 0. -1.
        -13    1    3    3    0    0 -0.16842005061E+02 -0.26758898961E+02  0.94569549667E+03  0.94622389752E+03  0.00000000000E+00 0.  1.
         22    1    1    2    0    0  0.10246223492E+02  0.15533516517E+02  0.74773276045E+02  0.77053994327E+02  0.00000000000E+00 0. -1.
<mgrwt>
<rscale>  0 0.63507776E+02</rscale>
<asrwt>0</asrwt>
<pdfrwt beam="1">  1        4 0.53940433E-03 0.95616381E+02</pdfrwt>
<pdfrwt beam="2">  1       -4 0.16031337E+00 0.95616381E+02</pdfrwt>
<totfact> 0.30145990E+03</totfact>
</mgrwt>
</event>
<event>
 6    1  0.1535970E-002  0.9413985E+02  0.7546771E-02  0.1385534E+00
         -1   -1    0    0    0  501 -0.00000000000E+00  0.00000000000E+00  0.10018406604E+03  0.10018406604E+03  0.00000000000E+00 0.  1.
          1   -1    0    0  501    0  0.00000000000E+00 -0.00000000000E+00 -0.31964579689E+02  0.31964579689E+02  0.00000000000E+00 0. -1.
         23    2    1    2    0    0  0.94786570512E+01 -0.16373447576E+02  0.54488121180E+02  0.10877162465E+03  0.92219175092E+02 0.  0.
         13    1    3    3    0    0 -0.34697396655E+02 -0.31871760895E+02  0.30961898036E+02  0.56376924421E+02  0.00000000000E+00 0. -1.
        -13    1    3    3    0    0  0.44176053707E+02  0.15498313319E+02  0.23526223144E+02  0.52394700230E+02  0.00000000000E+00 0.  1.
         22    1    1    2    0    0 -0.94786570512E+01  0.16373447576E+02  0.13731365173E+02  0.23377021079E+02  0.00000000000E+00 0. -1.
<mgrwt>
<rscale>  0 0.63031203E+02</rscale>
<asrwt>0</asrwt>
<pdfrwt beam="1">  1        1 0.49176277E-02 0.94139848E+02</pdfrwt>
<pdfrwt beam="2">  1       -1 0.15412933E-01 0.94139848E+02</pdfrwt>
<totfact> 0.45383474E+04</totfact>
</mgrwt>
</event>
<event>
 6    1  0.1535970E-002  0.1100889E+03  0.7546771E-02  0.1290785E+00
         -2   -1    0    0    0  501 -0.00000000000E+00  0.00000000000E+00  0.15747755661E+02  0.15747755661E+02  0.00000000000E+00 0.  1.
          2   -1    0    0  501    0  0.00000000000E+00 -0.00000000000E+00 -0.71251695915E+03  0.71251695915E+03  0.00000000000E+00 0. -1.
         23    2    1    2    0    0  0.51394032918E+02 -0.33768319593E+02 -0.62099135144E+03  0.63067409596E+03  0.91312160832E+02 0.  0.
         13    1    3    3    0    0  0.38427987591E+02 -0.63542911644E+02 -0.49622157329E+03  0.50174720891E+03  0.00000000000E+00 0.  1.
        -13    1    3    3    0    0  0.12966045327E+02  0.29774592051E+02 -0.12476977815E+03  0.12892688705E+03  0.00000000000E+00 0. -1.
         22    1    1    2    0    0 -0.51394032918E+02  0.33768319593E+02 -0.75777852049E+02  0.97590618857E+02  0.00000000000E+00 0. -1.
<mgrwt>
<rscale>  0 0.95173849E+02</rscale>
<asrwt>0</asrwt>
<pdfrwt beam="1">  1        2 0.10961801E+00 0.11008886E+03</pdfrwt>
<pdfrwt beam="2">  1       -2 0.24227313E-02 0.11008886E+03</pdfrwt>
<totfact> 0.22166937E+04</totfact>
</mgrwt>
</event>
<event>
 6    1  0.1535970E-002  0.9972797E+02  0.7546771E-02  0.1326774E+00
         -2   -1    0    0    0  501 -0.00000000000E+00  0.00000000000E+00  0.22458622957E+02  0.22458622957E+02  0.00000000000E+00 0.  1.
          2   -1    0    0  501    0  0.00000000000E+00 -0.00000000000E+00 -0.45357922736E+03  0.45357922736E+03  0.00000000000E+00 0. -1.
         23    2    1    2    0    0 -0.28007554227E+02  0.32614892413E+02 -0.41993753460E+03  0.43161696163E+03  0.89986189510E+02 0.  0.
         11    1    3    3    0    0 -0.18494361372E+02  0.36908927377E+01 -0.38421987095E+03  0.38468243178E+03  0.00000000000E+00 0. -1.
        -11    1    3    3    0    0 -0.95131928549E+01  0.28923999675E+02 -0.35717663656E+02  0.46934529853E+02  0.00000000000E+00 0.  1.
         22    1    1    2    0    0  0.28007554227E+02 -0.32614892413E+02 -0.11183069798E+02  0.44420888678E+02  0.00000000000E+00 0.  1.
<mgrwt>
<rscale>  0 0.80808124E+02</rscale>
<asrwt>0</asrwt>
<pdfrwt beam="1">  1        2 0.69781418E-01 0.99727973E+02</pdfrwt>
<pdfrwt beam="2">  1       -2 0.34551728E-02 0.99727973E+02</pdfrwt>
<totfact> 0.21674599E+04</totfact>
</mgrwt>
</event>
<event>
 6    1  0.1535970E-002  0.9202435E+02  0.7546771E-02  0.1399230E+00
          2   -1    0    0  501    0  0.00000000000E+00  0.00000000000E+00  0.75345933782E+03  0.75345933782E+03  0.00000000000E+00 0. -1.
         -2   -1    0    0    0  501 -0.00000000000E+00 -0.00000000000E+00 -0.40446016235E+01  0.40446016235E+01  0.00000000000E+00 0.  1.
         23    2    1    2    0    0 -0.15857166114E+02 -0.36208795500E+01  0.68059454811E+03  0.68678775477E+03  0.90575497267E+02 0.  0.
         11    1    3    3    0    0 -0.36603337647E+02 -0.66648128652E+01  0.11635106835E+03  0.12215480001E+03  0.00000000000E+00 0.  1.
        -11    1    3    3    0    0  0.20746171533E+02  0.30439333152E+01  0.56424347976E+03  0.56463295477E+03  0.00000000000E+00 0. -1.
         22    1    1    2    0    0  0.15857166114E+02  0.36208795500E+01  0.68820188084E+02  0.70716184666E+02  0.00000000000E+00 0. -1.
<mgrwt>
<rscale>  0 0.59668167E+02</rscale>
<asrwt>0</asrwt>
<pdfrwt beam="1">  1        2 0.11591671E+00 0.92024351E+02</pdfrwt>
<pdfrwt beam="2">  1       -2 0.62224700E-03 0.92024351E+02</pdfrwt>
<totfact> 0.14110563E+05</totfact>
</mgrwt>
</event>
<event>
 6    1  0.1535970E-002  0.7869493E+02  0.7546771E-02  0.1438249E+00
         -2   -1    0    0    0  501 -0.00000000000E+00  0.00000000000E+00  0.71145953917E+01  0.71145953917E+01  0.00000000000E+00 0.  1.
          2   -1    0    0  501    0  0.00000000000E+00 -0.00000000000E+00 -0.37831783533E+03  0.37831783533E+03  0.00000000000E+00 0. -1.
         23    2    1    2    0    0 -0.13393055397E+02 -0.48807017366E+01 -0.35599031588E+03  0.36458469126E+03  0.77393132245E+02 0.  0.
         13    1    3    3    0    0 -0.39819379298E+02 -0.70869522188E+01 -0.29904428680E+03  0.30176695202E+03  0.00000000000E+00 0. -1.
        -13    1    3    3    0    0  0.26426323901E+02  0.22062504822E+01 -0.56946029074E+02  0.62817739242E+02  0.00000000000E+00 0.  1.
         22    1    1    2    0    0  0.13393055397E+02  0.48807017366E+01 -0.15212924063E+02  0.20847739466E+02  0.00000000000E+00 0.  1.
<mgrwt>
<rscale>  0 0.51339217E+02</rscale>
<asrwt>0</asrwt>
<pdfrwt beam="1">  1        2 0.58202748E-01 0.78694931E+02</pdfrwt>
<pdfrwt beam="2">  1       -2 0.10945531E-02 0.78694931E+02</pdfrwt>
<totfact> 0.13256255E+05</totfact>
</mgrwt>
</event>
<event>
 6    1  0.1535970E-002  0.9464220E+02  0.7546771E-02  0.1375055E+00
         -1   -1    0    0    0  501 -0.00000000000E+00  0.00000000000E+00  0.82480869259E+01  0.82480869259E+01  0.00000000000E+00 0.  1.
          1   -1    0    0  501    0  0.00000000000E+00 -0.00000000000E+00 -0.77476878296E+03  0.77476878296E+03  0.00000000000E+00 0. -1.
         23    2    1    2    0    0 -0.26816400008E+01  0.21925114593E+02 -0.74863897440E+03  0.75459754879E+03  0.92028499942E+02 0.  0.
         11    1    3    3    0    0  0.14903292554E+02 -0.20826564281E+02 -0.72683748335E+02  0.77063487987E+02  0.00000000000E+00 0.  1.
        -11    1    3    3    0    0 -0.17584932554E+02  0.42751678874E+02 -0.67595522607E+03  0.67753406080E+03  0.00000000000E+00 0. -1.
         22    1    1    2    0    0  0.26816400008E+01 -0.21925114593E+02 -0.17881721629E+02  0.28419321094E+02  0.00000000000E+00 0.  1.
<mgrwt>
<rscale>  0 0.65781715E+02</rscale>
<asrwt>0</asrwt>
<pdfrwt beam="1">  1        1 0.11919520E+00 0.94642203E+02</pdfrwt>
<pdfrwt beam="2">  1       -1 0.12689364E-02 0.94642203E+02</pdfrwt>
<totfact> 0.29337498E+04</totfact>
</mgrwt>
</event>
<event>
 6    1  0.1535970E-002  0.9147517E+02  0.7546771E-02  0.1388271E+00
          1   -1    0    0  501    0  0.00000000000E+00  0.00000000000E+00  0.45627172331E+03  0.45627172331E+03  0.00000000000E+00 0. -1.
         -1   -1    0    0    0  501 -0.00000000000E+00 -0.00000000000E+00 -0.75287523976E+01  0.75287523976E+01  0.00000000000E+00 0.  1.
         23    2    1    2    0    0 -0.12255914726E+02  0.15461728512E+02  0.41264446958E+03  0.42266199868E+03  0.89322082108E+02 0.  0.
         11    1    3    3    0    0 -0.43274057078E+02  0.28159161386E+02  0.16863437460E+03  0.17636080824E+03  0.00000000000E+00 0. -1.
        -11    1    3    3    0    0  0.31018142351E+02 -0.12697432874E+02  0.24401009499E+03  0.24630119044E+03  0.00000000000E+00 0.  1.
         22    1    1    2    0    0  0.12255914726E+02 -0.15461728512E+02  0.36098501331E+02  0.41138477035E+02  0.00000000000E+00 0.  1.
<mgrwt>
<rscale>  0 0.62338900E+02</rscale>
<asrwt>0</asrwt>
<pdfrwt beam="1">  1        1 0.70195628E-01 0.91475171E+02</pdfrwt>
<pdfrwt beam="2">  1       -1 0.11582700E-02 0.91475171E+02</pdfrwt>
<totfact> 0.67834013E+04</totfact>
</mgrwt>
</event>
<event>
 6    1  0.1535970E-002  0.9435863E+02  0.7546771E-02  0.1419310E+00
         -4   -1    0    0    0  501 -0.00000000000E+00  0.00000000000E+00  0.16496205698E+02  0.16496205698E+02  0.00000000000E+00 0.  1.
          4   -1    0    0  501    0  0.00000000000E+00 -0.00000000000E+00 -0.17086957968E+03  0.17086957968E+03  0.00000000000E+00 0. -1.
         23    2    1    2    0    0  0.50543898707E+01 -0.97980689825E+01 -0.13019748910E+03  0.16079470293E+03  0.93712332749E+02 0.  0.
         11    1    3    3    0    0  0.46843699015E+01  0.41853011453E+02 -0.67504413949E+02  0.79564211752E+02  0.00000000000E+00 0. -1.
        -11    1    3    3    0    0  0.37001996927E+00 -0.51651080436E+02 -0.62693075154E+02  0.81230491180E+02  0.00000000000E+00 0.  1.
         22    1    1    2    0    0 -0.50543898707E+01  0.97980689825E+01 -0.24175884878E+02  0.26571082446E+02  0.00000000000E+00 0. -1.
<mgrwt>
<rscale>  0 0.55167098E+02</rscale>
<asrwt>0</asrwt>
<pdfrwt beam="1">  1        4 0.26287628E-01 0.94358626E+02</pdfrwt>
<pdfrwt beam="2">  1       -4 0.25378778E-02 0.94358626E+02</pdfrwt>
<totfact> 0.14008154E+04</totfact>
</mgrwt>
</event>
<event>
 6    1  0.1535970E-002  0.8456401E+02  0.7546771E-02  0.1374122E+00
          2   -1    0    0  501    0  0.00000000000E+00  0.00000000000E+00  0.72626169561E+03  0.72626169561E+03  0.00000000000E+00 0.  1.
         -2   -1    0    0    0  501 -0.00000000000E+00 -0.00000000000E+00 -0.10409449096E+02  0.10409449096E+02  0.00000000000E+00 0. -1.
         23    2    1    2    0    0 -0.27193642951E+01 -0.31325529385E+02  0.69214565397E+03  0.69729239075E+03  0.78500879902E+02 0.  0.
         13    1    3    3    0    0  0.14364256560E+02  0.42321374397E+01  0.53704099704E+03  0.53724973276E+03  0.00000000000E+00 0.  1.
        -13    1    3    3    0    0 -0.17083620856E+02 -0.35557666825E+02  0.15510465694E+03  0.16004265798E+03  0.00000000000E+00 0. -1.
         22    1    1    2    0    0  0.27193642951E+01  0.31325529385E+02  0.23706592539E+02  0.39378753957E+02  0.00000000000E+00 0. -1.
<mgrwt>
<rscale>  0 0.66034570E+02</rscale>
<asrwt>0</asrwt>
<pdfrwt beam="1">  1        2 0.11173253E+00 0.84564011E+02</pdfrwt>
<pdfrwt beam="2">  1       -2 0.16014543E-02 0.84564011E+02</pdfrwt>
<totfact> 0.38271422E+04</totfact>
</mgrwt>
</event>
<event>
 6    1  0.1535970E-002  0.9844590E+02  0.7546771E-02  0.1371678E+00
         -2   -1    0    0    0  501 -0.00000000000E+00  0.00000000000E+00  0.69171464227E+01  0.69171464227E+01  0.00000000000E+00 0.  1.
          2   -1    0    0  501    0  0.00000000000E+00 -0.00000000000E+00 -0.15200121537E+04  0.15200121537E+04  0.00000000000E+00 0. -1.
         23    2    1    2    0    0  0.36169575786E+01 -0.20430903215E+02 -0.14980957874E+04  0.15013269412E+04  0.96234566444E+02 0.  0.
         13    1    3    3    0    0  0.21118103035E+02 -0.21163324681E+02 -0.14470601019E+04  0.14473689229E+04  0.00000000000E+00 0. -1.
        -13    1    3    3    0    0 -0.17501145457E+02  0.73242146547E+00 -0.51035685517E+02  0.53958018215E+02  0.00000000000E+00 0.  1.
         22    1    1    2    0    0 -0.36169575786E+01  0.20430903215E+02 -0.14999219866E+02  0.25602358971E+02  0.00000000000E+00 0.  1.
<mgrwt>
<rscale>  0 0.66703007E+02</rscale>
<asrwt>0</asrwt>
<pdfrwt beam="1">  1        2 0.23384782E+00 0.98445904E+02</pdfrwt>
<pdfrwt beam="2">  1       -2 0.10641773E-02 0.98445904E+02</pdfrwt>
<totfact> 0.24368170E+04</totfact>
</mgrwt>
</event>
<event>
 6    1  0.1535970E-002  0.9177420E+02  0.7546771E-02  0.1408761E+00
          2   -1    0    0  501    0  0.00000000000E+00  0.00000000000E+00  0.35984128742E+03  0.35984128742E+03  0.00000000000E+00 0.  1.
         -2   -1    0    0    0  501 -0.00000000000E+00 -0.00000000000E+00 -0.78793299437E+01  0.78793299437E+01  0.00000000000E+00 0. -1.
         23    2    1    2    0    0  0.27806200372E+01 -0.13837094301E+02  0.31699796365E+03  0.33001547328E+03  0.90682449328E+02 0.  0.
         13    1    3    3    0    0 -0.21563135919E+02  0.28459399584E+02  0.20136459652E+03  0.20450576273E+03  0.00000000000E+00 0. -1.
        -13    1    3    3    0    0  0.24343755956E+02 -0.42296493884E+02  0.11563336713E+03  0.12550971055E+03  0.00000000000E+00 0.  1.
         22    1    1    2    0    0 -0.27806200372E+01  0.13837094301E+02  0.34963993829E+02  0.37705144091E+02  0.00000000000E+00 0. -1.
<mgrwt>
<rscale>  0 0.57471272E+02</rscale>
<asrwt>0</asrwt>
<pdfrwt beam="1">  1        2 0.55360185E-01 0.91774199E+02</pdfrwt>
<pdfrwt beam="2">  1       -2 0.12122049E-02 0.91774199E+02</pdfrwt>
<totfact> 0.12386617E+05</totfact>
</mgrwt>
</event>
<event>
 6    1  0.1535970E-002  0.9302705E+02  0.7546771E-02  0.1395287E+00
          2   -1    0    0  501    0  0.00000000000E+00  0.00000000000E+00  0.36749930984E+04  0.36749930984E+04  0.00000000000E+00 0.  1.
         -2   -1    0    0    0  501 -0.00000000000E+00 -0.00000000000E+00 -0.20285923400E+02  0.20285923400E+02  0.00000000000E+00 0. -1.
         23    2    1    2    0    0  0.33738216603E+01  0.16420454247E+02  0.36708370401E+04  0.36720156056E+04  0.91504200226E+02 0.  0.
         11    1    3    3    0    0 -0.20792351514E+02 -0.73360260628E+01  0.23986809994E+03  0.24087931528E+03  0.00000000000E+00 0. -1.
        -11    1    3    3    0    0  0.24166173174E+02  0.23756480310E+02  0.34309689401E+04  0.34311362903E+04  0.00000000000E+00 0.  1.
         22    1    1    2    0    0 -0.33738216603E+01 -0.16420454247E+02 -0.16129865047E+02  0.23263416273E+02  0.00000000000E+00 0. -1.
<mgrwt>
<rscale>  0 0.60610510E+02</rscale>
<asrwt>0</asrwt>
<pdfrwt beam="1">  1        2 0.56538302E+00 0.93027053E+02</pdfrwt>
<pdfrwt beam="2">  1       -2 0.31209142E-02 0.93027053E+02</pdfrwt>
<totfact> 0.33742333E+02</totfact>
</mgrwt>
</event>
<event>
 6    1  0.1535970E-002  0.9253059E+02  0.7546771E-02  0.1420775E+00
          3   -1    0    0  501    0  0.00000000000E+00  0.00000000000E+00  0.23002664325E+02  0.23002664325E+02  0.00000000000E+00 0. -1.
         -3   -1    0    0    0  501 -0.00000000000E+00 -0.00000000000E+00 -0.14073239396E+03  0.14073239396E+03  0.00000000000E+00 0.  1.
         23    2    1    2    0    0 -0.64188100762E+01 -0.94585872656E+01 -0.73841868922E+02  0.11838298762E+03  0.91821806536E+02 0.  0.
         13    1    3    3    0    0 -0.14018987762E+02  0.42922945802E+01 -0.92691624865E+02  0.93843982922E+02  0.00000000000E+00 0.  1.
        -13    1    3    3    0    0  0.76001776855E+01 -0.13750881846E+02  0.18849755942E+02  0.24539004696E+02  0.00000000000E+00 0. -1.
         22    1    1    2    0    0  0.64188100762E+01  0.94585872656E+01 -0.43887860713E+02  0.45352070668E+02  0.00000000000E+00 0.  1.
<mgrwt>
<rscale>  0 0.54857287E+02</rscale>
<asrwt>0</asrwt>
<pdfrwt beam="1">  1        3 0.35388715E-02 0.92530590E+02</pdfrwt>
<pdfrwt beam="2">  1       -3 0.21651137E-01 0.92530590E+02</pdfrwt>
<totfact> 0.15790782E+04</totfact>
</mgrwt>
</event>
<event>
 6    1  0.1535970E-002  0.9140387E+02  0.7546771E-02  0.1424522E+00
         -2   -1    0    0    0  501 -0.00000000000E+00  0.00000000000E+00  0.44692500305E+02  0.44692500305E+02  0.00000000000E+00 0.  1.
          2   -1    0    0  501    0  0.00000000000E+00 -0.00000000000E+00 -0.65184920003E+02  0.65184920003E+02  0.00000000000E+00 0. -1.
         23    2    1    2    0    0 -0.39377682654E+01 -0.10481962627E+02 -0.28912466616E+02  0.95867611262E+02  0.90715437516E+02 0.  0.
         11    1    3    3    0    0 -0.41034921308E+02 -0.37646006354E+01 -0.39110157381E+02  0.56812334884E+02  0.00000000000E+00 0. -1.
        -11    1    3    3    0    0  0.37097153042E+02 -0.67173619913E+01  0.10197690765E+02  0.39055276377E+02  0.00000000000E+00 0.  1.
         22    1    1    2    0    0  0.39377682654E+01  0.10481962627E+02  0.84200469172E+01  0.14009809046E+02  0.00000000000E+00 0. -1.
<mgrwt>
<rscale>  0 0.54075548E+02</rscale>
<asrwt>0</asrwt>
<pdfrwt beam="1">  1        2 0.10028449E-01 0.91403874E+02</pdfrwt>
<pdfrwt beam="2">  1       -2 0.68757693E-02 0.91403874E+02</pdfrwt>
<totfact> 0.65428848E+04</totfact>
</mgrwt>
</event>
<event>
 6    1  0.1535970E-002  0.9301129E+02  0.7546771E-02  0.1391173E+00
          2   -1    0    0  501    0  0.00000000000E+00  0.00000000000E+00  0.26362852981E+02  0.26362852981E+02  0.00000000000E+00 0. -1.
         -2   -1    0    0    0  501 -0.00000000000E+00 -0.00000000000E+00 -0.12673978472E+03  0.12673978472E+03  0.00000000000E+00 0.  1.
         23    2    1    2    0    0  0.14509120416E+02  0.10504837523E+02 -0.65074273462E+02  0.11351546973E+03  0.91270118958E+02 0.  0.
         11    1    3    3    0    0  0.62531482059E+00  0.12356285095E+02 -0.86793826750E+02  0.87671187752E+02  0.00000000000E+00 0.  1.
        -11    1    3    3    0    0  0.13883805596E+02 -0.18514475723E+01  0.21719553287E+02  0.25844281978E+02  0.00000000000E+00 0. -1.
         22    1    1    2    0    0 -0.14509120416E+02 -0.10504837523E+02 -0.35302658279E+02  0.39587167974E+02  0.00000000000E+00 0.  1.
<mgrwt>
<rscale>  0 0.61615824E+02</rscale>
<asrwt>0</asrwt>
<pdfrwt beam="1">  1        2 0.40558235E-02 0.93011294E+02</pdfrwt>
<pdfrwt beam="2">  1       -2 0.19498428E-01 0.93011294E+02</pdfrwt>
<totfact> 0.39624593E+04</totfact>
</mgrwt>
</event>
<event>
 6    1  0.1535970E-002  0.9205377E+02  0.7546771E-02  0.1408842E+00
         -2   -1    0    0    0  501 -0.00000000000E+00  0.00000000000E+00  0.96846024525E+01  0.96846024525E+01  0.00000000000E+00 0.  1.
          2   -1    0    0  501    0  0.00000000000E+00 -0.00000000000E+00 -0.29380370199E+03  0.29380370199E+03  0.00000000000E+00 0. -1.
         23    2    1    2    0    0 -0.11496184886E+02 -0.79331516013E+01 -0.25689790848E+03  0.27289270993E+03  0.90987903523E+02 0.  0.
         13    1    3    3    0    0  0.77449896079E+01  0.33436770978E+02 -0.47624717643E+02  0.58703630620E+02  0.00000000000E+00 0.  1.
        -13    1    3    3    0    0 -0.19241174494E+02 -0.41369922579E+02 -0.20927319084E+03  0.21418907931E+03  0.00000000000E+00 0. -1.
         22    1    1    2    0    0  0.11496184886E+02  0.79331516013E+01 -0.27221191048E+02  0.30595594508E+02  0.00000000000E+00 0.  1.
<mgrwt>
<rscale>  0 0.57452977E+02</rscale>
<asrwt>0</asrwt>
<pdfrwt beam="1">  1        2 0.45200573E-01 0.92053766E+02</pdfrwt>
<pdfrwt beam="2">  1       -2 0.14899387E-02 0.92053766E+02</pdfrwt>
<totfact> 0.11421307E+05</totfact>
</mgrwt>
</event>
<event>
 6    1  0.1535970E-002  0.1934415E+03  0.7546771E-02  0.1160793E+00
          2   -1    0    0  501    0  0.00000000000E+00  0.00000000000E+00  0.91747491594E+03  0.91747491594E+03  0.00000000000E+00 0. -1.
         -2   -1    0    0    0  501 -0.00000000000E+00 -0.00000000000E+00 -0.36157493181E+02  0.36157493181E+02  0.00000000000E+00 0.  1.
         23    2    1    2    0    0  0.11968930729E+03  0.12145844767E+03  0.44876162928E+03  0.48867843369E+03  0.91334149446E+02 0.  0.
         11    1    3    3    0    0  0.84056891450E+02  0.10877878448E+03  0.41768888755E+03  0.43972990771E+03  0.00000000000E+00 0.  1.
        -11    1    3    3    0    0  0.35632415844E+02  0.12679663192E+02  0.31072741730E+02  0.48948525985E+02  0.00000000000E+00 0. -1.
         22    1    1    2    0    0 -0.11968930729E+03 -0.12145844767E+03  0.43255579348E+03  0.46495397543E+03  0.00000000000E+00 0. -1.
<mgrwt>
<rscale>  0 0.18743781E+03</rscale>
<asrwt>0</asrwt>
<pdfrwt beam="1">  1        2 0.14114997E+00 0.19344149E+03</pdfrwt>
<pdfrwt beam="2">  1       -2 0.55626920E-02 0.19344149E+03</pdfrwt>
<totfact> 0.48600370E+03</totfact>
</mgrwt>
</event>
<event>
 6    1  0.1535970E-002  0.9068761E+02  0.7546771E-02  0.1393469E+00
         -2   -1    0    0    0  501 -0.00000000000E+00  0.00000000000E+00  0.66608307046E+01  0.66608307046E+01  0.00000000000E+00 0.  1.
          2   -1    0    0  501    0  0.00000000000E+00 -0.00000000000E+00 -0.51169605372E+03  0.51169605372E+03  0.00000000000E+00 0. -1.
         23    2    1    2    0    0  0.35597235729E+01 -0.18284253657E+02 -0.47008342139E+03  0.47875115251E+03  0.88753914837E+02 0.  0.
         13    1    3    3    0    0  0.10835719175E+02 -0.38650380194E+02 -0.43930046594E+03  0.44113055219E+03  0.00000000000E+00 0. -1.
        -13    1    3    3    0    0 -0.72759956020E+01  0.20366126538E+02 -0.30782955447E+02  0.37620600317E+02  0.00000000000E+00 0.  1.
         22    1    1    2    0    0 -0.35597235729E+01  0.18284253657E+02 -0.34951801621E+02  0.39605731911E+02  0.00000000000E+00 0.  1.
<mgrwt>
<rscale>  0 0.61052001E+02</rscale>
<asrwt>0</asrwt>
<pdfrwt beam="1">  1        2 0.78722492E-01 0.90687612E+02</pdfrwt>
<pdfrwt beam="2">  1       -2 0.10247429E-02 0.90687612E+02</pdfrwt>
<totfact> 0.10796781E+05</totfact>
</mgrwt>
</event>
<event>
 6    1  0.1535970E-002  0.9630597E+02  0.7546771E-02  0.1349783E+00
         -2   -1    0    0    0  501 -0.00000000000E+00  0.00000000000E+00  0.27256073589E+03  0.27256073589E+03  0.00000000000E+00 0.  1.
          2   -1    0    0  501    0  0.00000000000E+00 -0.00000000000E+00 -0.15104735184E+02  0.15104735184E+02  0.00000000000E+00 0. -1.
         23    2    1    2    0    0  0.21087401961E+02  0.24080288939E+02  0.19496835966E+03  0.21745689525E+03  0.90831168565E+02 0.  0.
         13    1    3    3    0    0  0.32174183470E+02  0.24232685041E+02  0.25599801771E+02  0.47725789223E+02  0.00000000000E+00 0. -1.
        -13    1    3    3    0    0 -0.11086781509E+02 -0.15239610180E+00  0.16936855789E+03  0.16973110602E+03  0.00000000000E+00 0.  1.
         22    1    1    2    0    0 -0.21087401961E+02 -0.24080288939E+02  0.62487641037E+02  0.70208575824E+02  0.00000000000E+00 0. -1.
<mgrwt>
<rscale>  0 0.73123330E+02</rscale>
<asrwt>0</asrwt>
<pdfrwt beam="1">  1        2 0.23238056E-02 0.96305971E+02</pdfrwt>
<pdfrwt beam="2">  1       -2 0.41932417E-01 0.96305971E+02</pdfrwt>
<totfact> 0.21431993E+04</totfact>
</mgrwt>
</event>
<event>
 6    1  0.1535970E-002  0.9567271E+02  0.7546771E-02  0.1371509E+00
          2   -1    0    0  501    0  0.00000000000E+00  0.00000000000E+00  0.15552048185E+02  0.15552048185E+02  0.00000000000E+00 0. -1.
         -2   -1    0    0    0  501 -0.00000000000E+00 -0.00000000000E+00 -0.23803063172E+03  0.23803063172E+03  0.00000000000E+00 0.  1.
         23    2    1    2    0    0 -0.22650923814E+02 -0.89609110880E+00 -0.15252271397E+03  0.18004567551E+03  0.92948370957E+02 0.  0.
         13    1    3    3    0    0 -0.34275517352E+02 -0.28030588560E+02 -0.28730010111E+02  0.52781989975E+02  0.00000000000E+00 0. -1.
        -13    1    3    3    0    0  0.11624593537E+02  0.27134497451E+02 -0.12379270386E+03  0.12726368553E+03  0.00000000000E+00 0.  1.
         22    1    1    2    0    0  0.22650923814E+02  0.89609110880E+00 -0.69955869566E+02  0.73537004397E+02  0.00000000000E+00 0.  1.
<mgrwt>
<rscale>  0 0.66749409E+02</rscale>
<asrwt>0</asrwt>
<pdfrwt beam="1">  1        2 0.23926230E-02 0.95672708E+02</pdfrwt>
<pdfrwt beam="2">  1       -2 0.36620095E-01 0.95672708E+02</pdfrwt>
<totfact> 0.26531585E+04</totfact>
</mgrwt>
</event>
<event>
 6    1  0.1535970E-002  0.9428094E+02  0.7546771E-02  0.1403924E+00
          2   -1    0    0  501    0  0.00000000000E+00  0.00000000000E+00  0.86182800187E+03  0.86182800187E+03  0.00000000000E+00 0. -1.
         -2   -1    0    0    0  501 -0.00000000000E+00 -0.00000000000E+00 -0.72418859477E+01  0.72418859477E+01  0.00000000000E+00 0.  1.
         23    2    1    2    0    0 -0.13783363423E+02 -0.26930532560E+01  0.84857008506E+03  0.85379159373E+03  0.93229086716E+02 0.  0.
         11    1    3    3    0    0 -0.25709929444E+02  0.78286401114E+00  0.83499197330E+03  0.83538805882E+03  0.00000000000E+00 0. -1.
        -11    1    3    3    0    0  0.11926566021E+02 -0.34759172671E+01  0.13578111765E+02  0.18403534905E+02  0.00000000000E+00 0.  1.
         22    1    1    2    0    0  0.13783363423E+02  0.26930532560E+01  0.60160308612E+01  0.15278294094E+02  0.00000000000E+00 0.  1.
<mgrwt>
<rscale>  0 0.58572069E+02</rscale>
<asrwt>0</asrwt>
<pdfrwt beam="1">  1        2 0.13258884E+00 0.94280943E+02</pdfrwt>
<pdfrwt beam="2">  1       -2 0.11141370E-02 0.94280943E+02</pdfrwt>
<totfact> 0.52722879E+04</totfact>
</mgrwt>
</event>
<event>
 6    1  0.1535970E-002  0.9107113E+02  0.7546771E-02  0.1413244E+00
          4   -1    0    0  501    0  0.00000000000E+00  0.00000000000E+00  0.17038584744E+03  0.17038584744E+03  0.00000000000E+00 0. -1.
         -4   -1    0    0    0  501 -0.00000000000E+00 -0.00000000000E+00 -0.16412364872E+02  0.16412364872E+02  0.00000000000E+00 0.  1.
         23    2    1    2    0    0 -0.13468495879E+02  0.30982317778E-01  0.14244449611E+03  0.16906917201E+03  0.90069690308E+02 0.  0.
         11    1    3    3    0    0  0.69298545336E+01  0.42966085231E+02  0.66530320639E+02  0.79500886336E+02  0.00000000000E+00 0.  1.
        -11    1    3    3    0    0 -0.20398350413E+02 -0.42935102913E+02  0.75914175467E+02  0.89568285674E+02  0.00000000000E+00 0. -1.
         22    1    1    2    0    0  0.13468495879E+02 -0.30982317778E-01  0.11528986460E+02  0.17729040300E+02  0.00000000000E+00 0.  1.
<mgrwt>
<rscale>  0 0.56476217E+02</rscale>
<asrwt>0</asrwt>
<pdfrwt beam="1">  1        4 0.26213206E-01 0.91071129E+02</pdfrwt>
<pdfrwt beam="2">  1       -4 0.25249793E-02 0.91071129E+02</pdfrwt>
<totfact> 0.14042054E+04</totfact>
</mgrwt>
</event>
<event>
 6    1  0.1535970E-002  0.9200912E+02  0.7546771E-02  0.1373608E+00
         -2   -1    0    0    0  501 -0.00000000000E+00  0.00000000000E+00  0.71721052768E+01  0.71721052768E+01  0.00000000000E+00 0.  1.
          2   -1    0    0  501    0  0.00000000000E+00 -0.00000000000E+00 -0.47497726717E+03  0.47497726717E+03  0.00000000000E+00 0. -1.
         23    2    1    2    0    0  0.62040184973E+01 -0.23824266175E+02 -0.37712460356E+03  0.38818635225E+03  0.88654339774E+02 0.  0.
         11    1    3    3    0    0  0.18771810352E+01  0.97487362830E+01 -0.33007821408E+03  0.33022748081E+03  0.00000000000E+00 0. -1.
        -11    1    3    3    0    0  0.43268374621E+01 -0.33573002458E+02 -0.47046389477E+02  0.57958871446E+02  0.00000000000E+00 0.  1.
         22    1    1    2    0    0 -0.62040184973E+01  0.23824266175E+02 -0.90680558331E+02  0.93963020192E+02  0.00000000000E+00 0.  1.
<mgrwt>
<rscale>  0 0.66174380E+02</rscale>
<asrwt>0</asrwt>
<pdfrwt beam="1">  1        2 0.73073447E-01 0.92009116E+02</pdfrwt>
<pdfrwt beam="2">  1       -2 0.11034005E-02 0.92009116E+02</pdfrwt>
<totfact> 0.10557864E+05</totfact>
</mgrwt>
</event>
<event>
 6    1  0.1535970E-002  0.1040291E+03  0.7546771E-02  0.1330221E+00
         -2   -1    0    0    0  501 -0.00000000000E+00  0.00000000000E+00  0.19511123329E+03  0.19511123329E+03  0.00000000000E+00 0.  1.
          2   -1    0    0  501    0  0.00000000000E+00 -0.00000000000E+00 -0.29003951707E+02  0.29003951707E+02  0.00000000000E+00 0. -1.
         23    2    1    2    0    0 -0.40692460112E+01  0.35408345989E+02  0.15520441820E+03  0.18684345095E+03  0.97733075290E+02 0.  0.
         13    1    3    3    0    0 -0.34345893076E+02  0.83168194559E+01  0.10978739717E+02  0.37004629208E+02  0.00000000000E+00 0. -1.
        -13    1    3    3    0    0  0.30276647065E+02  0.27091526533E+02  0.14422567849E+03  0.14983882174E+03  0.00000000000E+00 0.  1.
         22    1    1    2    0    0  0.40692460112E+01 -0.35408345989E+02  0.10902863381E+02  0.37271734045E+02  0.00000000000E+00 0. -1.
<mgrwt>
<rscale>  0 0.79589355E+02</rscale>
<asrwt>0</asrwt>
<pdfrwt beam="1">  1        2 0.44621465E-02 0.10402915E+03</pdfrwt>
<pdfrwt beam="2">  1       -2 0.30017112E-01 0.10402915E+03</pdfrwt>
<totfact> 0.16842285E+04</totfact>
</mgrwt>
</event>
<event>
 6    1  0.1535970E-002  0.9313162E+02  0.7546771E-02  0.1413822E+00
          2   -1    0    0  501    0  0.00000000000E+00  0.00000000000E+00  0.92739975221E+03  0.92739975221E+03  0.00000000000E+00 0.  1.
         -2   -1    0    0    0  501 -0.00000000000E+00 -0.00000000000E+00 -0.69502876711E+01  0.69502876711E+01  0.00000000000E+00 0. -1.
         23    2    1    2    0    0 -0.99675546026E+01  0.75127770222E+01  0.91655559693E+03  0.92127501910E+03  0.92291411271E+02 0.  0.
         13    1    3    3    0    0  0.38630503881E+02  0.19034352464E+02  0.44789103124E+03  0.44995666266E+03  0.00000000000E+00 0. -1.
        -13    1    3    3    0    0 -0.48598058483E+02 -0.11521575442E+02  0.46866456569E+03  0.47131835644E+03  0.00000000000E+00 0.  1.
         22    1    1    2    0    0  0.99675546026E+01 -0.75127770222E+01  0.38938676047E+01  0.13075020775E+02  0.00000000000E+00 0. -1.
<mgrwt>
<rscale>  0 0.56349711E+02</rscale>
<asrwt>0</asrwt>
<pdfrwt beam="1">  1        2 0.14267679E+00 0.93131620E+02</pdfrwt>
<pdfrwt beam="2">  1       -2 0.10692758E-02 0.93131620E+02</pdfrwt>
<totfact> 0.50807327E+04</totfact>
</mgrwt>
</event>
<event>
 6    1  0.1535970E-002  0.8660713E+02  0.7546771E-02  0.1391007E+00
          2   -1    0    0  501    0  0.00000000000E+00  0.00000000000E+00  0.27544641844E+03  0.27544641844E+03  0.00000000000E+00 0. -1.
         -2   -1    0    0    0  501 -0.00000000000E+00 -0.00000000000E+00 -0.11130382384E+02  0.11130382384E+02  0.00000000000E+00 0.  1.
         23    2    1    2    0    0 -0.14974414756E+02 -0.16452435624E+02  0.22908643186E+03  0.24491097854E+03  0.83701125495E+02 0.  0.
         13    1    3    3    0    0  0.12935538532E+02 -0.64926688057E+01  0.20809006178E+03  0.20859280121E+03  0.00000000000E+00 0. -1.
        -13    1    3    3    0    0 -0.27909953288E+02 -0.99597668180E+01  0.20996370081E+02  0.36318177325E+02  0.00000000000E+00 0.  1.
         22    1    1    2    0    0  0.14974414756E+02  0.16452435624E+02  0.35229604190E+02  0.41665822284E+02  0.00000000000E+00 0. -1.
<mgrwt>
<rscale>  0 0.61656891E+02</rscale>
<asrwt>0</asrwt>
<pdfrwt beam="1">  1        2 0.42376367E-01 0.86607125E+02</pdfrwt>
<pdfrwt beam="2">  1       -2 0.17123667E-02 0.86607125E+02</pdfrwt>
<totfact> 0.99226780E+04</totfact>
</mgrwt>
</event>
<event>
 6    1  0.1535970E-002  0.9159251E+02  0.7546771E-02  0.1407741E+00
          2   -1    0    0  501    0  0.00000000000E+00  0.00000000000E+00  0.14940154587E+04  0.14940154587E+04  0.00000000000E+00 0. -1.
         -2   -1    0    0    0  501 -0.00000000000E+00 -0.00000000000E+00 -0.26471095777E+01  0.26471095777E+01  0.00000000000E+00 0.  1.
         23    2    1    2    0    0  0.28811192257E+01 -0.14135578752E+02  0.14492630543E+04  0.14521544647E+04  0.90449285569E+02 0.  0.
         11    1    3    3    0    0 -0.21532717772E+02 -0.35729785371E+02  0.12055511031E+04  0.12062726631E+04  0.00000000000E+00 0. -1.
        -11    1    3    3    0    0  0.24413836998E+02  0.21594206619E+02  0.24371195121E+03  0.24588180160E+03  0.00000000000E+00 0.  1.
         22    1    1    2    0    0 -0.28811192257E+01  0.14135578752E+02  0.42105294767E+02  0.44508103555E+02  0.00000000000E+00 0. -1.
<mgrwt>
<rscale>  0 0.57700958E+02</rscale>
<asrwt>0</asrwt>
<pdfrwt beam="1">  1        2 0.22984786E+00 0.91592514E+02</pdfrwt>
<pdfrwt beam="2">  1       -2 0.40724882E-03 0.91592514E+02</pdfrwt>
<totfact> 0.96533145E+04</totfact>
</mgrwt>
</event>
<event>
 6    1  0.1535970E-002  0.9386538E+02  0.7546771E-02  0.1367120E+00
          4   -1    0    0  501    0  0.00000000000E+00  0.00000000000E+00  0.52698798252E+02  0.52698798252E+02  0.00000000000E+00 0. -1.
         -4   -1    0    0    0  501 -0.00000000000E+00 -0.00000000000E+00 -0.16980818370E+03  0.16980818370E+03  0.00000000000E+00 0.  1.
         23    2    1    2    0    0  0.25091822694E+02 -0.60663134944E+01  0.85214107228E+01  0.94251390760E+02  0.90245833666E+02 0.  0.
         11    1    3    3    0    0  0.44678517212E+02  0.22659827466E+02 -0.14976868941E+02  0.52287133066E+02  0.00000000000E+00 0.  1.
        -11    1    3    3    0    0 -0.19586694518E+02 -0.28726140960E+02  0.23498279664E+02  0.41964257694E+02  0.00000000000E+00 0. -1.
         22    1    1    2    0    0 -0.25091822694E+02  0.60663134944E+01 -0.12563079618E+03  0.12825559120E+03  0.00000000000E+00 0.  1.
<mgrwt>
<rscale>  0 0.67974488E+02</rscale>
<asrwt>0</asrwt>
<pdfrwt beam="1">  1        4 0.81075075E-02 0.93865383E+02</pdfrwt>
<pdfrwt beam="2">  1       -4 0.26124336E-01 0.93865383E+02</pdfrwt>
<totfact> 0.22352684E+03</totfact>
</mgrwt>
</event>
<event>
 6    1  0.1535970E-002  0.9318045E+02  0.7546771E-02  0.1384777E+00
         -2   -1    0    0    0  501 -0.00000000000E+00  0.00000000000E+00  0.34619540929E+02  0.34619540929E+02  0.00000000000E+00 0.  1.
          2   -1    0    0  501    0  0.00000000000E+00 -0.00000000000E+00 -0.14525138081E+03  0.14525138081E+03  0.00000000000E+00 0. -1.
         23    2    1    2    0    0  0.19471220716E+02  0.33079208175E+01 -0.12466670285E+03  0.15564184510E+03  0.91063309686E+02 0.  0.
         13    1    3    3    0    0  0.31356773325E+02 -0.11935011986E+02 -0.44079775235E+01  0.33839651451E+02  0.00000000000E+00 0.  1.
        -13    1    3    3    0    0 -0.11885552609E+02  0.15242932804E+02 -0.12025872532E+03  0.12180219365E+03  0.00000000000E+00 0. -1.
         22    1    1    2    0    0 -0.19471220716E+02 -0.33079208175E+01  0.14034862966E+02  0.24229076639E+02  0.00000000000E+00 0.  1.
<mgrwt>
<rscale>  0 0.63224666E+02</rscale>
<asrwt>0</asrwt>
<pdfrwt beam="1">  1        2 0.22346366E-01 0.93180455E+02</pdfrwt>
<pdfrwt beam="2">  1       -2 0.53260832E-02 0.93180455E+02</pdfrwt>
<totfact> 0.38084237E+04</totfact>
</mgrwt>
</event>
<event>
 6    1  0.1535970E-002  0.9358908E+02  0.7546771E-02  0.1414546E+00
         -2   -1    0    0    0  501 -0.00000000000E+00  0.00000000000E+00  0.22449851149E+02  0.22449851149E+02  0.00000000000E+00 0.  1.
          2   -1    0    0  501    0  0.00000000000E+00 -0.00000000000E+00 -0.32787580118E+03  0.32787580118E+03  0.00000000000E+00 0. -1.
         23    2    1    2    0    0 -0.39603741937E+01 -0.11499233103E+02 -0.31879710710E+03  0.33225067606E+03  0.92795470362E+02 0.  0.
         13    1    3    3    0    0 -0.23989097061E+02 -0.47878097705E+01 -0.30716278215E+03  0.30813531871E+03  0.00000000000E+00 0. -1.
        -13    1    3    3    0    0  0.20028722867E+02 -0.67114233323E+01 -0.11634324950E+02  0.24115357345E+02  0.00000000000E+00 0.  1.
         22    1    1    2    0    0  0.39603741937E+01  0.11499233103E+02  0.13371157072E+02  0.18074976269E+02  0.00000000000E+00 0.  1.
<mgrwt>
<rscale>  0 0.56191565E+02</rscale>
<asrwt>0</asrwt>
<pdfrwt beam="1">  1        2 0.50442428E-01 0.93589082E+02</pdfrwt>
<pdfrwt beam="2">  1       -2 0.34538235E-02 0.93589082E+02</pdfrwt>
<totfact> 0.30335688E+04</totfact>
</mgrwt>
</event>
<event>
 6    1  0.1535970E-002  0.9673638E+02  0.7546771E-02  0.1344218E+00
          2   -1    0    0  501    0  0.00000000000E+00  0.00000000000E+00  0.71660612267E+02  0.71660612267E+02  0.00000000000E+00 0. -1.
         -2   -1    0    0    0  501 -0.00000000000E+00 -0.00000000000E+00 -0.67789834288E+02  0.67789834288E+02  0.00000000000E+00 0.  1.
         23    2    1    2    0    0 -0.29465644575E+02 -0.18409892800E+02  0.23493135515E+02  0.99548250145E+02  0.90281661081E+02 0.  0.
         11    1    3    3    0    0 -0.46430933792E+02 -0.27860610618E+02  0.45119102413E+02  0.70482470441E+02  0.00000000000E+00 0. -1.
        -11    1    3    3    0    0  0.16965289218E+02  0.94507178183E+01 -0.21625966899E+02  0.29065779704E+02  0.00000000000E+00 0.  1.
         22    1    1    2    0    0  0.29465644575E+02  0.18409892800E+02 -0.19622357536E+02  0.39902196410E+02  0.00000000000E+00 0.  1.
<mgrwt>
<rscale>  0 0.74888037E+02</rscale>
<asrwt>0</asrwt>
<pdfrwt beam="1">  1        2 0.11024710E-01 0.96736377E+02</pdfrwt>
<pdfrwt beam="2">  1       -2 0.10429205E-01 0.96736377E+02</pdfrwt>
<totfact> 0.31000509E+04</totfact>
</mgrwt>
</event>
<event>
 6    1  0.1535970E-002  0.9451138E+02  0.7546771E-02  0.1387670E+00
         -1   -1    0    0    0  501 -0.00000000000E+00  0.00000000000E+00  0.31809800303E+02  0.31809800303E+02  0.00000000000E+00 0.  1.
          1   -1    0    0  501    0  0.00000000000E+00 -0.00000000000E+00 -0.18889535179E+03  0.18889535179E+03  0.00000000000E+00 0. -1.
         23    2    1    2    0    0  0.73380786800E+01 -0.16505370542E+02 -0.17267318805E+03  0.19684621102E+03  0.92769209681E+02 0.  0.
         11    1    3    3    0    0  0.49834572522E+01  0.10244498611E+02  0.81707234912E+01  0.14019462199E+02  0.00000000000E+00 0.  1.
        -11    1    3    3    0    0  0.23546214278E+01 -0.26749869153E+02 -0.18084391154E+03  0.18282674882E+03  0.00000000000E+00 0. -1.
         22    1    1    2    0    0 -0.73380786800E+01  0.16505370542E+02  0.15587636565E+02  0.23858941073E+02  0.00000000000E+00 0.  1.
<mgrwt>
<rscale>  0 0.62490068E+02</rscale>
<asrwt>0</asrwt>
<pdfrwt beam="1">  1        1 0.29060822E-01 0.94511380E+02</pdfrwt>
<pdfrwt beam="2">  1       -1 0.48938156E-02 0.94511380E+02</pdfrwt>
<totfact> 0.25491280E+04</totfact>
</mgrwt>
</event>
<event>
 6    1  0.1535970E-002  0.9172226E+02  0.7546771E-02  0.1413378E+00
          2   -1    0    0  501    0  0.00000000000E+00  0.00000000000E+00  0.17925618745E+04  0.17925618745E+04  0.00000000000E+00 0. -1.
         -2   -1    0    0    0  501 -0.00000000000E+00 -0.00000000000E+00 -0.20069238560E+01  0.20069238560E+01  0.00000000000E+00 0.  1.
         23    2    1    2    0    0  0.10758749927E+02  0.75722503491E+01  0.17370548384E+04  0.17394747725E+04  0.90773800549E+02 0.  0.
         13    1    3    3    0    0 -0.28931640088E+02  0.23429845312E+02  0.12481933390E+04  0.12487484170E+04  0.00000000000E+00 0. -1.
        -13    1    3    3    0    0  0.39690390015E+02 -0.15857594963E+02  0.48886149939E+03  0.49072635548E+03  0.00000000000E+00 0.  1.
         22    1    1    2    0    0 -0.10758749927E+02 -0.75722503491E+01  0.53500112241E+02  0.55094025857E+02  0.00000000000E+00 0.  1.
<mgrwt>
<rscale>  0 0.56446881E+02</rscale>
<asrwt>0</asrwt>
<pdfrwt beam="1">  1        2 0.27577747E+00 0.91722258E+02</pdfrwt>
<pdfrwt beam="2">  1       -2 0.30875895E-03 0.91722258E+02</pdfrwt>
<totfact> 0.10039777E+05</totfact>
</mgrwt>
</event>
<event>
 6    1  0.1535970E-002  0.9134150E+02  0.7546771E-02  0.1425510E+00
          2   -1    0    0  501    0  0.00000000000E+00  0.00000000000E+00  0.34991911154E+03  0.34991911154E+03  0.00000000000E+00 0. -1.
         -2   -1    0    0    0  501 -0.00000000000E+00 -0.00000000000E+00 -0.10744179554E+02  0.10744179554E+02  0.00000000000E+00 0.  1.
         23    2    1    2    0    0 -0.48938432711E+01  0.99096990303E+01  0.33730528077E+03  0.34945403454E+03  0.90670380964E+02 0.  0.
         11    1    3    3    0    0 -0.26649054292E+02  0.14772590643E+02  0.35317905767E+02  0.46644999697E+02  0.00000000000E+00 0.  1.
        -11    1    3    3    0    0  0.21755211021E+02 -0.48628916124E+01  0.30198737500E+03  0.30280903484E+03  0.00000000000E+00 0. -1.
         22    1    1    2    0    0  0.48938432711E+01 -0.99096990303E+01  0.18696512159E+01  0.11209256554E+02  0.00000000000E+00 0.  1.
<mgrwt>
<rscale>  0 0.53872063E+02</rscale>
<asrwt>0</asrwt>
<pdfrwt beam="1">  1        2 0.53833701E-01 0.91341501E+02</pdfrwt>
<pdfrwt beam="2">  1       -2 0.16529510E-02 0.91341501E+02</pdfrwt>
<totfact> 0.81929073E+04</totfact>
</mgrwt>
</event>
<event>
 6    1  0.1535970E-002  0.1269481E+03  0.7546771E-02  0.1250560E+00
          2   -1    0    0  501    0  0.00000000000E+00  0.00000000000E+00  0.20688605386E+03  0.20688605386E+03  0.00000000000E+00 0. -1.
         -2   -1    0    0    0  501 -0.00000000000E+00 -0.00000000000E+00 -0.13143053314E+03  0.13143053314E+03  0.00000000000E+00 0.  1.
         23    2    1    2    0    0 -0.32916488914E+02  0.80801213449E+02  0.16836574715E+03  0.21086211860E+03  0.92214298836E+02 0.  0.
         13    1    3    3    0    0  0.52904787492E+01 -0.79643043944E+01 -0.61551077406E+01  0.11371220743E+02  0.00000000000E+00 0.  1.
        -13    1    3    3    0    0 -0.38206967663E+02  0.88765517844E+02  0.17452085489E+03  0.19949089786E+03  0.00000000000E+00 0. -1.
         22    1    1    2    0    0  0.32916488914E+02 -0.80801213449E+02 -0.92910226440E+02  0.12745446840E+03  0.00000000000E+00 0.  1.
<mgrwt>
<rscale>  0 0.11558707E+03</rscale>
<asrwt>0</asrwt>
<pdfrwt beam="1">  1        2 0.31828624E-01 0.12694805E+03</pdfrwt>
<pdfrwt beam="2">  1       -2 0.20220082E-01 0.12694805E+03</pdfrwt>
<totfact> 0.32562698E+03</totfact>
</mgrwt>
</event>
<event>
 6    1  0.1535970E-002  0.9265888E+02  0.7546771E-02  0.1419071E+00
          2   -1    0    0  501    0  0.00000000000E+00  0.00000000000E+00  0.32235556886E+03  0.32235556886E+03  0.00000000000E+00 0. -1.
         -2   -1    0    0    0  501 -0.00000000000E+00 -0.00000000000E+00 -0.10386136554E+02  0.10386136554E+02  0.00000000000E+00 0.  1.
         23    2    1    2    0    0  0.11427364495E+02  0.24438373578E+01  0.30579497688E+03  0.31952501521E+03  0.91919042942E+02 0.  0.
         11    1    3    3    0    0 -0.39043945806E+01  0.44604788293E+02  0.11229370499E+03  0.12089130496E+03  0.00000000000E+00 0.  1.
        -11    1    3    3    0    0  0.15331759075E+02 -0.42160950935E+02  0.19350127190E+03  0.19863371025E+03  0.00000000000E+00 0. -1.
         22    1    1    2    0    0 -0.11427364495E+02 -0.24438373578E+01  0.61744554281E+01  0.13216690212E+02  0.00000000000E+00 0.  1.
<mgrwt>
<rscale>  0 0.55217853E+02</rscale>
<asrwt>0</asrwt>
<pdfrwt beam="1">  1        2 0.49593157E-01 0.92658877E+02</pdfrwt>
<pdfrwt beam="2">  1       -2 0.15978674E-02 0.92658877E+02</pdfrwt>
<totfact> 0.93898568E+04</totfact>
</mgrwt>
</event>
<event>
 6    1  0.1535970E-002  0.1075400E+03  0.7546771E-02  0.1299226E+00
          2   -1    0    0  501    0  0.00000000000E+00  0.00000000000E+00  0.43858403394E+03  0.43858403394E+03  0.00000000000E+00 0. -1.
         -2   -1    0    0    0  501 -0.00000000000E+00 -0.00000000000E+00 -0.43176072336E+02  0.43176072336E+02  0.00000000000E+00 0.  1.
         23    2    1    2    0    0 -0.12617189583E+02 -0.54965773751E+02  0.40970270445E+03  0.42358133498E+03  0.91566432452E+02 0.  0.
         13    1    3    3    0    0  0.91955932945E+01 -0.42625774982E+02  0.66857044253E+02  0.79820924544E+02  0.00000000000E+00 0.  1.
        -13    1    3    3    0    0 -0.21812782877E+02 -0.12339998769E+02  0.34284566019E+03  0.34376041043E+03  0.00000000000E+00 0. -1.
         22    1    1    2    0    0  0.12617189583E+02  0.54965773751E+02 -0.14294742843E+02  0.58178771300E+02  0.00000000000E+00 0.  1.
<mgrwt>
<rscale>  0 0.91514119E+02</rscale>
<asrwt>0</asrwt>
<pdfrwt beam="1">  1        2 0.67474464E-01 0.10753995E+03</pdfrwt>
<pdfrwt beam="2">  1       -2 0.66424730E-02 0.10753995E+03</pdfrwt>
<totfact> 0.85469122E+03</totfact>
</mgrwt>
</event>
<event>
 6    1  0.1535970E-002  0.8934298E+02  0.7546771E-02  0.1373964E+00
         -4   -1    0    0    0  501 -0.00000000000E+00  0.00000000000E+00  0.10541079929E+02  0.10541079929E+02  0.00000000000E+00 0.  1.
          4   -1    0    0  501    0  0.00000000000E+00 -0.00000000000E+00 -0.32061663262E+03  0.32061663262E+03  0.00000000000E+00 0. -1.
         23    2    1    2    0    0 -0.26714910817E+02 -0.95967340575E+00 -0.24644879147E+03  0.26214342289E+03  0.85249984850E+02 0.  0.
         13    1    3    3    0    0 -0.33190604198E+02 -0.37920450815E+02 -0.11761939862E+03  0.12796053973E+03  0.00000000000E+00 0.  1.
        -13    1    3    3    0    0  0.64756933811E+01  0.36960777409E+02 -0.12882939285E+03  0.13418288316E+03  0.00000000000E+00 0. -1.
         22    1    1    2    0    0  0.26714910817E+02  0.95967340575E+00 -0.63626761229E+02  0.69014289661E+02  0.00000000000E+00 0.  1.
<mgrwt>
<rscale>  0 0.66077523E+02</rscale>
<asrwt>0</asrwt>
<pdfrwt beam="1">  1        4 0.49325628E-01 0.89342976E+02</pdfrwt>
<pdfrwt beam="2">  1       -4 0.16217049E-02 0.89342976E+02</pdfrwt>
<totfact> 0.81435832E+03</totfact>
</mgrwt>
</event>
<event>
 6    1  0.1535970E-002  0.9306658E+02  0.7546771E-02  0.1410002E+00
         -2   -1    0    0    0  501 -0.00000000000E+00  0.00000000000E+00  0.31007627181E+01  0.31007627181E+01  0.00000000000E+00 0. -1.
          2   -1    0    0  501    0  0.00000000000E+00 -0.00000000000E+00 -0.95361595528E+03  0.95361595528E+03  0.00000000000E+00 0.  1.
         23    2    1    2    0    0 -0.13120705937E+02  0.20112468558E+01 -0.88432193383E+03  0.88920564083E+03  0.92115096489E+02 0.  0.
         13    1    3    3    0    0 -0.53256759269E+01  0.37188873729E+02 -0.17585737698E+03  0.17982544924E+03  0.00000000000E+00 0. -1.
        -13    1    3    3    0    0 -0.77950300100E+01 -0.35177626873E+02 -0.70846455685E+03  0.70938019160E+03  0.00000000000E+00 0.  1.
         22    1    1    2    0    0  0.13120705937E+02 -0.20112468558E+01 -0.66193258730E+02  0.67511077161E+02  0.00000000000E+00 0. -1.
<mgrwt>
<rscale>  0 0.57193341E+02</rscale>
<asrwt>0</asrwt>
<pdfrwt beam="1">  1        2 0.14671005E+00 0.93066584E+02</pdfrwt>
<pdfrwt beam="2">  1       -2 0.47704073E-03 0.93066584E+02</pdfrwt>
<totfact> 0.15275310E+05</totfact>
</mgrwt>
</event>
<event>
 6    1  0.1535970E-002  0.9510910E+02  0.7546771E-02  0.1366857E+00
         -1   -1    0    0    0  501 -0.00000000000E+00  0.00000000000E+00  0.22335894967E+02  0.22335894967E+02  0.00000000000E+00 0.  1.
          1   -1    0    0  501    0  0.00000000000E+00 -0.00000000000E+00 -0.24988018402E+03  0.24988018402E+03  0.00000000000E+00 0. -1.
         23    2    1    2    0    0 -0.19460893651E+02  0.15571435469E+02 -0.22826004017E+03  0.24728200022E+03  0.91785324041E+02 0.  0.
         13    1    3    3    0    0 -0.43208488487E+02 -0.34468418445E+01 -0.20347275163E+03  0.20803849368E+03  0.00000000000E+00 0. -1.
        -13    1    3    3    0    0  0.23747594835E+02  0.19018277314E+02 -0.24787288541E+02  0.39243506541E+02  0.00000000000E+00 0.  1.
         22    1    1    2    0    0  0.19460893651E+02 -0.15571435469E+02  0.71575111875E+00  0.24934078767E+02  0.00000000000E+00 0.  1.
<mgrwt>
<rscale>  0 0.68048749E+02</rscale>
<asrwt>0</asrwt>
<pdfrwt beam="1">  1        1 0.38443108E-01 0.95109104E+02</pdfrwt>
<pdfrwt beam="2">  1       -1 0.34362913E-02 0.95109104E+02</pdfrwt>
<totfact> 0.30284886E+04</totfact>
</mgrwt>
</event>
<event>
 6    1  0.1535970E-002  0.9307852E+02  0.7546771E-02  0.1374264E+00
          2   -1    0    0  501    0  0.00000000000E+00  0.00000000000E+00  0.42184753067E+03  0.42184753067E+03  0.00000000000E+00 0.  1.
         -2   -1    0    0    0  501 -0.00000000000E+00 -0.00000000000E+00 -0.90215069577E+01  0.90215069577E+01  0.00000000000E+00 0. -1.
         23    2    1    2    0    0 -0.67815561427E+01 -0.22525623511E+02  0.37454826314E+03  0.38594042567E+03  0.90056746136E+02 0.  0.
         11    1    3    3    0    0 -0.19800941941E+02 -0.53125506451E+02  0.28086308480E+03  0.28652830426E+03  0.00000000000E+00 0.  1.
        -11    1    3    3    0    0  0.13019385798E+02  0.30599882940E+02  0.93685178338E+02  0.99412121408E+02  0.00000000000E+00 0. -1.
         22    1    1    2    0    0  0.67815561427E+01  0.22525623511E+02  0.38277760573E+02  0.44928611961E+02  0.00000000000E+00 0. -1.
<mgrwt>
<rscale>  0 0.65995805E+02</rscale>
<asrwt>0</asrwt>
<pdfrwt beam="1">  1        2 0.64899605E-01 0.93078519E+02</pdfrwt>
<pdfrwt beam="2">  1       -2 0.13879245E-02 0.93078519E+02</pdfrwt>
<totfact> 0.86604282E+04</totfact>
</mgrwt>
</event>
<event>
 6    1  0.1535970E-002  0.9319069E+02  0.7546771E-02  0.1391748E+00
          1   -1    0    0  501    0  0.00000000000E+00  0.00000000000E+00  0.71081809926E+02  0.71081809926E+02  0.00000000000E+00 0. -1.
         -1   -1    0    0    0  501 -0.00000000000E+00 -0.00000000000E+00 -0.45266558509E+02  0.45266558509E+02  0.00000000000E+00 0.  1.
         23    2    1    2    0    0 -0.17182481307E+02  0.40181081272E+01  0.30563542781E+02  0.98074640636E+02  0.91504765624E+02 0.  0.
         11    1    3    3    0    0 -0.45802547332E+02  0.25990495537E+02  0.31440987435E+01  0.52756654151E+02  0.00000000000E+00 0.  1.
        -11    1    3    3    0    0  0.28620066025E+02 -0.21972387409E+02  0.27419444037E+02  0.45317986485E+02  0.00000000000E+00 0. -1.
         22    1    1    2    0    0  0.17182481307E+02 -0.40181081272E+01 -0.47482913637E+01  0.18273727799E+02  0.00000000000E+00 0. -1.
<mgrwt>
<rscale>  0 0.61473967E+02</rscale>
<asrwt>0</asrwt>
<pdfrwt beam="1">  1        1 0.10935663E-01 0.93190692E+02</pdfrwt>
<pdfrwt beam="2">  1       -1 0.69640859E-02 0.93190692E+02</pdfrwt>
<totfact> 0.52178576E+04</totfact>
</mgrwt>
</event>
<event>
 6    1  0.1535970E-002  0.9760853E+02  0.7546771E-02  0.1344949E+00
         -2   -1    0    0    0  501 -0.00000000000E+00  0.00000000000E+00  0.11463869856E+03  0.11463869856E+03  0.00000000000E+00 0.  1.
          2   -1    0    0  501    0  0.00000000000E+00 -0.00000000000E+00 -0.45517001974E+02  0.45517001974E+02  0.00000000000E+00 0. -1.
         23    2    1    2    0    0 -0.22686984237E+02 -0.24510356512E+02  0.18249605676E+02  0.99299916391E+02  0.91716783948E+02 0.  0.
         11    1    3    3    0    0 -0.66517426657E+01 -0.86585819777E+01  0.55060262866E+02  0.56132426183E+02  0.00000000000E+00 0.  1.
        -11    1    3    3    0    0 -0.16035241572E+02 -0.15851774535E+02 -0.36810657189E+02  0.43167490208E+02  0.00000000000E+00 0. -1.
         22    1    1    2    0    0  0.22686984237E+02  0.24510356512E+02  0.50872090906E+02  0.60855784140E+02  0.00000000000E+00 0. -1.
<mgrwt>
<rscale>  0 0.74653028E+02</rscale>
<asrwt>0</asrwt>
<pdfrwt beam="1">  1        2 0.70026157E-02 0.97608531E+02</pdfrwt>
<pdfrwt beam="2">  1       -2 0.17636723E-01 0.97608531E+02</pdfrwt>
<totfact> 0.23351885E+04</totfact>
</mgrwt>
</event>
<event>
 6    1  0.1535970E-002  0.9306038E+02  0.7546771E-02  0.1405929E+00
         -3   -1    0    0    0  501 -0.00000000000E+00  0.00000000000E+00  0.29934762768E+02  0.29934762768E+02  0.00000000000E+00 0.  1.
          3   -1    0    0  501    0  0.00000000000E+00 -0.00000000000E+00 -0.99544782943E+02  0.99544782943E+02  0.00000000000E+00 0. -1.
         23    2    1    2    0    0  0.12697951782E+02  0.62453406291E+01 -0.67958550587E+02  0.11523280535E+03  0.91978217924E+02 0.  0.
         11    1    3    3    0    0 -0.24112145946E+02  0.19156799044E+02  0.62246191087E+01  0.31418536166E+02  0.00000000000E+00 0.  1.
        -11    1    3    3    0    0  0.36810097729E+02 -0.12911458415E+02 -0.74183169696E+02  0.83814269187E+02  0.00000000000E+00 0. -1.
         22    1    1    2    0    0 -0.12697951782E+02 -0.62453406291E+01 -0.16514695876E+01  0.14246740358E+02  0.00000000000E+00 0.  1.
<mgrwt>
<rscale>  0 0.58112304E+02</rscale>
<asrwt>0</asrwt>
<pdfrwt beam="1">  1        3 0.15314582E-01 0.93060383E+02</pdfrwt>
<pdfrwt beam="2">  1       -3 0.46053482E-02 0.93060383E+02</pdfrwt>
<totfact> 0.19115214E+04</totfact>
</mgrwt>
</event>
<event>
 6    1  0.1535970E-002  0.9369993E+02  0.7546771E-02  0.1395086E+00
         -2   -1    0    0    0  501 -0.00000000000E+00  0.00000000000E+00  0.74362137371E+01  0.74362137371E+01  0.00000000000E+00 0.  1.
          2   -1    0    0  501    0  0.00000000000E+00 -0.00000000000E+00 -0.46649573317E+03  0.46649573317E+03  0.00000000000E+00 0. -1.
         23    2    1    2    0    0 -0.10165332199E+02  0.12943187452E+02 -0.43365440876E+03  0.44366183411E+03  0.92243247630E+02 0.  0.
         13    1    3    3    0    0 -0.49165370176E+02 -0.36508422955E+01 -0.18685020717E+03  0.19324482449E+03  0.00000000000E+00 0. -1.
        -13    1    3    3    0    0  0.39000037977E+02  0.16594029748E+02 -0.24680420159E+03  0.25041700962E+03  0.00000000000E+00 0.  1.
         22    1    1    2    0    0  0.10165332199E+02 -0.12943187452E+02 -0.25405110676E+02  0.30270112795E+02  0.00000000000E+00 0. -1.
<mgrwt>
<rscale>  0 0.60659325E+02</rscale>
<asrwt>0</asrwt>
<pdfrwt beam="1">  1        2 0.71768607E-01 0.93699930E+02</pdfrwt>
<pdfrwt beam="2">  1       -2 0.11440324E-02 0.93699930E+02</pdfrwt>
<totfact> 0.10252171E+05</totfact>
</mgrwt>
</event>
<event>
 6    1  0.1535970E-002  0.9380865E+02  0.7546771E-02  0.1382057E+00
         -2   -1    0    0    0  501 -0.00000000000E+00  0.00000000000E+00  0.72880886822E+01  0.72880886822E+01  0.00000000000E+00 0. -1.
          2   -1    0    0  501    0  0.00000000000E+00 -0.00000000000E+00 -0.58040762562E+03  0.58040762562E+03  0.00000000000E+00 0.  1.
         23    2    1    2    0    0  0.11212559616E+02 -0.16837721090E+02 -0.54523473915E+03  0.55324586246E+03  0.91601491260E+02 0.  0.
         13    1    3    3    0    0  0.35329809365E+02 -0.27490062314E+01 -0.49066906564E+03  0.49194703418E+03  0.00000000000E+00 0.  1.
        -13    1    3    3    0    0 -0.24117249748E+02 -0.14088714859E+02 -0.54565673512E+02  0.61298828273E+02  0.00000000000E+00 0. -1.
         22    1    1    2    0    0 -0.11212559616E+02  0.16837721090E+02 -0.27884797782E+02  0.34449851843E+02  0.00000000000E+00 0. -1.
<mgrwt>
<rscale>  0 0.63926092E+02</rscale>
<asrwt>0</asrwt>
<pdfrwt beam="1">  1        2 0.89293504E-01 0.93808654E+02</pdfrwt>
<pdfrwt beam="2">  1       -2 0.11212441E-02 0.93808654E+02</pdfrwt>
<totfact> 0.83152792E+04</totfact>
</mgrwt>
</event>
<event>
 6    1  0.1535970E-002  0.1815156E+03  0.7546771E-02  0.1175863E+00
         -2   -1    0    0    0  501 -0.00000000000E+00  0.00000000000E+00  0.56397399815E+02  0.56397399815E+02  0.00000000000E+00 0.  1.
          2   -1    0    0  501    0  0.00000000000E+00 -0.00000000000E+00 -0.80066518819E+03  0.80066518819E+03  0.00000000000E+00 0. -1.
         23    2    1    2    0    0 -0.12727475191E+03  0.71660145071E+02 -0.66812956340E+03  0.69234747586E+03  0.10776768988E+03 0.  0.
         13    1    3    3    0    0 -0.73903329297E+02 -0.18085755067E+02 -0.24610639250E+03  0.25759882190E+03  0.00000000000E+00 0.  1.
        -13    1    3    3    0    0 -0.53371422614E+02  0.89745900138E+02 -0.42202317090E+03  0.43474865396E+03  0.00000000000E+00 0. -1.
         22    1    1    2    0    0  0.12727475191E+03 -0.71660145071E+02 -0.76138224980E+02  0.16471511214E+03  0.00000000000E+00 0.  1.
<mgrwt>
<rscale>  0 0.17191731E+03</rscale>
<asrwt>0</asrwt>
<pdfrwt beam="1">  1        2 0.12317925E+00 0.18151560E+03</pdfrwt>
<pdfrwt beam="2">  1       -2 0.86765234E-02 0.18151560E+03</pdfrwt>
<totfact> 0.29160001E+03</totfact>
</mgrwt>
</event>
<event>
 6    1  0.1535970E-002  0.9422028E+02  0.7546771E-02  0.1389775E+00
          2   -1    0    0  501    0  0.00000000000E+00  0.00000000000E+00  0.98956721659E+03  0.98956721659E+03  0.00000000000E+00 0.  1.
         -2   -1    0    0    0  501 -0.00000000000E+00 -0.00000000000E+00 -0.38417683653E+01  0.38417683653E+01  0.00000000000E+00 0. -1.
         23    2    1    2    0    0  0.17455074996E+02  0.24301198609E+01  0.93447788860E+03  0.93921583508E+03  0.92557417110E+02 0.  0.
         11    1    3    3    0    0 -0.37835275266E+02 -0.44958250811E+01  0.42249500595E+03  0.42420955972E+03  0.00000000000E+00 0. -1.
        -11    1    3    3    0    0  0.55290350262E+02  0.69259449420E+01  0.51198288265E+03  0.51500627537E+03  0.00000000000E+00 0.  1.
         22    1    1    2    0    0 -0.17455074996E+02 -0.24301198609E+01  0.51247559627E+02  0.54193149875E+02  0.00000000000E+00 0. -1.
<mgrwt>
<rscale>  0 0.61962776E+02</rscale>
<asrwt>0</asrwt>
<pdfrwt beam="1">  1        2 0.15224091E+00 0.94220277E+02</pdfrwt>
<pdfrwt beam="2">  1       -2 0.59104207E-03 0.94220277E+02</pdfrwt>
<totfact> 0.10781843E+05</totfact>
</mgrwt>
</event>
<event>
 6    1  0.1535970E-002  0.9201141E+02  0.7546771E-02  0.1424877E+00
         -2   -1    0    0    0  501 -0.00000000000E+00  0.00000000000E+00  0.35357110488E+01  0.35357110488E+01  0.00000000000E+00 0.  1.
          2   -1    0    0  501    0  0.00000000000E+00 -0.00000000000E+00 -0.81095331365E+03  0.81095331365E+03  0.00000000000E+00 0. -1.
         23    2    1    2    0    0 -0.95567150224E+01  0.52782051229E+01 -0.77097890244E+03  0.77644997738E+03  0.91361420291E+02 0.  0.
         13    1    3    3    0    0 -0.46927179574E+02 -0.14863303436E+02 -0.38080254874E+03  0.38397090918E+03  0.00000000000E+00 0.  1.
        -13    1    3    3    0    0  0.37370464552E+02  0.20141508559E+02 -0.39017635370E+03  0.39247906820E+03  0.00000000000E+00 0. -1.
         22    1    1    2    0    0  0.95567150224E+01 -0.52782051229E+01 -0.36438700164E+02  0.38039047319E+02  0.00000000000E+00 0.  1.
<mgrwt>
<rscale>  0 0.54002188E+02</rscale>
<asrwt>0</asrwt>
<pdfrwt beam="1">  1        2 0.12476193E+00 0.92011409E+02</pdfrwt>
<pdfrwt beam="2">  1       -2 0.54395607E-03 0.92011409E+02</pdfrwt>
<totfact> 0.15590226E+05</totfact>
</mgrwt>
</event>
<event>
 6    1  0.1535970E-002  0.9184402E+02  0.7546771E-02  0.1428570E+00
         -1   -1    0    0    0  501 -0.00000000000E+00  0.00000000000E+00  0.21822738849E+02  0.21822738849E+02  0.00000000000E+00 0.  1.
          1   -1    0    0  501    0  0.00000000000E+00 -0.00000000000E+00 -0.26514248086E+03  0.26514248086E+03  0.00000000000E+00 0. -1.
         23    2    1    2    0    0 -0.85231583899E+01 -0.59190951404E+01 -0.25518072351E+03  0.27120568931E+03  0.91255927735E+02 0.  0.
         11    1    3    3    0    0 -0.17024393529E+02 -0.42175430178E+01 -0.26046336865E+03  0.26105322073E+03  0.00000000000E+00 0. -1.
        -11    1    3    3    0    0  0.85012351389E+01 -0.17015521226E+01  0.52826451436E+01  0.10152468578E+02  0.00000000000E+00 0.  1.
         22    1    1    2    0    0  0.85231583899E+01  0.59190951404E+01  0.11860981500E+02  0.15759530398E+02  0.00000000000E+00 0.  1.
<mgrwt>
<rscale>  0 0.53248209E+02</rscale>
<asrwt>0</asrwt>
<pdfrwt beam="1">  1        1 0.40791151E-01 0.91844021E+02</pdfrwt>
<pdfrwt beam="2">  1       -1 0.33573445E-02 0.91844021E+02</pdfrwt>
<totfact> 0.29015256E+04</totfact>
</mgrwt>
</event>
<event>
 6    1  0.1535970E-002  0.1005498E+03  0.7546771E-02  0.1318811E+00
         -2   -1    0    0    0  501 -0.00000000000E+00  0.00000000000E+00  0.13131080246E+02  0.13131080246E+02  0.00000000000E+00 0.  1.
          2   -1    0    0  501    0  0.00000000000E+00 -0.00000000000E+00 -0.42234001347E+03  0.42234001347E+03  0.00000000000E+00 0. -1.
         23    2    1    2    0    0 -0.34605932898E+02 -0.33733840161E+02 -0.27039803424E+03  0.28848807347E+03  0.88174424016E+02 0.  0.
         11    1    3    3    0    0 -0.46884620440E+02 -0.66455093226E+01 -0.24452478015E+03  0.24906765855E+03  0.00000000000E+00 0. -1.
        -11    1    3    3    0    0  0.12278687543E+02 -0.27088330838E+02 -0.25873254089E+02  0.39420414921E+02  0.00000000000E+00 0.  1.
         22    1    1    2    0    0  0.34605932898E+02  0.33733840161E+02 -0.13881089898E+03  0.14698302025E+03  0.00000000000E+00 0.  1.
<mgrwt>
<rscale>  0 0.83721024E+02</rscale>
<asrwt>0</asrwt>
<pdfrwt beam="1">  1        2 0.64975378E-01 0.10054985E+03</pdfrwt>
<pdfrwt beam="2">  1       -2 0.20201665E-02 0.10054985E+03</pdfrwt>
<totfact> 0.51035205E+04</totfact>
</mgrwt>
</event>
<event>
 6    1  0.1535970E-002  0.9359925E+02  0.7546771E-02  0.1387274E+00
         -2   -1    0    0    0  501 -0.00000000000E+00  0.00000000000E+00  0.27891899028E+02  0.27891899028E+02  0.00000000000E+00 0.  1.
          2   -1    0    0  501    0  0.00000000000E+00 -0.00000000000E+00 -0.11522124200E+03  0.11522124200E+03  0.00000000000E+00 0. -1.
         23    2    1    2    0    0  0.91178641456E+01 -0.16344057996E+02 -0.79580281396E+02  0.12285699052E+03  0.91709079449E+02 0.  0.
         13    1    3    3    0    0 -0.25014748681E+02  0.11860554106E+02  0.42916807725E+01  0.28014798217E+02  0.00000000000E+00 0.  1.
        -13    1    3    3    0    0  0.34132612827E+02 -0.28204612103E+02 -0.83871962168E+02  0.94842192300E+02  0.00000000000E+00 0. -1.
         22    1    1    2    0    0 -0.91178641456E+01  0.16344057996E+02 -0.77490615806E+01  0.20256150516E+02  0.00000000000E+00 0.  1.
<mgrwt>
<rscale>  0 0.62589813E+02</rscale>
<asrwt>0</asrwt>
<pdfrwt beam="1">  1        2 0.17726345E-01 0.93599246E+02</pdfrwt>
<pdfrwt beam="2">  1       -2 0.42910614E-02 0.93599246E+02</pdfrwt>
<totfact> 0.68036144E+04</totfact>
</mgrwt>
</event>
<event>
 6    1  0.1535970E-002  0.8941566E+02  0.7546771E-02  0.1412255E+00
          2   -1    0    0  501    0  0.00000000000E+00  0.00000000000E+00  0.47486556944E+03  0.47486556944E+03  0.00000000000E+00 0. -1.
         -2   -1    0    0    0  501 -0.00000000000E+00 -0.00000000000E+00 -0.56888238657E+01  0.56888238657E+01  0.00000000000E+00 0.  1.
         23    2    1    2    0    0 -0.12108540699E+02 -0.78874198106E+01  0.39693873445E+03  0.40688514327E+03  0.88240199233E+02 0.  0.
         11    1    3    3    0    0 -0.45138124807E+02  0.92755685443E+01  0.29034815136E+03  0.29398220266E+03  0.00000000000E+00 0. -1.
        -11    1    3    3    0    0  0.33029584107E+02 -0.17162988355E+02  0.10659058309E+03  0.11290294062E+03  0.00000000000E+00 0.  1.
         22    1    1    2    0    0  0.12108540699E+02  0.78874198106E+01  0.72238011121E+02  0.73669250029E+02  0.00000000000E+00 0. -1.
<mgrwt>
<rscale>  0 0.56693574E+02</rscale>
<asrwt>0</asrwt>
<pdfrwt beam="1">  1        2 0.73056210E-01 0.89415664E+02</pdfrwt>
<pdfrwt beam="2">  1       -2 0.87520405E-03 0.89415664E+02</pdfrwt>
<totfact> 0.14594497E+05</totfact>
</mgrwt>
</event>
<event>
 6    1  0.1535970E-002  0.9221140E+02  0.7546771E-02  0.1422795E+00
         -2   -1    0    0    0  501 -0.00000000000E+00  0.00000000000E+00  0.95287234776E+01  0.95287234776E+01  0.00000000000E+00 0. -1.
          2   -1    0    0  501    0  0.00000000000E+00 -0.00000000000E+00 -0.28055974275E+03  0.28055974275E+03  0.00000000000E+00 0.  1.
         23    2    1    2    0    0  0.10685007272E+02  0.33489903199E+01 -0.24194997385E+03  0.25892611203E+03  0.91528992815E+02 0.  0.
         13    1    3    3    0    0  0.28402052172E+02  0.29727837841E+02 -0.51772169023E+02  0.66111862745E+02  0.00000000000E+00 0. -1.
        -13    1    3    3    0    0 -0.17717044899E+02 -0.26378847521E+02 -0.19017780483E+03  0.19281424928E+03  0.00000000000E+00 0.  1.
         22    1    1    2    0    0 -0.10685007272E+02 -0.33489903199E+01 -0.29081045417E+02  0.31162354198E+02  0.00000000000E+00 0.  1.
<mgrwt>
<rscale>  0 0.54433868E+02</rscale>
<asrwt>0</asrwt>
<pdfrwt beam="1">  1        2 0.43163032E-01 0.92211396E+02</pdfrwt>
<pdfrwt beam="2">  1       -2 0.14659576E-02 0.92211396E+02</pdfrwt>
<totfact> 0.12269563E+05</totfact>
</mgrwt>
</event>
<event>
 6    1  0.1535970E-002  0.1011161E+03  0.7546771E-02  0.1323115E+00
          2   -1    0    0  501    0  0.00000000000E+00  0.00000000000E+00  0.23814329759E+04  0.23814329759E+04  0.00000000000E+00 0.  1.
         -2   -1    0    0    0  501 -0.00000000000E+00 -0.00000000000E+00 -0.45564196639E+01  0.45564196639E+01  0.00000000000E+00 0. -1.
         23    2    1    2    0    0 -0.42438605535E+02  0.11648155692E+02  0.22385167068E+04  0.22407993040E+04  0.91037130475E+02 0.  0.
         11    1    3    3    0    0 -0.63580955915E+02  0.22536255934E+02  0.19910882955E+04  0.19922306647E+04  0.00000000000E+00 0.  1.
        -11    1    3    3    0    0  0.21142350380E+02 -0.10888100242E+02  0.24742841132E+03  0.24856863928E+03  0.00000000000E+00 0. -1.
         22    1    1    2    0    0  0.42438605535E+02 -0.11648155692E+02  0.13835984942E+03  0.14519009161E+03  0.00000000000E+00 0. -1.
<mgrwt>
<rscale>  0 0.82129385E+02</rscale>
<asrwt>0</asrwt>
<pdfrwt beam="1">  1        2 0.36637331E+00 0.10111614E+03</pdfrwt>
<pdfrwt beam="2">  1       -2 0.70098955E-03 0.10111614E+03</pdfrwt>
<totfact> 0.16092794E+04</totfact>
</mgrwt>
</event>
<event>
 6    1  0.1535970E-002  0.9201647E+02  0.7546771E-02  0.1396450E+00
         -2   -1    0    0    0  501 -0.00000000000E+00  0.00000000000E+00  0.26537085789E+02  0.26537085789E+02  0.00000000000E+00 0.  1.
          2   -1    0    0  501    0  0.00000000000E+00 -0.00000000000E+00 -0.12941013378E+03  0.12941013378E+03  0.00000000000E+00 0. -1.
         23    2    1    2    0    0 -0.11947507312E+01 -0.16962035809E+02 -0.10405204154E+03  0.13890233430E+03  0.90431703711E+02 0.  0.
         13    1    3    3    0    0 -0.36919791724E+02 -0.91518034827E+01 -0.93346365038E+02  0.10079866266E+03  0.00000000000E+00 0. -1.
        -13    1    3    3    0    0  0.35725040992E+02 -0.78102323261E+01 -0.10705676502E+02  0.38103671637E+02  0.00000000000E+00 0.  1.
         22    1    1    2    0    0  0.11947507312E+01  0.16962035809E+02  0.11789935511E+01  0.17044885270E+02  0.00000000000E+00 0.  1.
<mgrwt>
<rscale>  0 0.60330559E+02</rscale>
<asrwt>0</asrwt>
<pdfrwt beam="1">  1        2 0.19909251E-01 0.92016472E+02</pdfrwt>
<pdfrwt beam="2">  1       -2 0.40826286E-02 0.92016472E+02</pdfrwt>
<totfact> 0.64088115E+04</totfact>
</mgrwt>
</event>
<event>
 6    1  0.1535970E-002  0.8812212E+02  0.7546771E-02  0.1386945E+00
          2   -1    0    0  501    0  0.00000000000E+00  0.00000000000E+00  0.41806937950E+03  0.41806937950E+03  0.00000000000E+00 0. -1.
         -2   -1    0    0    0  501 -0.00000000000E+00 -0.00000000000E+00 -0.73414095181E+01  0.73414095181E+01  0.00000000000E+00 0.  1.
         23    2    1    2    0    0 -0.22338333221E+02 -0.30528169728E+01  0.31836293900E+03  0.33033387399E+03  0.85189122283E+02 0.  0.
         13    1    3    3    0    0  0.22058134728E+02 -0.23798495232E+02  0.19344659522E+03  0.19614921586E+03  0.00000000000E+00 0. -1.
        -13    1    3    3    0    0 -0.44396467950E+02  0.20745678259E+02  0.12491634378E+03  0.13418465813E+03  0.00000000000E+00 0.  1.
         22    1    1    2    0    0  0.22338333221E+02  0.30528169728E+01  0.92365030988E+02  0.95076915032E+02  0.00000000000E+00 0.  1.
<mgrwt>
<rscale>  0 0.62673064E+02</rscale>
<asrwt>0</asrwt>
<pdfrwt beam="1">  1        2 0.64318347E-01 0.88122116E+02</pdfrwt>
<pdfrwt beam="2">  1       -2 0.11294479E-02 0.88122116E+02</pdfrwt>
<totfact> 0.11624230E+05</totfact>
</mgrwt>
</event>
<event>
 6    1  0.1535970E-002  0.9305111E+02  0.7546771E-02  0.1378471E+00
          2   -1    0    0  501    0  0.00000000000E+00  0.00000000000E+00  0.33951440491E+02  0.33951440491E+02  0.00000000000E+00 0. -1.
         -2   -1    0    0    0  501 -0.00000000000E+00 -0.00000000000E+00 -0.12353654051E+03  0.12353654051E+03  0.00000000000E+00 0.  1.
         23    2    1    2    0    0 -0.19178547392E+02 -0.10728855875E+02 -0.36356541227E+02  0.99901485193E+02  0.90418933998E+02 0.  0.
         11    1    3    3    0    0  0.32307774774E+02  0.29660188313E+01 -0.33369109850E+02  0.46541240538E+02  0.00000000000E+00 0.  1.
        -11    1    3    3    0    0 -0.51486322167E+02 -0.13694874707E+02 -0.29874313768E+01  0.53360244656E+02  0.00000000000E+00 0. -1.
         22    1    1    2    0    0  0.19178547392E+02  0.10728855875E+02 -0.53228558791E+02  0.57586495808E+02  0.00000000000E+00 0. -1.
<mgrwt>
<rscale>  0 0.64867345E+02</rscale>
<asrwt>0</asrwt>
<pdfrwt beam="1">  1        2 0.52232986E-02 0.93051108E+02</pdfrwt>
<pdfrwt beam="2">  1       -2 0.19005621E-01 0.93051108E+02</pdfrwt>
<totfact> 0.29783445E+04</totfact>
</mgrwt>
</event>
<event>
 6    1  0.1535970E-002  0.9114833E+02  0.7546771E-02  0.1393694E+00
         -2   -1    0    0    0  501 -0.00000000000E+00  0.00000000000E+00  0.80810068404E+01  0.80810068404E+01  0.00000000000E+00 0.  1.
          2   -1    0    0  501    0  0.00000000000E+00 -0.00000000000E+00 -0.38115745641E+03  0.38115745641E+03  0.00000000000E+00 0. -1.
         23    2    1    2    0    0 -0.16521530949E+02  0.78245758306E+01 -0.33186173337E+03  0.34415146065E+03  0.89296320318E+02 0.  0.
         13    1    3    3    0    0 -0.25399577799E+02 -0.18520060418E+02 -0.39549537245E+02  0.50520264118E+02  0.00000000000E+00 0.  1.
        -13    1    3    3    0    0  0.88780468507E+01  0.26344636249E+02 -0.29231219612E+03  0.29363119653E+03  0.00000000000E+00 0. -1.
         22    1    1    2    0    0  0.16521530949E+02 -0.78245758306E+01 -0.41214716199E+02  0.45087002597E+02  0.00000000000E+00 0.  1.
<mgrwt>
<rscale>  0 0.60997200E+02</rscale>
<asrwt>0</asrwt>
<pdfrwt beam="1">  1        2 0.58639613E-01 0.91148329E+02</pdfrwt>
<pdfrwt beam="2">  1       -2 0.12432317E-02 0.91148329E+02</pdfrwt>
<totfact> 0.11237899E+05</totfact>
</mgrwt>
</event>
<event>
 6    1  0.1535970E-002  0.9812968E+02  0.7546771E-02  0.1341743E+00
         -2   -1    0    0    0  501 -0.00000000000E+00  0.00000000000E+00  0.13615668654E+02  0.13615668654E+02  0.00000000000E+00 0.  1.
          2   -1    0    0  501    0  0.00000000000E+00 -0.00000000000E+00 -0.39770298854E+03  0.39770298854E+03  0.00000000000E+00 0. -1.
         23    2    1    2    0    0  0.34529446200E+02  0.37871930970E+01 -0.34654804240E+03  0.36017354168E+03  0.91775862578E+02 0.  0.
         13    1    3    3    0    0 -0.93852680391E+01  0.16046015112E+02 -0.27305142101E+03  0.27368346018E+03  0.00000000000E+00 0. -1.
        -13    1    3    3    0    0  0.43914714239E+02 -0.12258822015E+02 -0.73496621385E+02  0.86490081506E+02  0.00000000000E+00 0.  1.
         22    1    1    2    0    0 -0.34529446200E+02 -0.37871930970E+01 -0.37539277493E+02  0.51145115516E+02  0.00000000000E+00 0. -1.
<mgrwt>
<rscale>  0 0.75691455E+02</rscale>
<asrwt>0</asrwt>
<pdfrwt beam="1">  1        2 0.61185069E-01 0.98129682E+02</pdfrwt>
<pdfrwt beam="2">  1       -2 0.20947185E-02 0.98129682E+02</pdfrwt>
<totfact> 0.51464498E+04</totfact>
</mgrwt>
</event>
<event>
 6    1  0.1535970E-002  0.8098877E+02  0.7546771E-02  0.1447158E+00
         -2   -1    0    0    0  501 -0.00000000000E+00  0.00000000000E+00  0.11607576964E+03  0.11607576964E+03  0.00000000000E+00 0. -1.
          2   -1    0    0  501    0  0.00000000000E+00 -0.00000000000E+00 -0.18834520993E+02  0.18834520993E+02  0.00000000000E+00 0.  1.
         23    2    1    2    0    0 -0.93042607897E+01 -0.66784878302E+01  0.77548048850E+02  0.11212885989E+03  0.80174870571E+02 0.  0.
         13    1    3    3    0    0  0.30913398828E+02 -0.15820973109E+02  0.55212681939E+02  0.65225621224E+02  0.00000000000E+00 0. -1.
        -13    1    3    3    0    0 -0.40217659618E+02  0.91424852785E+01  0.22335366911E+02  0.46903238665E+02  0.00000000000E+00 0.  1.
         22    1    1    2    0    0  0.93042607897E+01  0.66784878302E+01  0.19693199798E+02  0.22781430746E+02  0.00000000000E+00 0.  1.
<mgrwt>
<rscale>  0 0.49664782E+02</rscale>
<asrwt>0</asrwt>
<pdfrwt beam="1">  1        2 0.28976187E-02 0.80988773E+02</pdfrwt>
<pdfrwt beam="2">  1       -2 0.17857810E-01 0.80988773E+02</pdfrwt>
<totfact> 0.69906420E+04</totfact>
</mgrwt>
</event>
<event>
 6    1  0.1535970E-002  0.9190198E+02  0.7546771E-02  0.1394612E+00
          2   -1    0    0  501    0  0.00000000000E+00  0.00000000000E+00  0.33407123966E+02  0.33407123966E+02  0.00000000000E+00 0.  1.
         -2   -1    0    0    0  501 -0.00000000000E+00 -0.00000000000E+00 -0.89710387742E+02  0.89710387742E+02  0.00000000000E+00 0. -1.
         23    2    1    2    0    0 -0.85722833155E+00  0.17554018099E+02 -0.46586025208E+02  0.10303510356E+03  0.90205855842E+02 0.  0.
         11    1    3    3    0    0 -0.38492526726E+02 -0.10226542301E+02 -0.38819831460E+02  0.55616868806E+02  0.00000000000E+00 0. -1.
        -11    1    3    3    0    0  0.37635298395E+02  0.27780560400E+02 -0.77661937481E+01  0.47418234749E+02  0.00000000000E+00 0.  1.
         22    1    1    2    0    0  0.85722833155E+00 -0.17554018099E+02 -0.97172385675E+01  0.20082408153E+02  0.00000000000E+00 0. -1.
<mgrwt>
<rscale>  0 0.60773900E+02</rscale>
<asrwt>0</asrwt>
<pdfrwt beam="1">  1        2 0.51395576E-02 0.91901985E+02</pdfrwt>
<pdfrwt beam="2">  1       -2 0.13801598E-01 0.91901985E+02</pdfrwt>
<totfact> 0.51194799E+04</totfact>
</mgrwt>
</event>
<event>
 6    1  0.1535970E-002  0.9593650E+02  0.7546771E-02  0.1353654E+00
         -2   -1    0    0    0  501 -0.00000000000E+00  0.00000000000E+00  0.13906257315E+02  0.13906257315E+02  0.00000000000E+00 0.  1.
          2   -1    0    0  501    0  0.00000000000E+00 -0.00000000000E+00 -0.40879344204E+03  0.40879344204E+03  0.00000000000E+00 0. -1.
         23    2    1    2    0    0  0.29820005378E+02  0.54561319719E+01 -0.37343716274E+03  0.38556338909E+03  0.91020933829E+02 0.  0.
         11    1    3    3    0    0  0.13474104803E+01 -0.15001527012E+02 -0.56156466386E+01  0.16074725965E+02  0.00000000000E+00 0.  1.
        -11    1    3    3    0    0  0.28472594898E+02  0.20457658984E+02 -0.36782151610E+03  0.36948866312E+03  0.00000000000E+00 0. -1.
         22    1    1    2    0    0 -0.29820005378E+02 -0.54561319719E+01 -0.21450021987E+02  0.37136310265E+02  0.00000000000E+00 0.  1.
<mgrwt>
<rscale>  0 0.71928743E+02</rscale>
<asrwt>0</asrwt>
<pdfrwt beam="1">  1        2 0.62891308E-01 0.95936502E+02</pdfrwt>
<pdfrwt beam="2">  1       -2 0.21394239E-02 0.95936502E+02</pdfrwt>
<totfact> 0.48356324E+04</totfact>
</mgrwt>
</event>
<event>
 6    1  0.1535970E-002  0.9094900E+02  0.7546771E-02  0.1422769E+00
          1   -1    0    0  501    0  0.00000000000E+00  0.00000000000E+00  0.11734974067E+03  0.11734974067E+03  0.00000000000E+00 0. -1.
         -1   -1    0    0    0  501 -0.00000000000E+00 -0.00000000000E+00 -0.46643233642E+02  0.46643233642E+02  0.00000000000E+00 0.  1.
         23    2    1    2    0    0 -0.11510757334E+02  0.19515129238E+01  0.98367093209E+02  0.13396941748E+03  0.90196529078E+02 0.  0.
         13    1    3    3    0    0  0.36375436101E+01 -0.19402531094E+02  0.10509862397E+03  0.10693647973E+03  0.00000000000E+00 0. -1.
        -13    1    3    3    0    0 -0.15148300944E+02  0.21354044018E+02 -0.67315307600E+01  0.27032937757E+02  0.00000000000E+00 0.  1.
         22    1    1    2    0    0  0.11510757334E+02 -0.19515129238E+01 -0.27660586178E+02  0.30023556831E+02  0.00000000000E+00 0.  1.
<mgrwt>
<rscale>  0 0.54439331E+02</rscale>
<asrwt>0</asrwt>
<pdfrwt beam="1">  1        1 0.18053806E-01 0.90948996E+02</pdfrwt>
<pdfrwt beam="2">  1       -1 0.71758821E-02 0.90948996E+02</pdfrwt>
<totfact> 0.26133911E+04</totfact>
</mgrwt>
</event>
<event>
 6    1  0.1535970E-002  0.9072406E+02  0.7546771E-02  0.1411470E+00
          3   -1    0    0  501    0  0.00000000000E+00  0.00000000000E+00  0.76403161517E+02  0.76403161517E+02  0.00000000000E+00 0. -1.
         -3   -1    0    0    0  501 -0.00000000000E+00 -0.00000000000E+00 -0.38226091392E+02  0.38226091392E+02  0.00000000000E+00 0.  1.
         23    2    1    2    0    0 -0.10669271855E+02  0.90720253554E+01  0.42199469516E+02  0.10005823020E+03  0.89636595190E+02 0.  0.
         11    1    3    3    0    0  0.23868103686E+02 -0.69958420843E+01  0.54600239491E+02  0.59998452751E+02  0.00000000000E+00 0. -1.
        -11    1    3    3    0    0 -0.34537375540E+02  0.16067867440E+02 -0.12400769975E+02  0.40059777449E+02  0.00000000000E+00 0.  1.
         22    1    1    2    0    0  0.10669271855E+02 -0.90720253554E+01 -0.40223993911E+01  0.14571022710E+02  0.00000000000E+00 0.  1.
<mgrwt>
<rscale>  0 0.56867119E+02</rscale>
<asrwt>0</asrwt>
<pdfrwt beam="1">  1        3 0.11754333E-01 0.90724055E+02</pdfrwt>
<pdfrwt beam="2">  1       -3 0.58809372E-02 0.90724055E+02</pdfrwt>
<totfact> 0.20162015E+04</totfact>
</mgrwt>
</event>
<event>
 6    1  0.1535970E-002  0.9168960E+02  0.7546771E-02  0.1420213E+00
          1   -1    0    0  501    0  0.00000000000E+00  0.00000000000E+00  0.53145667935E+02  0.53145667935E+02  0.00000000000E+00 0. -1.
         -1   -1    0    0    0  501 -0.00000000000E+00 -0.00000000000E+00 -0.51429073956E+02  0.51429073956E+02  0.00000000000E+00 0.  1.
         23    2    1    2    0    0  0.74692058420E+01 -0.92000372623E+01  0.62134948011E+01  0.91899891259E+02  0.90920584986E+02 0.  0.
         13    1    3    3    0    0 -0.15314163285E+02 -0.13104154079E+02 -0.37430640477E+02  0.42512295842E+02  0.00000000000E+00 0.  1.
        -13    1    3    3    0    0  0.22783369127E+02  0.39041168164E+01  0.43644135278E+02  0.49387595417E+02  0.00000000000E+00 0. -1.
         22    1    1    2    0    0 -0.74692058420E+01  0.92000372623E+01 -0.44969008215E+01  0.12674850632E+02  0.00000000000E+00 0.  1.
<mgrwt>
<rscale>  0 0.54975911E+02</rscale>
<asrwt>0</asrwt>
<pdfrwt beam="1">  1        1 0.81762566E-02 0.91689599E+02</pdfrwt>
<pdfrwt beam="2">  1       -1 0.79121653E-02 0.91689599E+02</pdfrwt>
<totfact> 0.63095931E+04</totfact>
</mgrwt>
</event>
<event>
 6    1  0.1535970E-002  0.1030069E+03  0.7546771E-02  0.1319084E+00
         -4   -1    0    0    0  501 -0.00000000000E+00  0.00000000000E+00  0.13121923179E+03  0.13121923179E+03  0.00000000000E+00 0.  1.
          4   -1    0    0  501    0  0.00000000000E+00 -0.00000000000E+00 -0.57671013996E+02  0.57671013996E+02  0.00000000000E+00 0. -1.
         23    2    1    2    0    0  0.29597180121E+02  0.33540860545E+02  0.23431071829E+00  0.10300711957E+03  0.92787010859E+02 0.  0.
         13    1    3    3    0    0  0.38134207096E+02 -0.23473993787E+02 -0.52958177112E+01  0.45092037217E+02  0.00000000000E+00 0.  1.
        -13    1    3    3    0    0 -0.85370269747E+01  0.57014854331E+02  0.55301284295E+01  0.57915082357E+02  0.00000000000E+00 0. -1.
         22    1    1    2    0    0 -0.29597180121E+02 -0.33540860545E+02  0.73313907081E+02  0.85883126216E+02  0.00000000000E+00 0. -1.
<mgrwt>
<rscale>  0 0.83619006E+02</rscale>
<asrwt>0</asrwt>
<pdfrwt beam="1">  1        4 0.88724637E-02 0.10300685E+03</pdfrwt>
<pdfrwt beam="2">  1       -4 0.20187574E-01 0.10300685E+03</pdfrwt>
<totfact> 0.31502372E+03</totfact>
</mgrwt>
</event>
<event>
 6    1  0.1535970E-002  0.9863981E+02  0.7546771E-02  0.1337661E+00
         -1   -1    0    0    0  501 -0.00000000000E+00  0.00000000000E+00  0.19718782310E+03  0.19718782310E+03  0.00000000000E+00 0.  1.
          1   -1    0    0  501    0  0.00000000000E+00 -0.00000000000E+00 -0.24502029694E+02  0.24502029694E+02  0.00000000000E+00 0. -1.
         23    2    1    2    0    0 -0.28368603347E+01  0.36597934674E+02  0.10113948965E+03  0.14127635778E+03  0.91555209041E+02 0.  0.
         13    1    3    3    0    0 -0.37169357694E+02 -0.10940195224E+02  0.51499060494E+02  0.64446894841E+02  0.00000000000E+00 0. -1.
        -13    1    3    3    0    0  0.34332497359E+02  0.47538129898E+02  0.49640429156E+02  0.76829462941E+02  0.00000000000E+00 0.  1.
         22    1    1    2    0    0  0.28368603347E+01 -0.36597934674E+02  0.71546303760E+02  0.80413495016E+02  0.00000000000E+00 0. -1.
<mgrwt>
<rscale>  0 0.77042174E+02</rscale>
<asrwt>0</asrwt>
<pdfrwt beam="1">  1        1 0.37695432E-02 0.98639814E+02</pdfrwt>
<pdfrwt beam="2">  1       -1 0.30336587E-01 0.98639814E+02</pdfrwt>
<totfact> 0.22090524E+04</totfact>
</mgrwt>
</event>
<event>
 6    1  0.1535970E-002  0.9308549E+02  0.7546771E-02  0.1365222E+00
         -2   -1    0    0    0  501 -0.00000000000E+00  0.00000000000E+00  0.75273194012E+01  0.75273194012E+01  0.00000000000E+00 0.  1.
          2   -1    0    0  501    0  0.00000000000E+00 -0.00000000000E+00 -0.50710694124E+03  0.50710694124E+03  0.00000000000E+00 0. -1.
         23    2    1    2    0    0 -0.26720505828E+02  0.56865362605E+01 -0.42830041624E+03  0.43829916205E+03  0.88986441521E+02 0.  0.
         13    1    3    3    0    0 -0.21558371048E+02  0.74256922598E+01 -0.43141984189E+03  0.43202197195E+03  0.00000000000E+00 0. -1.
        -13    1    3    3    0    0 -0.51621347805E+01 -0.17391559993E+01  0.31194256560E+01  0.62771900963E+01  0.00000000000E+00 0.  1.
         22    1    1    2    0    0  0.26720505828E+02 -0.56865362605E+01 -0.71279205597E+02  0.76335098591E+02  0.00000000000E+00 0.  1.
<mgrwt>
<rscale>  0 0.68513679E+02</rscale>
<asrwt>0</asrwt>
<pdfrwt beam="1">  1        2 0.78016449E-01 0.93085492E+02</pdfrwt>
<pdfrwt beam="2">  1       -2 0.11580492E-02 0.93085492E+02</pdfrwt>
<totfact> 0.92010548E+04</totfact>
</mgrwt>
</event>
<event>
 6    1  0.1535970E-002  0.8653775E+02  0.7546771E-02  0.1440056E+00
          2   -1    0    0  501    0  0.00000000000E+00  0.00000000000E+00  0.25537105020E+03  0.25537105020E+03  0.00000000000E+00 0.  1.
         -2   -1    0    0    0  501 -0.00000000000E+00 -0.00000000000E+00 -0.92275705576E+01  0.92275705576E+01  0.00000000000E+00 0. -1.
         23    2    1    2    0    0  0.39936647227E+01  0.96391581021E+01  0.22343055625E+03  0.23960382898E+03  0.85906453019E+02 0.  0.
         13    1    3    3    0    0 -0.15807956719E+02  0.68019660264E+01  0.20609167283E+01  0.17332213223E+02  0.00000000000E+00 0. -1.
        -13    1    3    3    0    0  0.19801621442E+02  0.28371920757E+01  0.22136963952E+03  0.22227161576E+03  0.00000000000E+00 0.  1.
         22    1    1    2    0    0 -0.39936647227E+01 -0.96391581021E+01  0.22712923395E+02  0.24994791778E+02  0.00000000000E+00 0. -1.
<mgrwt>
<rscale>  0 0.50993413E+02</rscale>
<asrwt>0</asrwt>
<pdfrwt beam="1">  1        2 0.39287849E-01 0.86537746E+02</pdfrwt>
<pdfrwt beam="2">  1       -2 0.14196264E-02 0.86537746E+02</pdfrwt>
<totfact> 0.14029119E+05</totfact>
</mgrwt>
</event>
<event>
 6    1  0.1535970E-002  0.1075373E+03  0.7546771E-02  0.1336567E+00
          2   -1    0    0  501    0  0.00000000000E+00  0.00000000000E+00  0.52507355668E+03  0.52507355668E+03  0.00000000000E+00 0. -1.
         -2   -1    0    0    0  501 -0.00000000000E+00 -0.00000000000E+00 -0.25168783538E+02  0.25168783538E+02  0.00000000000E+00 0.  1.
         23    2    1    2    0    0  0.28867182052E+02 -0.62477018657E+00  0.50879148669E+03  0.52003177559E+03  0.10358844605E+03 0.  0.
         13    1    3    3    0    0  0.40113531029E+01  0.50175326658E+02  0.21134059878E+03  0.21725216466E+03  0.00000000000E+00 0. -1.
        -13    1    3    3    0    0  0.24855828949E+02 -0.50800096845E+02  0.29745088792E+03  0.30277961093E+03  0.00000000000E+00 0.  1.
         22    1    1    2    0    0 -0.28867182052E+02  0.62477018657E+00 -0.88867135496E+01  0.30210564628E+02  0.00000000000E+00 0.  1.
<mgrwt>
<rscale>  0 0.77409785E+02</rscale>
<asrwt>0</asrwt>
<pdfrwt beam="1">  1        2 0.80780539E-01 0.10753730E+03</pdfrwt>
<pdfrwt beam="2">  1       -2 0.38721209E-02 0.10753730E+03</pdfrwt>
<totfact> 0.15755969E+04</totfact>
</mgrwt>
</event>
<event>
 6    1  0.1535970E-002  0.9509423E+02  0.7546771E-02  0.1348597E+00
          1   -1    0    0  501    0  0.00000000000E+00  0.00000000000E+00  0.58441200627E+03  0.58441200627E+03  0.00000000000E+00 0. -1.
         -1   -1    0    0    0  501 -0.00000000000E+00 -0.00000000000E+00 -0.17083066569E+02  0.17083066569E+02  0.00000000000E+00 0.  1.
         23    2    1    2    0    0  0.31073115867E+02 -0.13622444529E+02  0.55836238986E+03  0.56640221686E+03  0.88835822331E+02 0.  0.
         11    1    3    3    0    0  0.13326494867E+02  0.37770316212E+02  0.20423403618E+03  0.20812432291E+03  0.00000000000E+00 0.  1.
        -11    1    3    3    0    0  0.17746621000E+02 -0.51392760741E+02  0.35412835368E+03  0.35827789395E+03  0.00000000000E+00 0. -1.
         22    1    1    2    0    0 -0.31073115867E+02  0.13622444529E+02  0.89665498379E+01  0.35092855977E+02  0.00000000000E+00 0.  1.
<mgrwt>
<rscale>  0 0.73494563E+02</rscale>
<asrwt>0</asrwt>
<pdfrwt beam="1">  1        1 0.89909524E-01 0.95094231E+02</pdfrwt>
<pdfrwt beam="2">  1       -1 0.26281645E-02 0.95094231E+02</pdfrwt>
<totfact> 0.15386346E+04</totfact>
</mgrwt>
</event>
<event>
 6    1  0.1535970E-002  0.9257135E+02  0.7546771E-02  0.1380337E+00
          2   -1    0    0  501    0  0.00000000000E+00  0.00000000000E+00  0.35232992338E+03  0.35232992338E+03  0.00000000000E+00 0. -1.
         -2   -1    0    0    0  501 -0.00000000000E+00 -0.00000000000E+00 -0.94296805051E+01  0.94296805051E+01  0.00000000000E+00 0.  1.
         23    2    1    2    0    0 -0.12563267434E+02 -0.17631192487E+02  0.29524500107E+03  0.30941730064E+03  0.90004225700E+02 0.  0.
         13    1    3    3    0    0 -0.44550928603E+02 -0.88236541019E+01  0.83166079769E+02  0.94758846211E+02  0.00000000000E+00 0.  1.
        -13    1    3    3    0    0  0.31987661168E+02 -0.88075383848E+01  0.21207892130E+03  0.21465845443E+03  0.00000000000E+00 0. -1.
         22    1    1    2    0    0  0.12563267434E+02  0.17631192487E+02  0.47655241807E+02  0.52342303243E+02  0.00000000000E+00 0. -1.
<mgrwt>
<rscale>  0 0.64375217E+02</rscale>
<asrwt>0</asrwt>
<pdfrwt beam="1">  1        2 0.54204593E-01 0.92571352E+02</pdfrwt>
<pdfrwt beam="2">  1       -2 0.14507204E-02 0.92571352E+02</pdfrwt>
<totfact> 0.98193065E+04</totfact>
</mgrwt>
</event>
<event>
 6    1  0.1535970E-002  0.9340759E+02  0.7546771E-02  0.1392953E+00
          2   -1    0    0  501    0  0.00000000000E+00  0.00000000000E+00  0.47457159466E+02  0.47457159466E+02  0.00000000000E+00 0.  1.
         -2   -1    0    0    0  501 -0.00000000000E+00 -0.00000000000E+00 -0.67017483050E+02  0.67017483050E+02  0.00000000000E+00 0. -1.
         23    2    1    2    0    0  0.13775605126E+02 -0.10280032584E+02 -0.79774629620E+01  0.93747630509E+02  0.91812482508E+02 0.  0.
         11    1    3    3    0    0  0.35865436997E+02  0.50866089814E+01 -0.38631450742E+02  0.52958400168E+02  0.00000000000E+00 0. -1.
        -11    1    3    3    0    0 -0.22089831871E+02 -0.15366641566E+02  0.30653987780E+02  0.40789230342E+02  0.00000000000E+00 0.  1.
         22    1    1    2    0    0 -0.13775605126E+02  0.10280032584E+02 -0.11582860622E+02  0.20727012006E+02  0.00000000000E+00 0. -1.
<mgrwt>
<rscale>  0 0.61178168E+02</rscale>
<asrwt>0</asrwt>
<pdfrwt beam="1">  1        2 0.73011015E-02 0.93407592E+02</pdfrwt>
<pdfrwt beam="2">  1       -2 0.10310382E-01 0.93407592E+02</pdfrwt>
<totfact> 0.52095095E+04</totfact>
</mgrwt>
</event>
<event>
 6    1  0.1535970E-002  0.9104066E+02  0.7546771E-02  0.1420074E+00
         -1   -1    0    0    0  501 -0.00000000000E+00  0.00000000000E+00  0.91223546774E+02  0.91223546774E+02  0.00000000000E+00 0.  1.
          1   -1    0    0  501    0  0.00000000000E+00 -0.00000000000E+00 -0.36402420893E+02  0.36402420893E+02  0.00000000000E+00 0. -1.
         23    2    1    2    0    0 -0.26956534902E+00  0.12128422787E+02  0.23481286181E+02  0.94020062572E+02  0.90228765151E+02 0.  0.
         11    1    3    3    0    0 -0.23843678966E+02  0.40223649335E+02  0.31626853131E+02  0.56451048099E+02  0.00000000000E+00 0.  1.
        -11    1    3    3    0    0  0.23574113617E+02 -0.28095226548E+02 -0.81455669498E+01  0.37569014474E+02  0.00000000000E+00 0. -1.
         22    1    1    2    0    0  0.26956534902E+00 -0.12128422787E+02  0.31339839701E+02  0.33605905095E+02  0.00000000000E+00 0. -1.
<mgrwt>
<rscale>  0 0.55005287E+02</rscale>
<asrwt>0</asrwt>
<pdfrwt beam="1">  1        1 0.56003725E-02 0.91040658E+02</pdfrwt>
<pdfrwt beam="2">  1       -1 0.14034392E-01 0.91040658E+02</pdfrwt>
<totfact> 0.43828124E+04</totfact>
</mgrwt>
</event>
<event>
 6    1  0.1535970E-002  0.8219827E+02  0.7546771E-02  0.1400765E+00
          2   -1    0    0  501    0  0.00000000000E+00  0.00000000000E+00  0.98446515271E+03  0.98446515271E+03  0.00000000000E+00 0. -1.
         -2   -1    0    0    0  501 -0.00000000000E+00 -0.00000000000E+00 -0.46025582501E+01  0.46025582501E+01  0.00000000000E+00 0.  1.
         23    2    1    2    0    0  0.39993029975E+01  0.21913453037E+02  0.93846190948E+03  0.94205483437E+03  0.79122446666E+02 0.  0.
         11    1    3    3    0    0  0.32306068413E+02 -0.14907258188E+02  0.37691578176E+03  0.37859135614E+03  0.00000000000E+00 0.  1.
        -11    1    3    3    0    0 -0.28306765415E+02  0.36820711225E+02  0.56154612772E+03  0.56346347823E+03  0.00000000000E+00 0. -1.
         22    1    1    2    0    0 -0.39993029975E+01 -0.21913453037E+02  0.41400684978E+02  0.47012876588E+02  0.00000000000E+00 0.  1.
<mgrwt>
<rscale>  0 0.59306654E+02</rscale>
<asrwt>0</asrwt>
<pdfrwt beam="1">  1        2 0.15145601E+00 0.82198269E+02</pdfrwt>
<pdfrwt beam="2">  1       -2 0.70808667E-03 0.82198269E+02</pdfrwt>
<totfact> 0.82750130E+04</totfact>
</mgrwt>
</event>
<event>
 6    1  0.1535970E-002  0.9143889E+02  0.7546771E-02  0.1407044E+00
         -2   -1    0    0    0  501 -0.00000000000E+00  0.00000000000E+00  0.63862491989E+01  0.63862491989E+01  0.00000000000E+00 0.  1.
          2   -1    0    0  501    0  0.00000000000E+00 -0.00000000000E+00 -0.44735693635E+03  0.44735693635E+03  0.00000000000E+00 0. -1.
         23    2    1    2    0    0 -0.87625924025E+01  0.11750918105E+02 -0.39697319273E+03  0.40736812094E+03  0.90256318958E+02 0.  0.
         13    1    3    3    0    0  0.99737998869E+01  0.29477012840E+02 -0.46529133060E+02  0.55976166298E+02  0.00000000000E+00 0.  1.
        -13    1    3    3    0    0 -0.18736392289E+02 -0.17726094735E+02 -0.35044405967E+03  0.35139195464E+03  0.00000000000E+00 0. -1.
         22    1    1    2    0    0  0.87625924025E+01 -0.11750918105E+02 -0.43997494418E+02  0.46375064604E+02  0.00000000000E+00 0. -1.
<mgrwt>
<rscale>  0 0.57858803E+02</rscale>
<asrwt>0</asrwt>
<pdfrwt beam="1">  1        2 0.68824120E-01 0.91438888E+02</pdfrwt>
<pdfrwt beam="2">  1       -2 0.98250022E-03 0.91438888E+02</pdfrwt>
<totfact> 0.13255457E+05</totfact>
</mgrwt>
</event>
<event>
 6    1  0.1535970E-002  0.9143269E+02  0.7546771E-02  0.1404414E+00
         -2   -1    0    0    0  501 -0.00000000000E+00  0.00000000000E+00  0.41308362829E+01  0.41308362829E+01  0.00000000000E+00 0.  1.
          2   -1    0    0  501    0  0.00000000000E+00 -0.00000000000E+00 -0.71814170729E+03  0.71814170729E+03  0.00000000000E+00 0. -1.
         23    2    1    2    0    0  0.24243407791E+01 -0.15085746007E+02 -0.65336230485E+03  0.65972891290E+03  0.90146990837E+02 0.  0.
         11    1    3    3    0    0 -0.15832720163E+01 -0.21969440859E+01 -0.64222227983E+03  0.64222798914E+03  0.00000000000E+00 0. -1.
        -11    1    3    3    0    0  0.40076127954E+01 -0.12888801921E+02 -0.11140025016E+02  0.17500923765E+02  0.00000000000E+00 0.  1.
         22    1    1    2    0    0 -0.24243407791E+01  0.15085746007E+02 -0.60648566153E+02  0.62543630669E+02  0.00000000000E+00 0. -1.
<mgrwt>
<rscale>  0 0.58459087E+02</rscale>
<asrwt>0</asrwt>
<pdfrwt beam="1">  1        2 0.11048337E+00 0.91432692E+02</pdfrwt>
<pdfrwt beam="2">  1       -2 0.63551309E-03 0.91432692E+02</pdfrwt>
<totfact> 0.14487121E+05</totfact>
</mgrwt>
</event>
<event>
 6    1  0.1535970E-002  0.9344519E+02  0.7546771E-02  0.1373619E+00
          2   -1    0    0  501    0  0.00000000000E+00  0.00000000000E+00  0.41369953561E+02  0.41369953561E+02  0.00000000000E+00 0. -1.
         -2   -1    0    0    0  501 -0.00000000000E+00 -0.00000000000E+00 -0.13691186487E+03  0.13691186487E+03  0.00000000000E+00 0.  1.
         23    2    1    2    0    0 -0.10420086162E+02  0.21059940601E+02 -0.15323844737E+02  0.94693317438E+02  0.90442826449E+02 0.  0.
         11    1    3    3    0    0  0.27448093381E+00  0.44438484841E+01  0.37775190725E+02  0.38036668670E+02  0.00000000000E+00 0. -1.
        -11    1    3    3    0    0 -0.10694567096E+02  0.16616092117E+02 -0.53099035463E+02  0.56656648768E+02  0.00000000000E+00 0.  1.
         22    1    1    2    0    0  0.10420086162E+02 -0.21059940601E+02 -0.80218066575E+02  0.83588500996E+02  0.00000000000E+00 0.  1.
<mgrwt>
<rscale>  0 0.66171332E+02</rscale>
<asrwt>0</asrwt>
<pdfrwt beam="1">  1        2 0.63646082E-02 0.93445193E+02</pdfrwt>
<pdfrwt beam="2">  1       -2 0.21063364E-01 0.93445193E+02</pdfrwt>
<totfact> 0.19485712E+04</totfact>
</mgrwt>
</event>
<event>
 6    1  0.1535970E-002  0.9286017E+02  0.7546771E-02  0.1397571E+00
         -1   -1    0    0    0  501 -0.00000000000E+00  0.00000000000E+00  0.21502548092E+02  0.21502548092E+02  0.00000000000E+00 0.  1.
          1   -1    0    0  501    0  0.00000000000E+00 -0.00000000000E+00 -0.28541542010E+03  0.28541542010E+03  0.00000000000E+00 0. -1.
         23    2    1    2    0    0  0.15599362378E+02  0.45608256391E+01 -0.27295586879E+03  0.28831912339E+03  0.91426852548E+02 0.  0.
         11    1    3    3    0    0  0.14158312174E+02 -0.21945030601E+02 -0.25485599285E+03  0.25619059168E+03  0.00000000000E+00 0. -1.
        -11    1    3    3    0    0  0.14410502036E+01  0.26505856240E+02 -0.18099875934E+02  0.32128531706E+02  0.00000000000E+00 0.  1.
         22    1    1    2    0    0 -0.15599362378E+02 -0.45608256391E+01  0.90429967849E+01  0.18598844802E+02  0.00000000000E+00 0.  1.
<mgrwt>
<rscale>  0 0.60062253E+02</rscale>
<asrwt>0</asrwt>
<pdfrwt beam="1">  1        1 0.43910063E-01 0.92860167E+02</pdfrwt>
<pdfrwt beam="2">  1       -1 0.33080844E-02 0.92860167E+02</pdfrwt>
<totfact> 0.27128092E+04</totfact>
</mgrwt>
</event>
<event>
 6    1  0.1535970E-002  0.9163533E+02  0.7546771E-02  0.1416197E+00
          2   -1    0    0  501    0  0.00000000000E+00  0.00000000000E+00  0.69541820180E+02  0.69541820180E+02  0.00000000000E+00 0. -1.
         -2   -1    0    0    0  501 -0.00000000000E+00 -0.00000000000E+00 -0.46926753600E+02  0.46926753600E+02  0.00000000000E+00 0.  1.
         23    2    1    2    0    0 -0.18869295593E+01 -0.12488007123E+02  0.35643396862E+02  0.98323375654E+02  0.90760804508E+02 0.  0.
         13    1    3    3    0    0  0.19384577736E+02 -0.36739105091E+02 -0.97184131700E+01  0.42661121076E+02  0.00000000000E+00 0.  1.
        -13    1    3    3    0    0 -0.21271507295E+02  0.24251097968E+02  0.45361810032E+02  0.55662254578E+02  0.00000000000E+00 0. -1.
         22    1    1    2    0    0  0.18869295593E+01  0.12488007123E+02 -0.13028330282E+02  0.18145198125E+02  0.00000000000E+00 0. -1.
<mgrwt>
<rscale>  0 0.55833647E+02</rscale>
<asrwt>0</asrwt>
<pdfrwt beam="1">  1        2 0.10698742E-01 0.91635334E+02</pdfrwt>
<pdfrwt beam="2">  1       -2 0.72195005E-02 0.91635334E+02</pdfrwt>
<totfact> 0.56219537E+04</totfact>
</mgrwt>
</event>
<event>
 6    1  0.1535970E-002  0.9037823E+02  0.7546771E-02  0.1413664E+00
          2   -1    0    0  501    0  0.00000000000E+00  0.00000000000E+00  0.31243848604E+03  0.31243848604E+03  0.00000000000E+00 0. -1.
         -2   -1    0    0    0  501 -0.00000000000E+00 -0.00000000000E+00 -0.95023947502E+01  0.95023947502E+01  0.00000000000E+00 0.  1.
         23    2    1    2    0    0 -0.12232376905E+02 -0.61491786169E+01  0.28718888423E+03  0.30107420946E+03  0.89335216632E+02 0.  0.
         13    1    3    3    0    0 -0.96570503605E+01 -0.39306259805E+02  0.23972956661E+03  0.24312240906E+03  0.00000000000E+00 0. -1.
        -13    1    3    3    0    0 -0.25753265448E+01  0.33157081188E+02  0.47459317626E+02  0.57951800397E+02  0.00000000000E+00 0.  1.
         22    1    1    2    0    0  0.12232376905E+02  0.61491786169E+01  0.15747207054E+02  0.20866671331E+02  0.00000000000E+00 0. -1.
<mgrwt>
<rscale>  0 0.56384100E+02</rscale>
<asrwt>0</asrwt>
<pdfrwt beam="1">  1        2 0.48067451E-01 0.90378230E+02</pdfrwt>
<pdfrwt beam="2">  1       -2 0.14619071E-02 0.90378230E+02</pdfrwt>
<totfact> 0.10973849E+05</totfact>
</mgrwt>
</event>
<event>
 6    1  0.1535970E-002  0.9457171E+02  0.7546771E-02  0.1415786E+00
         -2   -1    0    0    0  501 -0.00000000000E+00  0.00000000000E+00  0.19526554519E+01  0.19526554519E+01  0.00000000000E+00 0.  1.
          2   -1    0    0  501    0  0.00000000000E+00 -0.00000000000E+00 -0.16695123659E+04  0.16695123659E+04  0.00000000000E+00 0. -1.
         23    2    1    2    0    0 -0.44312338389E+01  0.10680015528E+02 -0.16088694878E+04  0.16116466228E+04  0.93862184092E+02 0.  0.
         11    1    3    3    0    0  0.94989759495E+01  0.17796129359E+02 -0.15639735746E+04  0.15641036649E+04  0.00000000000E+00 0. -1.
        -11    1    3    3    0    0 -0.13930209788E+02 -0.71161138308E+01 -0.44895913224E+02  0.47542957891E+02  0.00000000000E+00 0.  1.
         22    1    1    2    0    0  0.44312338389E+01 -0.10680015528E+02 -0.58690222686E+02  0.59818398540E+02  0.00000000000E+00 0.  1.
<mgrwt>
<rscale>  0 0.55922525E+02</rscale>
<asrwt>0</asrwt>
<pdfrwt beam="1">  1        2 0.25684594E+00 0.94571709E+02</pdfrwt>
<pdfrwt beam="2">  1       -2 0.30041100E-03 0.94571709E+02</pdfrwt>
<totfact> 0.12069452E+05</totfact>
</mgrwt>
</event>
<event>
 6    1  0.1535970E-002  0.1215944E+03  0.7546771E-02  0.1262356E+00
         -2   -1    0    0    0  501 -0.00000000000E+00  0.00000000000E+00  0.42409165160E+02  0.42409165160E+02  0.00000000000E+00 0. -1.
          2   -1    0    0  501    0  0.00000000000E+00 -0.00000000000E+00 -0.86916685239E+03  0.86916685239E+03  0.00000000000E+00 0.  1.
         23    2    1    2    0    0 -0.38479017446E+02 -0.68578171501E+02 -0.82396701050E+03  0.83289064237E+03  0.92744743045E+02 0.  0.
         13    1    3    3    0    0  0.27884171179E+02 -0.40091637363E+02 -0.37159608060E+03  0.37479129326E+03  0.00000000000E+00 0.  1.
        -13    1    3    3    0    0 -0.66363188626E+02 -0.28486534138E+02 -0.45237092991E+03  0.45809934911E+03  0.00000000000E+00 0. -1.
         22    1    1    2    0    0  0.38479017446E+02  0.68578171501E+02 -0.27906767252E+01  0.78685375176E+02  0.00000000000E+00 0. -1.
<mgrwt>
<rscale>  0 0.10904110E+03</rscale>
<asrwt>0</asrwt>
<pdfrwt beam="1">  1        2 0.13371797E+00 0.12159436E+03</pdfrwt>
<pdfrwt beam="2">  1       -2 0.65244871E-02 0.12159436E+03</pdfrwt>
<totfact> 0.40268120E+03</totfact>
</mgrwt>
</event>
<event>
 6    1  0.1535970E-002  0.1122215E+03  0.7546771E-02  0.1293638E+00
          2   -1    0    0  501    0  0.00000000000E+00  0.00000000000E+00  0.43734993682E+03  0.43734993682E+03  0.00000000000E+00 0. -1.
         -2   -1    0    0    0  501 -0.00000000000E+00 -0.00000000000E+00 -0.32748611851E+02  0.32748611851E+02  0.00000000000E+00 0.  1.
         23    2    1    2    0    0  0.33028369495E+02  0.44034431469E+02  0.39933377404E+03  0.41480251410E+03  0.97794469540E+02 0.  0.
         13    1    3    3    0    0  0.55365870361E+02  0.60185957937E+02  0.33451201462E+03  0.34436320515E+03  0.00000000000E+00 0. -1.
        -13    1    3    3    0    0 -0.22337500866E+02 -0.16151526469E+02  0.64821759416E+02  0.70439308955E+02  0.00000000000E+00 0.  1.
         22    1    1    2    0    0 -0.33028369495E+02 -0.44034431469E+02  0.52675509328E+01  0.55296034569E+02  0.00000000000E+00 0.  1.
<mgrwt>
<rscale>  0 0.93915145E+02</rscale>
<asrwt>0</asrwt>
<pdfrwt beam="1">  1        2 0.67284601E-01 0.11222149E+03</pdfrwt>
<pdfrwt beam="2">  1       -2 0.50382483E-02 0.11222149E+03</pdfrwt>
<totfact> 0.13038835E+04</totfact>
</mgrwt>
</event>
<event>
 6    1  0.1535970E-002  0.9168483E+02  0.7546771E-02  0.1421483E+00
          2   -1    0    0  501    0  0.00000000000E+00  0.00000000000E+00  0.35429853067E+03  0.35429853067E+03  0.00000000000E+00 0. -1.
         -2   -1    0    0    0  501 -0.00000000000E+00 -0.00000000000E+00 -0.88493111858E+01  0.88493111858E+01  0.00000000000E+00 0.  1.
         23    2    1    2    0    0 -0.11504162640E+02  0.16582307552E+01  0.33564476707E+03  0.34794183073E+03  0.90945106641E+02 0.  0.
         13    1    3    3    0    0  0.32727296103E+02  0.15879743321E+02  0.22525026455E+03  0.22816863026E+03  0.00000000000E+00 0. -1.
        -13    1    3    3    0    0 -0.44231458743E+02 -0.14221512566E+02  0.11039450252E+03  0.11977320046E+03  0.00000000000E+00 0.  1.
         22    1    1    2    0    0  0.11504162640E+02 -0.16582307552E+01  0.98044524170E+01  0.15206011130E+02  0.00000000000E+00 0.  1.
<mgrwt>
<rscale>  0 0.54708299E+02</rscale>
<asrwt>0</asrwt>
<pdfrwt beam="1">  1        2 0.54507455E-01 0.91684829E+02</pdfrwt>
<pdfrwt beam="2">  1       -2 0.13614328E-02 0.91684829E+02</pdfrwt>
<totfact> 0.10671999E+05</totfact>
</mgrwt>
</event>
<event>
 6    1  0.1535970E-002  0.9451236E+02  0.7546771E-02  0.1386360E+00
         -2   -1    0    0    0  501 -0.00000000000E+00  0.00000000000E+00  0.12152082287E+02  0.12152082287E+02  0.00000000000E+00 0.  1.
          2   -1    0    0  501    0  0.00000000000E+00 -0.00000000000E+00 -0.13034003342E+04  0.13034003342E+04  0.00000000000E+00 0. -1.
         23    2    1    2    0    0 -0.13735244125E+02 -0.12316232167E+02 -0.12935167518E+04  0.12969649853E+04  0.92694333262E+02 0.  0.
         11    1    3    3    0    0  0.19854231018E+02 -0.20091875227E+02 -0.11024897745E+04  0.11028515661E+04  0.00000000000E+00 0. -1.
        -11    1    3    3    0    0 -0.33589475143E+02  0.77756430597E+01 -0.19102697728E+03  0.19411341920E+03  0.00000000000E+00 0.  1.
         22    1    1    2    0    0  0.13735244125E+02  0.12316232167E+02  0.22684998915E+01  0.18587431176E+02  0.00000000000E+00 0.  1.
<mgrwt>
<rscale>  0 0.62821256E+02</rscale>
<asrwt>0</asrwt>
<pdfrwt beam="1">  1        2 0.20052302E+00 0.94512359E+02</pdfrwt>
<pdfrwt beam="2">  1       -2 0.18695522E-02 0.94512359E+02</pdfrwt>
<totfact> 0.14087778E+04</totfact>
</mgrwt>
</event>
<event>
 6    1  0.1535970E-002  0.9752620E+02  0.7546771E-02  0.1346936E+00
          2   -1    0    0  501    0  0.00000000000E+00  0.00000000000E+00  0.82076696773E+03  0.82076696773E+03  0.00000000000E+00 0. -1.
         -2   -1    0    0    0  501 -0.00000000000E+00 -0.00000000000E+00 -0.52022132407E+01  0.52022132407E+01  0.00000000000E+00 0.  1.
         23    2    1    2    0    0 -0.19819886610E+02  0.25580440716E+02  0.64944651699E+03  0.65672835941E+03  0.92000938970E+02 0.  0.
         13    1    3    3    0    0 -0.18356969605E+02  0.33015414388E+02  0.64789286941E+03  0.64899319423E+03  0.00000000000E+00 0. -1.
        -13    1    3    3    0    0 -0.14629170046E+01 -0.74349736722E+01  0.15536475840E+01  0.77351651878E+01  0.00000000000E+00 0.  1.
         22    1    1    2    0    0  0.19819886610E+02 -0.25580440716E+02  0.16611823749E+03  0.16924082155E+03  0.00000000000E+00 0. -1.
<mgrwt>
<rscale>  0 0.74019134E+02</rscale>
<asrwt>0</asrwt>
<pdfrwt beam="1">  1        2 0.12627174E+00 0.97526200E+02</pdfrwt>
<pdfrwt beam="2">  1       -2 0.80034115E-03 0.97526200E+02</pdfrwt>
<totfact> 0.89893595E+04</totfact>
</mgrwt>
</event>
<event>
 6    1  0.1535970E-002  0.9896434E+02  0.7546771E-02  0.1339254E+00
          2   -1    0    0  501    0  0.00000000000E+00  0.00000000000E+00  0.38460703199E+02  0.38460703199E+02  0.00000000000E+00 0.  1.
         -2   -1    0    0    0  501 -0.00000000000E+00 -0.00000000000E+00 -0.14552437343E+03  0.14552437343E+03  0.00000000000E+00 0. -1.
         23    2    1    2    0    0 -0.35080012279E+02 -0.44126560641E+01 -0.37275409644E+02  0.10575157926E+03  0.92433011183E+02 0.  0.
         13    1    3    3    0    0  0.16875597615E+02 -0.15450160787E+02 -0.46516157941E+02  0.51838655584E+02  0.00000000000E+00 0. -1.
        -13    1    3    3    0    0 -0.51955609894E+02  0.11037504723E+02  0.92407482971E+01  0.53912923674E+02  0.00000000000E+00 0.  1.
         22    1    1    2    0    0  0.35080012279E+02  0.44126560641E+01 -0.69788260586E+02  0.78233497370E+02  0.00000000000E+00 0. -1.
<mgrwt>
<rscale>  0 0.76511412E+02</rscale>
<asrwt>0</asrwt>
<pdfrwt beam="1">  1        2 0.59170313E-02 0.98964339E+02</pdfrwt>
<pdfrwt beam="2">  1       -2 0.22388365E-01 0.98964339E+02</pdfrwt>
<totfact> 0.19404422E+04</totfact>
</mgrwt>
</event>
<event>
 6    1  0.1535970E-002  0.9269521E+02  0.7546771E-02  0.1397346E+00
          2   -1    0    0  501    0  0.00000000000E+00  0.00000000000E+00  0.18726174199E+03  0.18726174199E+03  0.00000000000E+00 0. -1.
         -2   -1    0    0    0  501 -0.00000000000E+00 -0.00000000000E+00 -0.19097435599E+02  0.19097435599E+02  0.00000000000E+00 0.  1.
         23    2    1    2    0    0  0.12536466589E+02 -0.10569965308E+02  0.16557757529E+03  0.18975862522E+03  0.91233301179E+02 0.  0.
         11    1    3    3    0    0  0.19346968444E+02  0.37831495125E+02  0.61216568472E+02  0.74518423673E+02  0.00000000000E+00 0. -1.
        -11    1    3    3    0    0 -0.68105018549E+01 -0.48401460433E+02  0.10436100682E+03  0.11524020154E+03  0.00000000000E+00 0.  1.
         22    1    1    2    0    0 -0.12536466589E+02  0.10569965308E+02  0.25867310966E+01  0.16600552368E+02  0.00000000000E+00 0. -1.
<mgrwt>
<rscale>  0 0.60115884E+02</rscale>
<asrwt>0</asrwt>
<pdfrwt beam="1">  1        2 0.28809497E-01 0.92695212E+02</pdfrwt>
<pdfrwt beam="2">  1       -2 0.29380671E-02 0.92695212E+02</pdfrwt>
<totfact> 0.69253426E+04</totfact>
</mgrwt>
</event>
<event>
 6    1  0.1535970E-002  0.9587646E+02  0.7546771E-02  0.1365332E+00
          2   -1    0    0  501    0  0.00000000000E+00  0.00000000000E+00  0.36333089841E+02  0.36333089841E+02  0.00000000000E+00 0. -1.
         -2   -1    0    0    0  501 -0.00000000000E+00 -0.00000000000E+00 -0.11196328128E+03  0.11196328128E+03  0.00000000000E+00 0.  1.
         23    2    1    2    0    0 -0.19786567236E+02 -0.15208452252E+02 -0.37977480600E+02  0.10312412415E+03  0.92571543608E+02 0.  0.
         13    1    3    3    0    0 -0.56827698772E+02 -0.11103120614E+02 -0.16944541250E+02  0.60330623346E+02  0.00000000000E+00 0. -1.
        -13    1    3    3    0    0  0.37041131536E+02 -0.41053316380E+01 -0.21032939350E+02  0.42793500804E+02  0.00000000000E+00 0.  1.
         22    1    1    2    0    0  0.19786567236E+02  0.15208452252E+02 -0.37652710837E+02  0.45172246970E+02  0.00000000000E+00 0.  1.
<mgrwt>
<rscale>  0 0.68482252E+02</rscale>
<asrwt>0</asrwt>
<pdfrwt beam="1">  1        2 0.55897062E-02 0.95876462E+02</pdfrwt>
<pdfrwt beam="2">  1       -2 0.17225120E-01 0.95876462E+02</pdfrwt>
<totfact> 0.32252513E+04</totfact>
</mgrwt>
</event>
<event>
 6    1  0.1535970E-002  0.9304086E+02  0.7546771E-02  0.1395517E+00
         -2   -1    0    0    0  501 -0.00000000000E+00  0.00000000000E+00  0.19650420442E+01  0.19650420442E+01  0.00000000000E+00 0.  1.
          2   -1    0    0  501    0  0.00000000000E+00 -0.00000000000E+00 -0.18122747488E+04  0.18122747488E+04  0.00000000000E+00 0. -1.
         23    2    1    2    0    0 -0.15470744404E+02 -0.62748288634E+01 -0.17117033744E+04  0.17142301603E+04  0.91530778063E+02 0.  0.
         13    1    3    3    0    0 -0.31506130661E+02 -0.28848815097E+02 -0.40752552431E+03  0.40975839634E+03  0.00000000000E+00 0.  1.
        -13    1    3    3    0    0  0.16035386258E+02  0.22573986234E+02 -0.13041778501E+04  0.13044717640E+04  0.00000000000E+00 0. -1.
         22    1    1    2    0    0  0.15470744404E+02  0.62748288634E+01 -0.98606332355E+02  0.10000963049E+03  0.00000000000E+00 0.  1.
<mgrwt>
<rscale>  0 0.60555108E+02</rscale>
<asrwt>0</asrwt>
<pdfrwt beam="1">  1        2 0.27881222E+00 0.93040855E+02</pdfrwt>
<pdfrwt beam="2">  1       -2 0.30231338E-03 0.93040855E+02</pdfrwt>
<totfact> 0.10122050E+05</totfact>
</mgrwt>
</event>
<event>
 6    1  0.1535970E-002  0.9297854E+02  0.7546771E-02  0.1396427E+00
         -2   -1    0    0    0  501 -0.00000000000E+00  0.00000000000E+00  0.73539203999E+01  0.73539203999E+01  0.00000000000E+00 0. -1.
          2   -1    0    0  501    0  0.00000000000E+00 -0.00000000000E+00 -0.41200352036E+03  0.41200352036E+03  0.00000000000E+00 0.  1.
         23    2    1    2    0    0 -0.15853345093E+02  0.45291965532E+01 -0.35811432104E+03  0.36998766907E+03  0.91505006209E+02 0.  0.
         11    1    3    3    0    0  0.15330555341E+02  0.18773131586E+02 -0.23967022795E+02  0.34086281379E+02  0.00000000000E+00 0. -1.
        -11    1    3    3    0    0 -0.31183900434E+02 -0.14243935033E+02 -0.33414729824E+03  0.33590138769E+03  0.00000000000E+00 0.  1.
         22    1    1    2    0    0  0.15853345093E+02 -0.45291965532E+01 -0.46535278920E+02  0.49369771685E+02  0.00000000000E+00 0. -1.
<mgrwt>
<rscale>  0 0.60336017E+02</rscale>
<asrwt>0</asrwt>
<pdfrwt beam="1">  1        2 0.63385169E-01 0.92978537E+02</pdfrwt>
<pdfrwt beam="2">  1       -2 0.11313721E-02 0.92978537E+02</pdfrwt>
<totfact> 0.11872707E+05</totfact>
</mgrwt>
</event>
<event>
 6    1  0.1535970E-002  0.9598784E+02  0.7546771E-02  0.1420239E+00
         -2   -1    0    0    0  501 -0.00000000000E+00  0.00000000000E+00  0.99281910766E+02  0.99281910766E+02  0.00000000000E+00 0.  1.
          2   -1    0    0  501    0  0.00000000000E+00 -0.00000000000E+00 -0.32191763331E+02  0.32191763331E+02  0.00000000000E+00 0. -1.
         23    2    1    2    0    0 -0.68887731070E+00 -0.10301485592E+02  0.42833598887E+02  0.10511128982E+03  0.95430974512E+02 0.  0.
         11    1    3    3    0    0  0.33651076821E+02 -0.33693260947E+02  0.42089818127E+02  0.63554571783E+02  0.00000000000E+00 0.  1.
        -11    1    3    3    0    0 -0.34339954132E+02  0.23391775356E+02  0.74378075966E+00  0.41556718036E+02  0.00000000000E+00 0. -1.
         22    1    1    2    0    0  0.68887731070E+00  0.10301485592E+02  0.24256548549E+02  0.26362384278E+02  0.00000000000E+00 0.  1.
<mgrwt>
<rscale>  0 0.54970459E+02</rscale>
<asrwt>0</asrwt>
<pdfrwt beam="1">  1        2 0.49525790E-02 0.95987843E+02</pdfrwt>
<pdfrwt beam="2">  1       -2 0.15274140E-01 0.95987843E+02</pdfrwt>
<totfact> 0.45877702E+04</totfact>
</mgrwt>
</event>
<event>
 6    1  0.1535970E-002  0.1002298E+03  0.7546771E-02  0.1338227E+00
         -2   -1    0    0    0  501 -0.00000000000E+00  0.00000000000E+00  0.48591254655E+02  0.48591254655E+02  0.00000000000E+00 0.  1.
          2   -1    0    0  501    0  0.00000000000E+00 -0.00000000000E+00 -0.14289334205E+03  0.14289334205E+03  0.00000000000E+00 0. -1.
         23    2    1    2    0    0 -0.36141481784E+01 -0.34457082026E+02 -0.11386683619E+03  0.15169600583E+03  0.94051418022E+02 0.  0.
         13    1    3    3    0    0  0.25427192677E+02  0.30053566049E+01 -0.98640994763E+02  0.10190986284E+03  0.00000000000E+00 0. -1.
        -13    1    3    3    0    0 -0.29041340855E+02 -0.37462438631E+02 -0.15225841427E+02  0.49786142991E+02  0.00000000000E+00 0.  1.
         22    1    1    2    0    0  0.36141481784E+01  0.34457082026E+02  0.19564748792E+02  0.39788590878E+02  0.00000000000E+00 0.  1.
<mgrwt>
<rscale>  0 0.76853101E+02</rscale>
<asrwt>0</asrwt>
<pdfrwt beam="1">  1        2 0.21983591E-01 0.10022984E+03</pdfrwt>
<pdfrwt beam="2">  1       -2 0.74755776E-02 0.10022984E+03</pdfrwt>
<totfact> 0.23461895E+04</totfact>
</mgrwt>
</event>
<event>
 6    1  0.1535970E-002  0.9756895E+02  0.7546771E-02  0.1412873E+00
          2   -1    0    0  501    0  0.00000000000E+00  0.00000000000E+00  0.24979511872E+04  0.24979511872E+04  0.00000000000E+00 0. -1.
         -2   -1    0    0    0  501 -0.00000000000E+00 -0.00000000000E+00 -0.15755539920E+01  0.15755539920E+01  0.00000000000E+00 0.  1.
         23    2    1    2    0    0  0.10716472949E+02  0.25519549094E+01  0.24466845973E+04  0.24486292529E+04  0.96945057385E+02 0.  0.
         13    1    3    3    0    0  0.53649570125E+02  0.12419050512E+01  0.15259012284E+04  0.15268445820E+04  0.00000000000E+00 0. -1.
        -13    1    3    3    0    0 -0.42933097177E+02  0.13100498582E+01  0.92078336888E+03  0.92178467088E+03  0.00000000000E+00 0.  1.
         22    1    1    2    0    0 -0.10716472949E+02 -0.25519549094E+01  0.49691035880E+02  0.50897488279E+02  0.00000000000E+00 0.  1.
<mgrwt>
<rscale>  0 0.56557609E+02</rscale>
<asrwt>0</asrwt>
<pdfrwt beam="1">  1        2 0.38429701E+00 0.97568947E+02</pdfrwt>
<pdfrwt beam="2">  1       -2 0.24239492E-03 0.97568947E+02</pdfrwt>
<totfact> 0.61807887E+04</totfact>
</mgrwt>
</event>
<event>
 6    1  0.1535970E-002  0.9494635E+02  0.7546771E-02  0.1414479E+00
         -2   -1    0    0    0  501 -0.00000000000E+00  0.00000000000E+00  0.64953676268E+01  0.64953676268E+01  0.00000000000E+00 0.  1.
          2   -1    0    0  501    0  0.00000000000E+00 -0.00000000000E+00 -0.75431621619E+03  0.75431621619E+03  0.00000000000E+00 0. -1.
         23    2    1    2    0    0 -0.11349370808E+02  0.26740730579E+01 -0.74148902840E+03  0.74754316903E+03  0.94227657502E+02 0.  0.
         11    1    3    3    0    0 -0.44376686976E+02  0.26764135839E+02 -0.33222320217E+03  0.33624078482E+03  0.00000000000E+00 0.  1.
        -11    1    3    3    0    0  0.33027316168E+02 -0.24090062781E+02 -0.40926582623E+03  0.41130238421E+03  0.00000000000E+00 0. -1.
         22    1    1    2    0    0  0.11349370808E+02 -0.26740730579E+01 -0.63318201657E+01  0.13268414791E+02  0.00000000000E+00 0.  1.
<mgrwt>
<rscale>  0 0.56206258E+02</rscale>
<asrwt>0</asrwt>
<pdfrwt beam="1">  1        2 0.11604867E+00 0.94946355E+02</pdfrwt>
<pdfrwt beam="2">  1       -2 0.99928711E-03 0.94946355E+02</pdfrwt>
<totfact> 0.72518871E+04</totfact>
</mgrwt>
</event>
<event>
 6    1  0.1535970E-002  0.9440034E+02  0.7546771E-02  0.1415866E+00
          4   -1    0    0  501    0  0.00000000000E+00  0.00000000000E+00  0.96190837790E+02  0.96190837790E+02  0.00000000000E+00 0. -1.
         -4   -1    0    0    0  501 -0.00000000000E+00 -0.00000000000E+00 -0.29208971900E+02  0.29208971900E+02  0.00000000000E+00 0.  1.
         23    2    1    2    0    0  0.11091242483E+02  0.34368318407E+01  0.59584499128E+02  0.11163214802E+03  0.93683490871E+02 0.  0.
         13    1    3    3    0    0 -0.35621218670E+02 -0.53513973647E+01  0.52360812445E+02  0.63554412539E+02  0.00000000000E+00 0. -1.
        -13    1    3    3    0    0  0.46712461152E+02  0.87882292054E+01  0.72236866836E+01  0.48077735479E+02  0.00000000000E+00 0.  1.
         22    1    1    2    0    0 -0.11091242483E+02 -0.34368318407E+01  0.73973667620E+01  0.13767661672E+02  0.00000000000E+00 0. -1.
<mgrwt>
<rscale>  0 0.55905233E+02</rscale>
<asrwt>0</asrwt>
<pdfrwt beam="1">  1        4 0.14798590E-01 0.94400339E+02</pdfrwt>
<pdfrwt beam="2">  1       -4 0.44936880E-02 0.94400339E+02</pdfrwt>
<totfact> 0.15979129E+04</totfact>
</mgrwt>
</event>
<event>
 6    1  0.1535970E-002  0.9822629E+02  0.7546771E-02  0.1334193E+00
         -2   -1    0    0    0  501 -0.00000000000E+00  0.00000000000E+00  0.38831024383E+02  0.38831024383E+02  0.00000000000E+00 0.  1.
          2   -1    0    0  501    0  0.00000000000E+00 -0.00000000000E+00 -0.15311217027E+03  0.15311217027E+03  0.00000000000E+00 0. -1.
         23    2    1    2    0    0  0.32243676238E+02 -0.22799101974E+02 -0.11650942853E+03  0.15239045831E+03  0.89938596498E+02 0.  0.
         11    1    3    3    0    0 -0.17144620563E+01 -0.22008790056E+02  0.78853125732E+01  0.23441509641E+02  0.00000000000E+00 0.  1.
        -11    1    3    3    0    0  0.33958138294E+02 -0.79031191853E+00 -0.12439474110E+03  0.12894894867E+03  0.00000000000E+00 0. -1.
         22    1    1    2    0    0 -0.32243676238E+02  0.22799101974E+02  0.22282826480E+01  0.39552736337E+02  0.00000000000E+00 0.  1.
<mgrwt>
<rscale>  0 0.78215420E+02</rscale>
<asrwt>0</asrwt>
<pdfrwt beam="1">  1        2 0.23555718E-01 0.98226294E+02</pdfrwt>
<pdfrwt beam="2">  1       -2 0.59740038E-02 0.98226294E+02</pdfrwt>
<totfact> 0.30456276E+04</totfact>
</mgrwt>
</event>
<event>
 6    1  0.1535970E-002  0.9243408E+02  0.7546771E-02  0.1375546E+00
          1   -1    0    0  501    0  0.00000000000E+00  0.00000000000E+00  0.37094435781E+03  0.37094435781E+03  0.00000000000E+00 0. -1.
         -1   -1    0    0    0  501 -0.00000000000E+00 -0.00000000000E+00 -0.19004297193E+02  0.19004297193E+02  0.00000000000E+00 0.  1.
         23    2    1    2    0    0 -0.20680924388E+02 -0.11200463048E+02  0.35444218797E+03  0.36629677036E+03  0.89391880798E+02 0.  0.
         13    1    3    3    0    0 -0.22018069530E+02  0.19848635995E+02  0.37345130762E+02  0.47680420807E+02  0.00000000000E+00 0.  1.
        -13    1    3    3    0    0  0.13371451418E+01 -0.31049099043E+02  0.31709705721E+03  0.31861634955E+03  0.00000000000E+00 0. -1.
         22    1    1    2    0    0  0.20680924388E+02  0.11200463048E+02 -0.25021273557E+01  0.23651884647E+02  0.00000000000E+00 0.  1.
<mgrwt>
<rscale>  0 0.65649218E+02</rscale>
<asrwt>0</asrwt>
<pdfrwt beam="1">  1        1 0.57068357E-01 0.92434081E+02</pdfrwt>
<pdfrwt beam="2">  1       -1 0.29237383E-02 0.92434081E+02</pdfrwt>
<totfact> 0.23493047E+04</totfact>
</mgrwt>
</event>
<event>
 6    1  0.1535970E-002  0.9121192E+02  0.7546771E-02  0.1413564E+00
          2   -1    0    0  501    0  0.00000000000E+00  0.00000000000E+00  0.10426179079E+03  0.10426179079E+03  0.00000000000E+00 0.  1.
         -2   -1    0    0    0  501 -0.00000000000E+00 -0.00000000000E+00 -0.38970676990E+02  0.38970676990E+02  0.00000000000E+00 0. -1.
         23    2    1    2    0    0  0.12878709174E+02  0.34771250438E+01  0.81445330275E+02  0.12228228262E+03  0.90231165736E+02 0.  0.
         13    1    3    3    0    0 -0.14692291585E+02 -0.23111305260E+02  0.79326709725E+02  0.83920931469E+02  0.00000000000E+00 0.  1.
        -13    1    3    3    0    0  0.27571000759E+02  0.26588430304E+02  0.21186205498E+01  0.38361351148E+02  0.00000000000E+00 0. -1.
         22    1    1    2    0    0 -0.12878709174E+02 -0.34771250438E+01 -0.16154216473E+02  0.20950185164E+02  0.00000000000E+00 0.  1.
<mgrwt>
<rscale>  0 0.56406146E+02</rscale>
<asrwt>0</asrwt>
<pdfrwt beam="1">  1        2 0.16040275E-01 0.91211923E+02</pdfrwt>
<pdfrwt beam="2">  1       -2 0.59954888E-02 0.91211923E+02</pdfrwt>
<totfact> 0.46198903E+04</totfact>
</mgrwt>
</event>
<event>
 6    1  0.1535970E-002  0.9326287E+02  0.7546771E-02  0.1411304E+00
         -2   -1    0    0    0  501 -0.00000000000E+00  0.00000000000E+00  0.13048616539E+03  0.13048616539E+03  0.00000000000E+00 0.  1.
          2   -1    0    0  501    0  0.00000000000E+00 -0.00000000000E+00 -0.32750516706E+02  0.32750516706E+02  0.00000000000E+00 0. -1.
         23    2    1    2    0    0 -0.77362640501E+00  0.12902155784E+02  0.35689296756E+02  0.99858342664E+02  0.92362863614E+02 0.  0.
         11    1    3    3    0    0  0.36350748468E+02 -0.21596117975E+02  0.12244984747E+02  0.44019414776E+02  0.00000000000E+00 0. -1.
        -11    1    3    3    0    0 -0.37124374873E+02  0.34498273759E+02  0.23444312010E+02  0.55838927888E+02  0.00000000000E+00 0.  1.
         22    1    1    2    0    0  0.77362640501E+00 -0.12902155784E+02  0.62046351929E+02  0.63378339433E+02  0.00000000000E+00 0.  1.
<mgrwt>
<rscale>  0 0.56903893E+02</rscale>
<asrwt>0</asrwt>
<pdfrwt beam="1">  1        2 0.50385411E-02 0.93262869E+02</pdfrwt>
<pdfrwt beam="2">  1       -2 0.20074794E-01 0.93262869E+02</pdfrwt>
<totfact> 0.28477839E+04</totfact>
</mgrwt>
</event>
<event>
 6    1  0.1535970E-002  0.9644261E+02  0.7546771E-02  0.1373793E+00
          2   -1    0    0  501    0  0.00000000000E+00  0.00000000000E+00  0.22324859065E+03  0.22324859065E+03  0.00000000000E+00 0. -1.
         -2   -1    0    0    0  501 -0.00000000000E+00 -0.00000000000E+00 -0.15714936919E+02  0.15714936919E+02  0.00000000000E+00 0.  1.
         23    2    1    2    0    0 -0.11953876684E+02  0.17643853718E+02  0.17926760113E+03  0.20356337967E+03  0.94058364779E+02 0.  0.
         13    1    3    3    0    0 -0.46832225736E+02  0.11420485002E+02  0.49691570881E+02  0.69231041172E+02  0.00000000000E+00 0.  1.
        -13    1    3    3    0    0  0.34878349052E+02  0.62233687155E+01  0.12957603025E+03  0.13433233850E+03  0.00000000000E+00 0. -1.
         22    1    1    2    0    0  0.11953876684E+02 -0.17643853718E+02  0.28266052602E+02  0.35400147902E+02  0.00000000000E+00 0. -1.
<mgrwt>
<rscale>  0 0.66123783E+02</rscale>
<asrwt>0</asrwt>
<pdfrwt beam="1">  1        2 0.34345935E-01 0.96442608E+02</pdfrwt>
<pdfrwt beam="2">  1       -2 0.24176828E-02 0.96442608E+02</pdfrwt>
<totfact> 0.76592735E+04</totfact>
</mgrwt>
</event>
<event>
 6    1  0.1535970E-002  0.9199799E+02  0.7546771E-02  0.1423794E+00
          2   -1    0    0  501    0  0.00000000000E+00  0.00000000000E+00  0.19753189606E+04  0.19753189606E+04  0.00000000000E+00 0. -1.
         -2   -1    0    0    0  501 -0.00000000000E+00 -0.00000000000E+00 -0.17985265269E+01  0.17985265269E+01  0.00000000000E+00 0.  1.
         23    2    1    2    0    0 -0.69209259869E+01 -0.86840746269E+01  0.19303734653E+04  0.19325644482E+04  0.91325343224E+02 0.  0.
         11    1    3    3    0    0 -0.83897187029E+01 -0.47213495196E+01  0.19273357912E+04  0.19273598342E+04  0.00000000000E+00 0. -1.
        -11    1    3    3    0    0  0.14687927160E+01 -0.39627251073E+01  0.30376741425E+01  0.52046139640E+01  0.00000000000E+00 0.  1.
         22    1    1    2    0    0  0.69209259869E+01  0.86840746269E+01  0.43146968792E+02  0.44553039005E+02  0.00000000000E+00 0.  1.
<mgrwt>
<rscale>  0 0.54226253E+02</rscale>
<asrwt>0</asrwt>
<pdfrwt beam="1">  1        2 0.30389349E+00 0.91997993E+02</pdfrwt>
<pdfrwt beam="2">  1       -2 0.27669797E-03 0.91997993E+02</pdfrwt>
<totfact> 0.94725937E+04</totfact>
</mgrwt>
</event>
<event>
 6    1  0.1535970E-002  0.9519986E+02  0.7546771E-02  0.1368505E+00
          2   -1    0    0  501    0  0.00000000000E+00  0.00000000000E+00  0.47020587969E+03  0.47020587969E+03  0.00000000000E+00 0. -1.
         -2   -1    0    0    0  501 -0.00000000000E+00 -0.00000000000E+00 -0.28116575344E+02  0.28116575344E+02  0.00000000000E+00 0.  1.
         23    2    1    2    0    0  0.12927976341E+01 -0.24146951837E+02  0.45902956780E+03  0.46879756494E+03  0.92077500887E+02 0.  0.
         13    1    3    3    0    0  0.11600048206E+02 -0.53454329428E+02  0.37939235334E+03  0.38331512392E+03  0.00000000000E+00 0. -1.
        -13    1    3    3    0    0 -0.10307250572E+02  0.29307377591E+02  0.79637214458E+02  0.85482441017E+02  0.00000000000E+00 0.  1.
         22    1    1    2    0    0 -0.12927976341E+01  0.24146951837E+02 -0.16940263459E+02  0.29524890090E+02  0.00000000000E+00 0.  1.
<mgrwt>
<rscale>  0 0.67584668E+02</rscale>
<asrwt>0</asrwt>
<pdfrwt beam="1">  1        2 0.72339360E-01 0.95199857E+02</pdfrwt>
<pdfrwt beam="2">  1       -2 0.43256273E-02 0.95199857E+02</pdfrwt>
<totfact> 0.14919253E+04</totfact>
</mgrwt>
</event>
<event>
 6    1  0.1535970E-002  0.9366740E+02  0.7546771E-02  0.1405363E+00
         -4   -1    0    0    0  501 -0.00000000000E+00  0.00000000000E+00  0.51354770317E+01  0.51354770317E+01  0.00000000000E+00 0.  1.
          4   -1    0    0  501    0  0.00000000000E+00 -0.00000000000E+00 -0.58480502349E+03  0.58480502349E+03  0.00000000000E+00 0. -1.
         23    2    1    2    0    0  0.49815876191E+01 -0.13085079219E+02 -0.53468338564E+03  0.54282585123E+03  0.92615043935E+02 0.  0.
         11    1    3    3    0    0  0.27030784211E+02  0.32724215915E+02 -0.21904774759E+03  0.22312205926E+03  0.00000000000E+00 0. -1.
        -11    1    3    3    0    0 -0.22049196591E+02 -0.45809295133E+02 -0.31563563805E+03  0.31970379197E+03  0.00000000000E+00 0.  1.
         22    1    1    2    0    0 -0.49815876191E+01  0.13085079219E+02 -0.44986160812E+02  0.47114649293E+02  0.00000000000E+00 0.  1.
<mgrwt>
<rscale>  0 0.58241586E+02</rscale>
<asrwt>0</asrwt>
<pdfrwt beam="1">  1        4 0.89969936E-01 0.93667400E+02</pdfrwt>
<pdfrwt beam="2">  1       -4 0.79007399E-03 0.93667400E+02</pdfrwt>
<totfact> 0.67777194E+03</totfact>
</mgrwt>
</event>
<event>
 6    1  0.1535970E-002  0.1081975E+03  0.7546771E-02  0.1291204E+00
          1   -1    0    0  501    0  0.00000000000E+00  0.00000000000E+00  0.21479909359E+04  0.21479909359E+04  0.00000000000E+00 0. -1.
         -1   -1    0    0    0  501 -0.00000000000E+00 -0.00000000000E+00 -0.51059726077E+01  0.51059726077E+01  0.00000000000E+00 0.  1.
         23    2    1    2    0    0 -0.45754102190E+02 -0.45136582092E+02  0.18537451676E+04  0.18569000646E+04  0.87039958985E+02 0.  0.
         13    1    3    3    0    0  0.63225459312E+01 -0.10653891917E+02  0.35812654263E+02  0.37894936408E+02  0.00000000000E+00 0.  1.
        -13    1    3    3    0    0 -0.52076648121E+02 -0.34482690174E+02  0.18179325134E+04  0.18190051282E+04  0.00000000000E+00 0. -1.
         22    1    1    2    0    0  0.45754102190E+02  0.45136582092E+02  0.28913979567E+03  0.29619684392E+03  0.00000000000E+00 0.  1.
<mgrwt>
<rscale>  0 0.94987527E+02</rscale>
<asrwt>0</asrwt>
<pdfrwt beam="1">  1        1 0.33045942E+00 0.10819752E+03</pdfrwt>
<pdfrwt beam="2">  1       -1 0.78553596E-03 0.10819752E+03</pdfrwt>
<totfact> 0.70433215E+03</totfact>
</mgrwt>
</event>
<event>
 6    1  0.1535970E-002  0.9309647E+02  0.7546771E-02  0.1370111E+00
         -2   -1    0    0    0  501 -0.00000000000E+00  0.00000000000E+00  0.67054877074E+01  0.67054877074E+01  0.00000000000E+00 0.  1.
          2   -1    0    0  501    0  0.00000000000E+00 -0.00000000000E+00 -0.62117288716E+03  0.62117288716E+03  0.00000000000E+00 0. -1.
         23    2    1    2    0    0  0.25136547994E+02 -0.14563840802E+01 -0.56227583076E+03  0.56993075246E+03  0.89626924791E+02 0.  0.
         13    1    3    3    0    0  0.19964872376E+02 -0.99611144823E+00 -0.22370515330E+02  0.30000472049E+02  0.00000000000E+00 0.  1.
        -13    1    3    3    0    0  0.51716756179E+01 -0.46027263197E+00 -0.53990531543E+03  0.53993028041E+03  0.00000000000E+00 0. -1.
         22    1    1    2    0    0 -0.25136547994E+02  0.14563840802E+01 -0.52191568694E+02  0.57947622405E+02  0.00000000000E+00 0.  1.
<mgrwt>
<rscale>  0 0.67136431E+02</rscale>
<asrwt>0</asrwt>
<pdfrwt beam="1">  1        2 0.95565050E-01 0.93096470E+02</pdfrwt>
<pdfrwt beam="2">  1       -2 0.10316136E-02 0.93096470E+02</pdfrwt>
<totfact> 0.86640035E+04</totfact>
</mgrwt>
</event>
<event>
 6    1  0.1535970E-002  0.1099074E+03  0.7546771E-02  0.1375111E+00
         -2   -1    0    0    0  501 -0.00000000000E+00  0.00000000000E+00  0.25598410028E+02  0.25598410028E+02  0.00000000000E+00 0.  1.
          2   -1    0    0  501    0  0.00000000000E+00 -0.00000000000E+00 -0.55117319465E+03  0.55117319465E+03  0.00000000000E+00 0. -1.
         23    2    1    2    0    0  0.28756796175E+01 -0.13794323865E+02 -0.54319925466E+03  0.55420670166E+03  0.10900038988E+03 0.  0.
         11    1    3    3    0    0  0.11223392562E+02  0.27875233749E+01 -0.91038214731E+00  0.11600156155E+02  0.00000000000E+00 0.  1.
        -11    1    3    3    0    0 -0.83477129449E+01 -0.16581847240E+02 -0.54228887251E+03  0.54260654550E+03  0.00000000000E+00 0. -1.
         22    1    1    2    0    0 -0.28756796175E+01  0.13794323865E+02  0.17624470039E+02  0.22564903020E+02  0.00000000000E+00 0.  1.
<mgrwt>
<rscale>  0 0.65766503E+02</rscale>
<asrwt>0</asrwt>
<pdfrwt beam="1">  1        2 0.84795865E-01 0.10990741E+03</pdfrwt>
<pdfrwt beam="2">  1       -2 0.39382175E-02 0.10990741E+03</pdfrwt>
<totfact> 0.14594589E+04</totfact>
</mgrwt>
</event>
<event>
 6    1  0.1535970E-002  0.9174504E+02  0.7546771E-02  0.1415242E+00
          4   -1    0    0  501    0  0.00000000000E+00  0.00000000000E+00  0.56072003795E+01  0.56072003795E+01  0.00000000000E+00 0.  1.
         -4   -1    0    0    0  501 -0.00000000000E+00 -0.00000000000E+00 -0.50864854845E+03  0.50864854845E+03  0.00000000000E+00 0. -1.
         23    2    1    2    0    0 -0.11497737028E+02 -0.55610792691E+01 -0.46917673325E+03  0.47806271502E+03  0.90851686333E+02 0.  0.
         11    1    3    3    0    0  0.34095812064E+02  0.54853515261E+01 -0.97464895513E+02  0.10340222115E+03  0.00000000000E+00 0.  1.
        -11    1    3    3    0    0 -0.45593549092E+02 -0.11046430795E+02 -0.37171183774E+03  0.37466049387E+03  0.00000000000E+00 0. -1.
         22    1    1    2    0    0  0.11497737028E+02  0.55610792691E+01 -0.33864614819E+02  0.36193033808E+02  0.00000000000E+00 0.  1.
<mgrwt>
<rscale>  0 0.56040440E+02</rscale>
<asrwt>0</asrwt>
<pdfrwt beam="1">  1        4 0.86264574E-03 0.91745041E+02</pdfrwt>
<pdfrwt beam="2">  1       -4 0.78253666E-01 0.91745041E+02</pdfrwt>
<totfact> 0.80487269E+03</totfact>
</mgrwt>
</event>
<event>
 6    1  0.1535970E-002  0.9431727E+02  0.7546771E-02  0.1413838E+00
          4   -1    0    0  501    0  0.00000000000E+00  0.00000000000E+00  0.72049822529E+02  0.72049822529E+02  0.00000000000E+00 0. -1.
         -4   -1    0    0    0  501 -0.00000000000E+00 -0.00000000000E+00 -0.53610747175E+02  0.53610747175E+02  0.00000000000E+00 0.  1.
         23    2    1    2    0    0 -0.12006357806E+02  0.42325433544E+00  0.38826821577E+02  0.10199642028E+03  0.93549002687E+02 0.  0.
         11    1    3    3    0    0 -0.17479818102E+02 -0.92693580978E+01 -0.27979934232E+02  0.34268670240E+02  0.00000000000E+00 0.  1.
        -11    1    3    3    0    0  0.54734602960E+01  0.96926124332E+01  0.66806755809E+02  0.67727750037E+02  0.00000000000E+00 0. -1.
         22    1    1    2    0    0  0.12006357806E+02 -0.42325433544E+00 -0.20387746223E+02  0.23664149426E+02  0.00000000000E+00 0.  1.
<mgrwt>
<rscale>  0 0.56346074E+02</rscale>
<asrwt>0</asrwt>
<pdfrwt beam="1">  1        4 0.11084588E-01 0.94317271E+02</pdfrwt>
<pdfrwt beam="2">  1       -4 0.82478073E-02 0.94317271E+02</pdfrwt>
<totfact> 0.98137875E+03</totfact>
</mgrwt>
</event>
<event>
 6    1  0.1535970E-002  0.9415214E+02  0.7546771E-02  0.1412160E+00
          1   -1    0    0  501    0  0.00000000000E+00  0.00000000000E+00  0.29269791432E+02  0.29269791432E+02  0.00000000000E+00 0. -1.
         -1   -1    0    0    0  501 -0.00000000000E+00 -0.00000000000E+00 -0.97005446398E+02  0.97005446398E+02  0.00000000000E+00 0.  1.
         23    2    1    2    0    0  0.72470728046E+01  0.10057202907E+02 -0.59015493547E+02  0.11111909684E+03  0.93332512069E+02 0.  0.
         13    1    3    3    0    0  0.41062371828E+02  0.38853530664E+01  0.17741903014E+01  0.41283920596E+02  0.00000000000E+00 0. -1.
        -13    1    3    3    0    0 -0.33815299023E+02  0.61718498410E+01 -0.60789683849E+02  0.69835176243E+02  0.00000000000E+00 0.  1.
         22    1    1    2    0    0 -0.72470728046E+01 -0.10057202907E+02 -0.87201614193E+01  0.15156140991E+02  0.00000000000E+00 0. -1.
<mgrwt>
<rscale>  0 0.56714663E+02</rscale>
<asrwt>0</asrwt>
<pdfrwt beam="1">  1        1 0.45030448E-02 0.94152139E+02</pdfrwt>
<pdfrwt beam="2">  1       -1 0.14923915E-01 0.94152139E+02</pdfrwt>
<totfact> 0.53761272E+04</totfact>
</mgrwt>
</event>
<event>
 6    1  0.1535970E-002  0.9376741E+02  0.7546771E-02  0.1422602E+00
          2   -1    0    0  501    0  0.00000000000E+00  0.00000000000E+00  0.11702721758E+04  0.11702721758E+04  0.00000000000E+00 0. -1.
         -2   -1    0    0    0  501 -0.00000000000E+00 -0.00000000000E+00 -0.25332023819E+01  0.25332023819E+01  0.00000000000E+00 0.  1.
         23    2    1    2    0    0 -0.24469880402E+01 -0.10396859345E+02  0.11183819333E+04  0.11223058748E+04  0.93157100613E+02 0.  0.
         11    1    3    3    0    0  0.33410281185E+02 -0.20152113158E+02  0.89532052277E+03  0.89617029244E+03  0.00000000000E+00 0. -1.
        -11    1    3    3    0    0 -0.35857269225E+02  0.97552538128E+01  0.22306141057E+03  0.22613558238E+03  0.00000000000E+00 0.  1.
         22    1    1    2    0    0  0.24469880402E+01  0.10396859345E+02  0.49357040069E+02  0.50499503355E+02  0.00000000000E+00 0.  1.
<mgrwt>
<rscale>  0 0.54474255E+02</rscale>
<asrwt>0</asrwt>
<pdfrwt beam="1">  1        2 0.18004144E+00 0.93767413E+02</pdfrwt>
<pdfrwt beam="2">  1       -2 0.38972438E-03 0.93767413E+02</pdfrwt>
<totfact> 0.15252484E+05</totfact>
</mgrwt>
</event>
<event>
 6    1  0.1535970E-002  0.9113306E+02  0.7546771E-02  0.1428865E+00
         -2   -1    0    0    0  501 -0.00000000000E+00  0.00000000000E+00  0.28315839315E+02  0.28315839315E+02  0.00000000000E+00 0.  1.
          2   -1    0    0  501    0  0.00000000000E+00 -0.00000000000E+00 -0.97009397679E+02  0.97009397679E+02  0.00000000000E+00 0. -1.
         23    2    1    2    0    0  0.10239241599E+02  0.26400104985E+01 -0.69659739525E+02  0.11470708132E+03  0.90517531281E+02 0.  0.
         11    1    3    3    0    0  0.76224951845E+01  0.38706412689E+02 -0.38762861897E+01  0.39639808409E+02  0.00000000000E+00 0.  1.
        -11    1    3    3    0    0  0.26167464148E+01 -0.36066402191E+02 -0.65783453336E+02  0.75067272906E+02  0.00000000000E+00 0. -1.
         22    1    1    2    0    0 -0.10239241599E+02 -0.26400104985E+01  0.96618116108E+00  0.10618155678E+02  0.00000000000E+00 0. -1.
<mgrwt>
<rscale>  0 0.53188519E+02</rscale>
<asrwt>0</asrwt>
<pdfrwt beam="1">  1        2 0.14924523E-01 0.91133063E+02</pdfrwt>
<pdfrwt beam="2">  1       -2 0.43562830E-02 0.91133063E+02</pdfrwt>
<totfact> 0.80724372E+04</totfact>
</mgrwt>
</event>
<event>
 6    1  0.1535970E-002  0.8854390E+02  0.7546771E-02  0.1419525E+00
         -2   -1    0    0    0  501 -0.00000000000E+00  0.00000000000E+00  0.25300051234E+03  0.25300051234E+03  0.00000000000E+00 0.  1.
          2   -1    0    0  501    0  0.00000000000E+00 -0.00000000000E+00 -0.11187095649E+02  0.11187095649E+02  0.00000000000E+00 0. -1.
         23    2    1    2    0    0 -0.99198751545E+01 -0.88573811925E+01  0.17569939153E+03  0.19674932919E+03  0.87539506666E+02 0.  0.
         11    1    3    3    0    0  0.29986685890E+02 -0.29278806278E+02  0.65258437597E+02  0.77557162824E+02  0.00000000000E+00 0. -1.
        -11    1    3    3    0    0 -0.39906561044E+02  0.20421425086E+02  0.11044095393E+03  0.11919216636E+03  0.00000000000E+00 0.  1.
         22    1    1    2    0    0  0.99198751545E+01  0.88573811925E+01  0.66114025160E+02  0.67438278800E+02  0.00000000000E+00 0.  1.
<mgrwt>
<rscale>  0 0.55121599E+02</rscale>
<asrwt>0</asrwt>
<pdfrwt beam="1">  1        2 0.17210918E-02 0.88543901E+02</pdfrwt>
<pdfrwt beam="2">  1       -2 0.38923151E-01 0.88543901E+02</pdfrwt>
<totfact> 0.36536078E+04</totfact>
</mgrwt>
</event>
<event>
 6    1  0.1535970E-002  0.1013581E+03  0.7546771E-02  0.1320476E+00
          2   -1    0    0  501    0  0.00000000000E+00  0.00000000000E+00  0.65320384160E+02  0.65320384160E+02  0.00000000000E+00 0. -1.
         -2   -1    0    0    0  501 -0.00000000000E+00 -0.00000000000E+00 -0.11912301907E+03  0.11912301907E+03  0.00000000000E+00 0.  1.
         23    2    1    2    0    0  0.45629553270E+02  0.39183152459E+01  0.14312512081E+02  0.10236367019E+03  0.90421588392E+02 0.  0.
         11    1    3    3    0    0  0.33822576739E+02 -0.25661514552E+01 -0.36481304860E+02  0.49814028495E+02  0.00000000000E+00 0.  1.
        -11    1    3    3    0    0  0.11806976530E+02  0.64844667011E+01  0.50793816941E+02  0.52549641698E+02  0.00000000000E+00 0. -1.
         22    1    1    2    0    0 -0.45629553270E+02 -0.39183152459E+01 -0.68115146986E+02  0.82079733033E+02  0.00000000000E+00 0.  1.
<mgrwt>
<rscale>  0 0.83100642E+02</rscale>
<asrwt>0</asrwt>
<pdfrwt beam="1">  1        2 0.10049290E-01 0.10135814E+03</pdfrwt>
<pdfrwt beam="2">  1       -2 0.18326618E-01 0.10135814E+03</pdfrwt>
<totfact> 0.14073976E+04</totfact>
</mgrwt>
</event>
<event>
 6    1  0.1535970E-002  0.9005868E+02  0.7546771E-02  0.1430890E+00
         -2   -1    0    0    0  501 -0.00000000000E+00  0.00000000000E+00  0.33119970529E+01  0.33119970529E+01  0.00000000000E+00 0.  1.
          2   -1    0    0  501    0  0.00000000000E+00 -0.00000000000E+00 -0.13712433139E+04  0.13712433139E+04  0.00000000000E+00 0. -1.
         23    2    1    2    0    0  0.92262443815E+01  0.52709970646E+01 -0.13542073800E+04  0.13571986569E+04  0.89429633706E+02 0.  0.
         11    1    3    3    0    0 -0.31080894367E+02  0.15032962386E+02 -0.99604288653E+03  0.99664108071E+03  0.00000000000E+00 0. -1.
        -11    1    3    3    0    0  0.40307138748E+02 -0.97619653212E+01 -0.35816449345E+03  0.36055757622E+03  0.00000000000E+00 0.  1.
         22    1    1    2    0    0 -0.92262443815E+01 -0.52709970646E+01 -0.13723936826E+02  0.17356653982E+02  0.00000000000E+00 0.  1.
<mgrwt>
<rscale>  0 0.52781813E+02</rscale>
<asrwt>0</asrwt>
<pdfrwt beam="1">  1        2 0.21096060E+00 0.90058683E+02</pdfrwt>
<pdfrwt beam="2">  1       -2 0.50953779E-03 0.90058683E+02</pdfrwt>
<totfact> 0.81466083E+04</totfact>
</mgrwt>
</event>
<event>
 6    1  0.1535970E-002  0.8876826E+02  0.7546771E-02  0.1428596E+00
         -1   -1    0    0    0  501 -0.00000000000E+00  0.00000000000E+00  0.53768367062E+01  0.53768367062E+01  0.00000000000E+00 0.  1.
          1   -1    0    0  501    0  0.00000000000E+00 -0.00000000000E+00 -0.62817693053E+03  0.62817693053E+03  0.00000000000E+00 0. -1.
         23    2    1    2    0    0  0.56187957057E+01  0.10020947337E+02 -0.60970597573E+03  0.61613406060E+03  0.88021665145E+02 0.  0.
         13    1    3    3    0    0  0.22135522988E+02  0.41319986049E+02 -0.45617568508E+03  0.45857777779E+03  0.00000000000E+00 0. -1.
        -13    1    3    3    0    0 -0.16516727282E+02 -0.31299038712E+02 -0.15353029066E+03  0.15755628281E+03  0.00000000000E+00 0.  1.
         22    1    1    2    0    0 -0.56187957057E+01 -0.10020947337E+02 -0.13094118086E+02  0.17419706633E+02  0.00000000000E+00 0.  1.
<mgrwt>
<rscale>  0 0.53242815E+02</rscale>
<asrwt>0</asrwt>
<pdfrwt beam="1">  1        1 0.96642530E-01 0.88768259E+02</pdfrwt>
<pdfrwt beam="2">  1       -1 0.82720628E-03 0.88768259E+02</pdfrwt>
<totfact> 0.71541083E+04</totfact>
</mgrwt>
</event>
<event>
 6    1  0.1535970E-002  0.9520496E+02  0.7546771E-02  0.1388331E+00
         -1   -1    0    0    0  501 -0.00000000000E+00  0.00000000000E+00  0.22316030054E+03  0.22316030054E+03  0.00000000000E+00 0.  1.
          1   -1    0    0  501    0  0.00000000000E+00 -0.00000000000E+00 -0.15120813160E+02  0.15120813160E+02  0.00000000000E+00 0. -1.
         23    2    1    2    0    0 -0.17142634228E+02 -0.34371918637E+01  0.14997499663E+03  0.17764144614E+03  0.93585787250E+02 0.  0.
         13    1    3    3    0    0  0.23235964581E+02  0.58855018696E+01  0.12897501800E+03  0.13118347629E+03  0.00000000000E+00 0.  1.
        -13    1    3    3    0    0 -0.40378598808E+02 -0.93226937333E+01  0.20999978630E+02  0.46457969851E+02  0.00000000000E+00 0. -1.
         22    1    1    2    0    0  0.17142634228E+02  0.34371918637E+01  0.58064490747E+02  0.60639667561E+02  0.00000000000E+00 0.  1.
<mgrwt>
<rscale>  0 0.62323781E+02</rscale>
<asrwt>0</asrwt>
<pdfrwt beam="1">  1        1 0.23262791E-02 0.95204957E+02</pdfrwt>
<pdfrwt beam="2">  1       -1 0.34332352E-01 0.95204957E+02</pdfrwt>
<totfact> 0.34632322E+04</totfact>
</mgrwt>
</event>
<event>
 6    1  0.1535970E-002  0.9328968E+02  0.7546771E-02  0.1372021E+00
         -1   -1    0    0    0  501 -0.00000000000E+00  0.00000000000E+00  0.12941133764E+02  0.12941133764E+02  0.00000000000E+00 0.  1.
          1   -1    0    0  501    0  0.00000000000E+00 -0.00000000000E+00 -0.27928687078E+03  0.27928687078E+03  0.00000000000E+00 0. -1.
         23    2    1    2    0    0  0.10671593229E+02 -0.21769982590E+02 -0.23314923117E+03  0.25112054726E+03  0.90084128545E+02 0.  0.
         11    1    3    3    0    0 -0.34103466999E+02 -0.10119033399E+02 -0.16472677674E+03  0.16852404063E+03  0.00000000000E+00 0. -1.
        -11    1    3    3    0    0  0.44775060228E+02 -0.11650949192E+02 -0.68422454439E+02  0.82596506626E+02  0.00000000000E+00 0.  1.
         22    1    1    2    0    0 -0.10671593229E+02  0.21769982590E+02 -0.33196505839E+02  0.41107457279E+02  0.00000000000E+00 0. -1.
<mgrwt>
<rscale>  0 0.66608600E+02</rscale>
<asrwt>0</asrwt>
<pdfrwt beam="1">  1        1 0.42967208E-01 0.93289685E+02</pdfrwt>
<pdfrwt beam="2">  1       -1 0.19909438E-02 0.93289685E+02</pdfrwt>
<totfact> 0.57785671E+04</totfact>
</mgrwt>
</event>
<event>
 6    1  0.1535970E-002  0.1014245E+03  0.7546771E-02  0.1340096E+00
         -2   -1    0    0    0  501 -0.00000000000E+00  0.00000000000E+00  0.47323953295E+01  0.47323953295E+01  0.00000000000E+00 0.  1.
          2   -1    0    0  501    0  0.00000000000E+00 -0.00000000000E+00 -0.10792956944E+04  0.10792956944E+04  0.00000000000E+00 0. -1.
         23    2    1    2    0    0  0.18100299629E+02  0.26835909551E+02 -0.94724270032E+03  0.95265715780E+03  0.96120445901E+02 0.  0.
         13    1    3    3    0    0  0.31490967454E+02  0.42335395398E+00 -0.85901910083E+03  0.85959622838E+03  0.00000000000E+00 0. -1.
        -13    1    3    3    0    0 -0.13390667825E+02  0.26412555597E+02 -0.88223599490E+02  0.93060929423E+02  0.00000000000E+00 0.  1.
         22    1    1    2    0    0 -0.18100299629E+02 -0.26835909551E+02 -0.12732059870E+03  0.13137093188E+03  0.00000000000E+00 0.  1.
<mgrwt>
<rscale>  0 0.76232689E+02</rscale>
<asrwt>0</asrwt>
<pdfrwt beam="1">  1        2 0.16604567E+00 0.10142449E+03</pdfrwt>
<pdfrwt beam="2">  1       -2 0.72806004E-03 0.10142449E+03</pdfrwt>
<totfact> 0.71948832E+04</totfact>
</mgrwt>
</event>
<event>
 6    1  0.1535970E-002  0.9339717E+02  0.7546771E-02  0.1406264E+00
         -2   -1    0    0    0  501 -0.00000000000E+00  0.00000000000E+00  0.40275220505E+01  0.40275220505E+01  0.00000000000E+00 0.  1.
          2   -1    0    0  501    0  0.00000000000E+00 -0.00000000000E+00 -0.71724750551E+03  0.71724750551E+03  0.00000000000E+00 0. -1.
         23    2    1    2    0    0 -0.12672234953E+02 -0.57718796872E+01 -0.63356310529E+03  0.64041021214E+03  0.92353296046E+02 0.  0.
         11    1    3    3    0    0 -0.21215756118E+02 -0.34610937643E+02 -0.55178203739E+03  0.55327338821E+03  0.00000000000E+00 0. -1.
        -11    1    3    3    0    0  0.85435211657E+01  0.28839057956E+02 -0.81781067905E+02  0.87136823934E+02  0.00000000000E+00 0.  1.
         22    1    1    2    0    0  0.12672234953E+02  0.57718796872E+01 -0.79656878166E+02  0.80864815421E+02  0.00000000000E+00 0.  1.
<mgrwt>
<rscale>  0 0.58036011E+02</rscale>
<asrwt>0</asrwt>
<pdfrwt beam="1">  1        2 0.11034579E+00 0.93397170E+02</pdfrwt>
<pdfrwt beam="2">  1       -2 0.61961866E-03 0.93397170E+02</pdfrwt>
<totfact> 0.15081439E+05</totfact>
</mgrwt>
</event>
<event>
 6    1  0.1535970E-002  0.9046164E+02  0.7546771E-02  0.1432556E+00
         -2   -1    0    0    0  501 -0.00000000000E+00  0.00000000000E+00  0.58951646706E+01  0.58951646706E+01  0.00000000000E+00 0.  1.
          2   -1    0    0  501    0  0.00000000000E+00 -0.00000000000E+00 -0.43127714049E+03  0.43127714049E+03  0.00000000000E+00 0. -1.
         23    2    1    2    0    0 -0.24542253466E+01  0.99245408172E+01 -0.38911319135E+03  0.39949015475E+03  0.89882080134E+02 0.  0.
         11    1    3    3    0    0 -0.31403393551E+02  0.82299242770E+01 -0.34607301977E+03  0.34759234715E+03  0.00000000000E+00 0. -1.
        -11    1    3    3    0    0  0.28949168205E+02  0.16946165401E+01 -0.43040171580E+02  0.51897807609E+02  0.00000000000E+00 0.  1.
         22    1    1    2    0    0  0.24542253466E+01 -0.99245408172E+01 -0.36268784469E+02  0.37682150408E+02  0.00000000000E+00 0.  1.
<mgrwt>
<rscale>  0 0.52450318E+02</rscale>
<asrwt>0</asrwt>
<pdfrwt beam="1">  1        2 0.66350317E-01 0.90461639E+02</pdfrwt>
<pdfrwt beam="2">  1       -2 0.90694858E-03 0.90461639E+02</pdfrwt>
<totfact> 0.15406133E+05</totfact>
</mgrwt>
</event>
<event>
 6    1  0.1535970E-002  0.9349110E+02  0.7546771E-02  0.1421100E+00
         -2   -1    0    0    0  501 -0.00000000000E+00  0.00000000000E+00  0.36411070337E+01  0.36411070337E+01  0.00000000000E+00 0.  1.
          2   -1    0    0  501    0  0.00000000000E+00 -0.00000000000E+00 -0.81710608465E+03  0.81710608465E+03  0.00000000000E+00 0. -1.
         23    2    1    2    0    0  0.10401735833E+02  0.36606782325E+01 -0.77826725724E+03  0.78386255812E+03  0.92838513866E+02 0.  0.
         11    1    3    3    0    0  0.32193079967E+01  0.38155051738E+02 -0.64109353346E+03  0.64223600846E+03  0.00000000000E+00 0. -1.
        -11    1    3    3    0    0  0.71824278359E+01 -0.34494373505E+02 -0.13717372378E+03  0.14162654966E+03  0.00000000000E+00 0.  1.
         22    1    1    2    0    0 -0.10401735833E+02 -0.36606782325E+01 -0.35197720374E+02  0.36884633562E+02  0.00000000000E+00 0.  1.
<mgrwt>
<rscale>  0 0.54788943E+02</rscale>
<asrwt>0</asrwt>
<pdfrwt beam="1">  1        2 0.12570882E+00 0.93491103E+02</pdfrwt>
<pdfrwt beam="2">  1       -2 0.56016946E-03 0.93491103E+02</pdfrwt>
<totfact> 0.14856229E+05</totfact>
</mgrwt>
</event>
<event>
 6    1  0.1535970E-002  0.9231679E+02  0.7546771E-02  0.1421393E+00
          1   -1    0    0  501    0  0.00000000000E+00  0.00000000000E+00  0.20563859294E+03  0.20563859294E+03  0.00000000000E+00 0. -1.
         -1   -1    0    0    0  501 -0.00000000000E+00 -0.00000000000E+00 -0.13126937373E+02  0.13126937373E+02  0.00000000000E+00 0.  1.
         23    2    1    2    0    0  0.33109273460E+01  0.10910540137E+02  0.16688981620E+03  0.19072126568E+03  0.91609979299E+02 0.  0.
         11    1    3    3    0    0  0.59038487947E+01 -0.27658925614E+01  0.17465847887E+03  0.17478011853E+03  0.00000000000E+00 0. -1.
        -11    1    3    3    0    0 -0.25929214487E+01  0.13676432699E+02 -0.77686626685E+01  0.15941147156E+02  0.00000000000E+00 0.  1.
         22    1    1    2    0    0 -0.33109273460E+01 -0.10910540137E+02  0.25621839371E+02  0.28044264632E+02  0.00000000000E+00 0. -1.
<mgrwt>
<rscale>  0 0.54727340E+02</rscale>
<asrwt>0</asrwt>
<pdfrwt beam="1">  1        1 0.31636704E-01 0.92316794E+02</pdfrwt>
<pdfrwt beam="2">  1       -1 0.20195290E-02 0.92316794E+02</pdfrwt>
<totfact> 0.82195626E+04</totfact>
</mgrwt>
</event>
<event>
 6    1  0.1535970E-002  0.8353282E+02  0.7546771E-02  0.1436984E+00
          1   -1    0    0  501    0  0.00000000000E+00  0.00000000000E+00  0.44297588789E+03  0.44297588789E+03  0.00000000000E+00 0. -1.
         -1   -1    0    0    0  501 -0.00000000000E+00 -0.00000000000E+00 -0.64333705554E+01  0.64333705554E+01  0.00000000000E+00 0.  1.
         23    2    1    2    0    0  0.12072483017E+02 -0.13432172327E+01  0.42320168459E+03  0.43136689449E+03  0.82644919664E+02 0.  0.
         11    1    3    3    0    0 -0.28356406536E+02 -0.12406538583E+02  0.82829943609E+02  0.88424021338E+02  0.00000000000E+00 0.  1.
        -11    1    3    3    0    0  0.40428889553E+02  0.11063321351E+02  0.34037174098E+03  0.34294287315E+03  0.00000000000E+00 0. -1.
         22    1    1    2    0    0 -0.12072483017E+02  0.13432172327E+01  0.13340832753E+02  0.18042363960E+02  0.00000000000E+00 0.  1.
<mgrwt>
<rscale>  0 0.51583394E+02</rscale>
<asrwt>0</asrwt>
<pdfrwt beam="1">  1        1 0.68150112E-01 0.83532819E+02</pdfrwt>
<pdfrwt beam="2">  1       -1 0.98974967E-03 0.83532819E+02</pdfrwt>
<totfact> 0.86752805E+04</totfact>
</mgrwt>
</event>
<event>
 6    1  0.1535970E-002  0.9203033E+02  0.7546771E-02  0.1425609E+00
         -2   -1    0    0    0  501 -0.00000000000E+00  0.00000000000E+00  0.16037246982E+02  0.16037246982E+02  0.00000000000E+00 0.  1.
          2   -1    0    0  501    0  0.00000000000E+00 -0.00000000000E+00 -0.16751323607E+03  0.16751323607E+03  0.00000000000E+00 0. -1.
         23    2    1    2    0    0 -0.69434088643E+01  0.82584708526E+01 -0.12736095572E+03  0.15713177563E+03  0.91395670592E+02 0.  0.
         11    1    3    3    0    0  0.38041792497E+02 -0.14314076786E+01 -0.90469124362E+02  0.98152378307E+02  0.00000000000E+00 0. -1.
        -11    1    3    3    0    0 -0.44985201362E+02  0.96898785313E+01 -0.36891831353E+02  0.58979397319E+02  0.00000000000E+00 0.  1.
         22    1    1    2    0    0  0.69434088643E+01 -0.82584708526E+01 -0.24115033372E+02  0.26418707425E+02  0.00000000000E+00 0. -1.
<mgrwt>
<rscale>  0 0.53851592E+02</rscale>
<asrwt>0</asrwt>
<pdfrwt beam="1">  1        2 0.25771267E-01 0.92030331E+02</pdfrwt>
<pdfrwt beam="2">  1       -2 0.24672688E-02 0.92030331E+02</pdfrwt>
<totfact> 0.10050414E+05</totfact>
</mgrwt>
</event>
<event>
 6    1  0.1535970E-002  0.9351044E+02  0.7546771E-02  0.1404995E+00
          2   -1    0    0  501    0  0.00000000000E+00  0.00000000000E+00  0.58525900569E+03  0.58525900569E+03  0.00000000000E+00 0. -1.
         -2   -1    0    0    0  501 -0.00000000000E+00 -0.00000000000E+00 -0.50695128778E+01  0.50695128778E+01  0.00000000000E+00 0.  1.
         23    2    1    2    0    0 -0.31994707369E+01  0.13786964964E+02  0.52979983475E+03  0.53798890971E+03  0.92433138281E+02 0.  0.
         13    1    3    3    0    0 -0.32025608197E+02  0.29312387630E+02  0.44459876901E+03  0.44671346639E+03  0.00000000000E+00 0. -1.
        -13    1    3    3    0    0  0.28826137460E+02 -0.15525422665E+02  0.85201065742E+02  0.91275443321E+02  0.00000000000E+00 0.  1.
         22    1    1    2    0    0  0.31994707369E+01 -0.13786964964E+02  0.50389658066E+02  0.52339608863E+02  0.00000000000E+00 0. -1.
<mgrwt>
<rscale>  0 0.58325679E+02</rscale>
<asrwt>0</asrwt>
<pdfrwt beam="1">  1        2 0.90039793E-01 0.93510438E+02</pdfrwt>
<pdfrwt beam="2">  1       -2 0.77992552E-03 0.93510438E+02</pdfrwt>
<totfact> 0.13764098E+05</totfact>
</mgrwt>
</event>
<event>
 6    1  0.1535970E-002  0.9181192E+02  0.7546771E-02  0.1430196E+00
         -2   -1    0    0    0  501 -0.00000000000E+00  0.00000000000E+00  0.73460482546E+02  0.73460482546E+02  0.00000000000E+00 0.  1.
          2   -1    0    0  501    0  0.00000000000E+00 -0.00000000000E+00 -0.35474199586E+02  0.35474199586E+02  0.00000000000E+00 0. -1.
         23    2    1    2    0    0  0.83513010542E+00  0.10100097790E+02  0.35939397502E+02  0.98595477243E+02  0.91250854365E+02 0.  0.
         11    1    3    3    0    0 -0.22365714114E+02 -0.26428535008E+02 -0.94445771072E+01  0.35887221504E+02  0.00000000000E+00 0. -1.
        -11    1    3    3    0    0  0.23200844220E+02  0.36528632798E+02  0.45383974609E+02  0.62708255740E+02  0.00000000000E+00 0.  1.
         22    1    1    2    0    0 -0.83513010542E+00 -0.10100097790E+02  0.20468854584E+01  0.10339204889E+02  0.00000000000E+00 0.  1.
<mgrwt>
<rscale>  0 0.52920699E+02</rscale>
<asrwt>0</asrwt>
<pdfrwt beam="1">  1        2 0.54575692E-02 0.91811916E+02</pdfrwt>
<pdfrwt beam="2">  1       -2 0.11301613E-01 0.91811916E+02</pdfrwt>
<totfact> 0.65079865E+04</totfact>
</mgrwt>
</event>
<event>
 6    1  0.1535970E-002  0.8792573E+02  0.7546771E-02  0.1398364E+00
         -2   -1    0    0    0  501 -0.00000000000E+00  0.00000000000E+00  0.89653632533E+01  0.89653632533E+01  0.00000000000E+00 0.  1.
          2   -1    0    0  501    0  0.00000000000E+00 -0.00000000000E+00 -0.31842826022E+03  0.31842826022E+03  0.00000000000E+00 0. -1.
         23    2    1    2    0    0  0.16685755038E+02  0.88882656766E+01 -0.25760143080E+03  0.27219373796E+03  0.85869192062E+02 0.  0.
         13    1    3    3    0    0  0.22466481970E+02 -0.18839809310E+01 -0.25891802559E+03  0.25989774176E+03  0.00000000000E+00 0. -1.
        -13    1    3    3    0    0 -0.57807269326E+01  0.10772246608E+02  0.13165947835E+01  0.12295996205E+02  0.00000000000E+00 0.  1.
         22    1    1    2    0    0 -0.16685755038E+02 -0.88882656766E+01 -0.51861466159E+02  0.55199885508E+02  0.00000000000E+00 0.  1.
<mgrwt>
<rscale>  0 0.59873367E+02</rscale>
<asrwt>0</asrwt>
<pdfrwt beam="1">  1        2 0.48988965E-01 0.87925729E+02</pdfrwt>
<pdfrwt beam="2">  1       -2 0.13792866E-02 0.87925729E+02</pdfrwt>
<totfact> 0.11637861E+05</totfact>
</mgrwt>
</event>
<event>
 6    1  0.1535970E-002  0.9091474E+02  0.7546771E-02  0.1423028E+00
          2   -1    0    0  501    0  0.00000000000E+00  0.00000000000E+00  0.60269432755E+02  0.60269432755E+02  0.00000000000E+00 0. -1.
         -2   -1    0    0    0  501 -0.00000000000E+00 -0.00000000000E+00 -0.45400181758E+02  0.45400181758E+02  0.00000000000E+00 0.  1.
         23    2    1    2    0    0  0.78843071469E+01  0.85657071147E+01  0.19767999711E+02  0.93039041426E+02  0.90166267413E+02 0.  0.
         11    1    3    3    0    0 -0.63961405753E+01 -0.32252472029E+01 -0.34740081539E+02  0.35470919062E+02  0.00000000000E+00 0.  1.
        -11    1    3    3    0    0  0.14280447722E+02  0.11790954318E+02  0.54508081250E+02  0.57568122363E+02  0.00000000000E+00 0. -1.
         22    1    1    2    0    0 -0.78843071469E+01 -0.85657071147E+01 -0.48987487142E+01  0.12630573088E+02  0.00000000000E+00 0. -1.
<mgrwt>
<rscale>  0 0.54385309E+02</rscale>
<asrwt>0</asrwt>
<pdfrwt beam="1">  1        2 0.92722204E-02 0.90914737E+02</pdfrwt>
<pdfrwt beam="2">  1       -2 0.69846434E-02 0.90914737E+02</pdfrwt>
<totfact> 0.70230786E+04</totfact>
</mgrwt>
</event>
<event>
 6    1  0.1535970E-002  0.9567024E+02  0.7546771E-02  0.1371046E+00
         -2   -1    0    0    0  501 -0.00000000000E+00  0.00000000000E+00  0.50916478198E+01  0.50916478198E+01  0.00000000000E+00 0.  1.
          2   -1    0    0  501    0  0.00000000000E+00 -0.00000000000E+00 -0.88717939666E+03  0.88717939666E+03  0.00000000000E+00 0. -1.
         23    2    1    2    0    0 -0.16137154916E+02  0.16169935703E+02 -0.82865849459E+03  0.83416287123E+03  0.92902747445E+02 0.  0.
         11    1    3    3    0    0 -0.13427320170E+01 -0.37348200568E+02 -0.43586162061E+03  0.43746090493E+03  0.00000000000E+00 0. -1.
        -11    1    3    3    0    0 -0.14794422899E+02  0.53518136271E+02 -0.39279687398E+03  0.39670196630E+03  0.00000000000E+00 0.  1.
         22    1    1    2    0    0  0.16137154916E+02 -0.16169935703E+02 -0.53429254249E+02  0.58108173255E+02  0.00000000000E+00 0.  1.
<mgrwt>
<rscale>  0 0.66877252E+02</rscale>
<asrwt>0</asrwt>
<pdfrwt beam="1">  1        2 0.13648913E+00 0.95670241E+02</pdfrwt>
<pdfrwt beam="2">  1       -2 0.78333047E-03 0.95670241E+02</pdfrwt>
<totfact> 0.83822670E+04</totfact>
</mgrwt>
</event>
<event>
 6    1  0.1535970E-002  0.9121970E+02  0.7546771E-02  0.1431466E+00
         -2   -1    0    0    0  501 -0.00000000000E+00  0.00000000000E+00  0.98622456247E+01  0.98622456247E+01  0.00000000000E+00 0.  1.
          2   -1    0    0  501    0  0.00000000000E+00 -0.00000000000E+00 -0.27430159978E+03  0.27430159978E+03  0.00000000000E+00 0. -1.
         23    2    1    2    0    0 -0.10892400491E+01  0.10077659925E+02 -0.25266545618E+03  0.26862774721E+03  0.90654774575E+02 0.  0.
         11    1    3    3    0    0 -0.11571213227E+02 -0.27763549528E+02 -0.20347949520E+03  0.20569057496E+03  0.00000000000E+00 0. -1.
        -11    1    3    3    0    0  0.10481973178E+02  0.37841209453E+02 -0.49185960978E+02  0.62937172258E+02  0.00000000000E+00 0.  1.
         22    1    1    2    0    0  0.10892400491E+01 -0.10077659925E+02 -0.11773897974E+02  0.15536098189E+02  0.00000000000E+00 0. -1.
<mgrwt>
<rscale>  0 0.52666799E+02</rscale>
<asrwt>0</asrwt>
<pdfrwt beam="1">  1        2 0.42200248E-01 0.91219701E+02</pdfrwt>
<pdfrwt beam="2">  1       -2 0.15172685E-02 0.91219701E+02</pdfrwt>
<totfact> 0.11940955E+05</totfact>
</mgrwt>
</event>
<event>
 6    1  0.1535970E-002  0.9263799E+02  0.7546771E-02  0.1428775E+00
          2   -1    0    0  501    0  0.00000000000E+00  0.00000000000E+00  0.15278556369E+04  0.15278556369E+04  0.00000000000E+00 0. -1.
         -2   -1    0    0    0  501 -0.00000000000E+00 -0.00000000000E+00 -0.54915965234E+01  0.54915965234E+01  0.00000000000E+00 0.  1.
         23    2    1    2    0    0 -0.45070180839E+01 -0.90172496206E+01  0.15202211958E+04  0.15230411291E+04  0.92087853926E+02 0.  0.
         13    1    3    3    0    0 -0.30593158515E+02  0.31186173341E+02  0.83864836504E+03  0.83978544815E+03  0.00000000000E+00 0.  1.
        -13    1    3    3    0    0  0.26086140431E+02 -0.40203422961E+02  0.68157283076E+03  0.68325568097E+03  0.00000000000E+00 0. -1.
         22    1    1    2    0    0  0.45070180839E+01  0.90172496206E+01  0.21428445629E+01  0.10306104286E+02  0.00000000000E+00 0.  1.
<mgrwt>
<rscale>  0 0.53206706E+02</rscale>
<asrwt>0</asrwt>
<pdfrwt beam="1">  1        2 0.23505437E+00 0.92637988E+02</pdfrwt>
<pdfrwt beam="2">  1       -2 0.84486222E-03 0.92637988E+02</pdfrwt>
<totfact> 0.33316544E+04</totfact>
</mgrwt>
</event>
<event>
 6    1  0.1535970E-002  0.9163715E+02  0.7546771E-02  0.1397182E+00
         -2   -1    0    0    0  501 -0.00000000000E+00  0.00000000000E+00  0.26614383725E+01  0.26614383725E+01  0.00000000000E+00 0.  1.
          2   -1    0    0  501    0  0.00000000000E+00 -0.00000000000E+00 -0.14103450362E+04  0.14103450362E+04  0.00000000000E+00 0. -1.
         23    2    1    2    0    0 -0.48023546047E+01  0.16325030130E+02 -0.13429755789E+04  0.13460983515E+04  0.90043307314E+02 0.  0.
         11    1    3    3    0    0 -0.32367038426E+02  0.17199396600E+02 -0.24041939470E+03  0.24319730625E+03  0.00000000000E+00 0.  1.
        -11    1    3    3    0    0  0.27564683822E+02 -0.87436646942E+00 -0.11025561842E+04  0.11029010452E+04  0.00000000000E+00 0. -1.
         22    1    1    2    0    0  0.48023546047E+01 -0.16325030130E+02 -0.64708018925E+02  0.66908123062E+02  0.00000000000E+00 0.  1.
<mgrwt>
<rscale>  0 0.60155136E+02</rscale>
<asrwt>0</asrwt>
<pdfrwt beam="1">  1        2 0.21697591E+00 0.91637145E+02</pdfrwt>
<pdfrwt beam="2">  1       -2 0.40945252E-03 0.91637145E+02</pdfrwt>
<totfact> 0.10579793E+05</totfact>
</mgrwt>
</event>
<event>
 6    1  0.1535970E-002  0.9139660E+02  0.7546771E-02  0.1402367E+00
          2   -1    0    0  501    0  0.00000000000E+00  0.00000000000E+00  0.65460602823E+02  0.65460602823E+02  0.00000000000E+00 0. -1.
         -2   -1    0    0    0  501 -0.00000000000E+00 -0.00000000000E+00 -0.63095090087E+02  0.63095090087E+02  0.00000000000E+00 0.  1.
         23    2    1    2    0    0 -0.37885805674E+01 -0.15337983700E+02  0.30447270695E+02  0.96334702597E+02  0.90020728419E+02 0.  0.
         11    1    3    3    0    0 -0.31499626443E+02 -0.10491272844E+02 -0.19866259805E+02  0.38690587364E+02  0.00000000000E+00 0.  1.
        -11    1    3    3    0    0  0.27711045875E+02 -0.48467108563E+01  0.50313530500E+02  0.57644115233E+02  0.00000000000E+00 0. -1.
         22    1    1    2    0    0  0.37885805674E+01  0.15337983700E+02 -0.28081757959E+02  0.32220990313E+02  0.00000000000E+00 0.  1.
<mgrwt>
<rscale>  0 0.58932470E+02</rscale>
<asrwt>0</asrwt>
<pdfrwt beam="1">  1        2 0.10070862E-01 0.91396601E+02</pdfrwt>
<pdfrwt beam="2">  1       -2 0.97069370E-02 0.91396601E+02</pdfrwt>
<totfact> 0.38389049E+04</totfact>
</mgrwt>
</event>
<event>
 6    1  0.1535970E-002  0.9379514E+02  0.7546771E-02  0.1406082E+00
          1   -1    0    0  501    0  0.00000000000E+00  0.00000000000E+00  0.12605327573E+03  0.12605327573E+03  0.00000000000E+00 0. -1.
         -1   -1    0    0    0  501 -0.00000000000E+00 -0.00000000000E+00 -0.23655766426E+02  0.23655766426E+02  0.00000000000E+00 0.  1.
         23    2    1    2    0    0 -0.98753779626E+00 -0.13752170957E+02  0.96917674043E+02  0.13487239727E+03  0.92776239235E+02 0.  0.
         11    1    3    3    0    0  0.10752328795E+02  0.23893297761E+02  0.91367573495E+02  0.95050174848E+02  0.00000000000E+00 0. -1.
        -11    1    3    3    0    0 -0.11739866591E+02 -0.37645468717E+02  0.55501005479E+01  0.39822222422E+02  0.00000000000E+00 0.  1.
         22    1    1    2    0    0  0.98753779626E+00  0.13752170957E+02  0.54798352589E+01  0.14836644883E+02  0.00000000000E+00 0.  1.
<mgrwt>
<rscale>  0 0.58077415E+02</rscale>
<asrwt>0</asrwt>
<pdfrwt beam="1">  1        1 0.19392811E-01 0.93795138E+02</pdfrwt>
<pdfrwt beam="2">  1       -1 0.36393488E-02 0.93795138E+02</pdfrwt>
<totfact> 0.64853715E+04</totfact>
</mgrwt>
</event>
<event>
 6    1  0.1535970E-002  0.9032269E+02  0.7546771E-02  0.1431479E+00
         -3   -1    0    0    0  501 -0.00000000000E+00  0.00000000000E+00  0.13529937166E+02  0.13529937166E+02  0.00000000000E+00 0.  1.
          3   -1    0    0  501    0  0.00000000000E+00 -0.00000000000E+00 -0.18776026343E+03  0.18776026343E+03  0.00000000000E+00 0. -1.
         23    2    1    2    0    0  0.39357271289E+01  0.96690289593E+01 -0.15790179100E+03  0.18190976890E+03  0.89717380421E+02 0.  0.
         13    1    3    3    0    0  0.23839665336E+02  0.17982087682E+02 -0.86238153694E+01  0.31081430345E+02  0.00000000000E+00 0.  1.
        -13    1    3    3    0    0 -0.19903938207E+02 -0.83130587227E+01 -0.14927797563E+03  0.15082833855E+03  0.00000000000E+00 0. -1.
         22    1    1    2    0    0 -0.39357271289E+01 -0.96690289593E+01 -0.16328535258E+02  0.19380431696E+02  0.00000000000E+00 0. -1.
<mgrwt>
<rscale>  0 0.52664266E+02</rscale>
<asrwt>0</asrwt>
<pdfrwt beam="1">  1        3 0.28886195E-01 0.90322690E+02</pdfrwt>
<pdfrwt beam="2">  1       -3 0.20815288E-02 0.90322690E+02</pdfrwt>
<totfact> 0.21053155E+04</totfact>
</mgrwt>
</event>
<event>
 6    1  0.1535970E-002  0.9520586E+02  0.7546771E-02  0.1351494E+00
         -1   -1    0    0    0  501 -0.00000000000E+00  0.00000000000E+00  0.42996927592E+02  0.42996927592E+02  0.00000000000E+00 0.  1.
          1   -1    0    0  501    0  0.00000000000E+00 -0.00000000000E+00 -0.12612266160E+03  0.12612266160E+03  0.00000000000E+00 0. -1.
         23    2    1    2    0    0 -0.88885268332E+01 -0.30926543363E+02 -0.95306676457E+02  0.13471272429E+03  0.89603005059E+02 0.  0.
         13    1    3    3    0    0 -0.16327725303E+02  0.25166499523E+02 -0.62447904661E+02  0.69279781382E+02  0.00000000000E+00 0. -1.
        -13    1    3    3    0    0  0.74391984703E+01 -0.56093042886E+02 -0.32858771797E+02  0.65432942911E+02  0.00000000000E+00 0.  1.
         22    1    1    2    0    0  0.88885268332E+01  0.30926543363E+02  0.12180942445E+02  0.34406864903E+02  0.00000000000E+00 0.  1.
<mgrwt>
<rscale>  0 0.72592084E+02</rscale>
<asrwt>0</asrwt>
<pdfrwt beam="1">  1        1 0.19403486E-01 0.95205859E+02</pdfrwt>
<pdfrwt beam="2">  1       -1 0.66149119E-02 0.95205859E+02</pdfrwt>
<totfact> 0.27068418E+04</totfact>
</mgrwt>
</event>
<event>
 6    1  0.1535970E-002  0.8718229E+02  0.7546771E-02  0.1404108E+00
          2   -1    0    0  501    0  0.00000000000E+00  0.00000000000E+00  0.37559148682E+04  0.37559148682E+04  0.00000000000E+00 0.  1.
         -2   -1    0    0    0  501 -0.00000000000E+00 -0.00000000000E+00 -0.14830643118E+01  0.14830643118E+01  0.00000000000E+00 0. -1.
         23    2    1    2    0    0  0.31741983129E+00 -0.17707047194E+02  0.36742254241E+04  0.36752596124E+04  0.85364576900E+02 0.  0.
         11    1    3    3    0    0  0.92645460596E+01 -0.36977368518E+02  0.75892906511E+03  0.75988583581E+03  0.00000000000E+00 0. -1.
        -11    1    3    3    0    0 -0.89471262283E+01  0.19270321324E+02  0.29152963590E+04  0.29153737766E+04  0.00000000000E+00 0.  1.
         22    1    1    2    0    0 -0.31741983129E+00  0.17707047194E+02  0.80206379742E+02  0.82138320089E+02  0.00000000000E+00 0. -1.
<mgrwt>
<rscale>  0 0.58529548E+02</rscale>
<asrwt>0</asrwt>
<pdfrwt beam="1">  1        2 0.57782544E+00 0.87182288E+02</pdfrwt>
<pdfrwt beam="2">  1       -2 0.22816675E-03 0.87182288E+02</pdfrwt>
<totfact> 0.12063106E+04</totfact>
</mgrwt>
</event>
<event>
 6    1  0.1535970E-002  0.9315242E+02  0.7546771E-02  0.1408014E+00
          2   -1    0    0  501    0  0.00000000000E+00  0.00000000000E+00  0.63543800817E+02  0.63543800817E+02  0.00000000000E+00 0. -1.
         -2   -1    0    0    0  501 -0.00000000000E+00 -0.00000000000E+00 -0.47598475692E+02  0.47598475692E+02  0.00000000000E+00 0.  1.
         23    2    1    2    0    0 -0.12920727514E+02 -0.44175830350E+01  0.22743332954E+02  0.95888649078E+02  0.92146153413E+02 0.  0.
         11    1    3    3    0    0 -0.50215250261E+01 -0.35842970578E+02 -0.20698147997E+02  0.41693495703E+02  0.00000000000E+00 0.  1.
        -11    1    3    3    0    0 -0.78992024877E+01  0.31425387543E+02  0.43441480951E+02  0.54195153375E+02  0.00000000000E+00 0. -1.
         22    1    1    2    0    0  0.12920727514E+02  0.44175830350E+01 -0.67980078285E+01  0.15253627431E+02  0.00000000000E+00 0.  1.
<mgrwt>
<rscale>  0 0.57639326E+02</rscale>
<asrwt>0</asrwt>
<pdfrwt beam="1">  1        2 0.97759694E-02 0.93152423E+02</pdfrwt>
<pdfrwt beam="2">  1       -2 0.73228424E-02 0.93152423E+02</pdfrwt>
<totfact> 0.61503139E+04</totfact>
</mgrwt>
</event>
<event>
 6    1  0.1535970E-002  0.9191277E+02  0.7546771E-02  0.1398755E+00
         -2   -1    0    0    0  501 -0.00000000000E+00  0.00000000000E+00  0.11811759401E+02  0.11811759401E+02  0.00000000000E+00 0.  1.
          2   -1    0    0  501    0  0.00000000000E+00 -0.00000000000E+00 -0.57278507889E+03  0.57278507889E+03  0.00000000000E+00 0. -1.
         23    2    1    2    0    0  0.15832437791E+02  0.44577984453E+01 -0.56066188423E+03  0.56814584910E+03  0.90429084800E+02 0.  0.
         11    1    3    3    0    0 -0.26956085793E+02 -0.17667741946E+02 -0.37337166709E+03  0.37476016524E+03  0.00000000000E+00 0. -1.
        -11    1    3    3    0    0  0.42788523585E+02  0.22125540392E+02 -0.18729021714E+03  0.19338568386E+03  0.00000000000E+00 0.  1.
         22    1    1    2    0    0 -0.15832437791E+02 -0.44577984453E+01 -0.31143526606E+00  0.16450989190E+02  0.00000000000E+00 0.  1.
<mgrwt>
<rscale>  0 0.59780623E+02</rscale>
<asrwt>0</asrwt>
<pdfrwt beam="1">  1        2 0.88120756E-01 0.91912771E+02</pdfrwt>
<pdfrwt beam="2">  1       -2 0.18171943E-02 0.91912771E+02</pdfrwt>
<totfact> 0.42276119E+04</totfact>
</mgrwt>
</event>
<event>
 6    1  0.1535970E-002  0.9409660E+02  0.7546771E-02  0.1418562E+00
          2   -1    0    0  501    0  0.00000000000E+00  0.00000000000E+00  0.20166337791E+04  0.20166337791E+04  0.00000000000E+00 0. -1.
         -2   -1    0    0    0  501 -0.00000000000E+00 -0.00000000000E+00 -0.51511697906E+01  0.51511697906E+01  0.00000000000E+00 0.  1.
         23    2    1    2    0    0 -0.69264833515E+01  0.88600876419E+01  0.20077232027E+04  0.20099270206E+04  0.93422118812E+02 0.  0.
         13    1    3    3    0    0 -0.21518593591E+02 -0.33154861836E+02  0.50450389874E+03  0.50604987756E+03  0.00000000000E+00 0.  1.
        -13    1    3    3    0    0  0.14592110240E+02  0.42014949478E+02  0.15032193039E+04  0.15038771430E+04  0.00000000000E+00 0. -1.
         22    1    1    2    0    0  0.69264833515E+01 -0.88600876419E+01  0.37594066169E+01  0.11857928266E+02  0.00000000000E+00 0.  1.
<mgrwt>
<rscale>  0 0.55326350E+02</rscale>
<asrwt>0</asrwt>
<pdfrwt beam="1">  1        2 0.31025072E+00 0.94096597E+02</pdfrwt>
<pdfrwt beam="2">  1       -2 0.79248927E-03 0.94096597E+02</pdfrwt>
<totfact> 0.20709286E+04</totfact>
</mgrwt>
</event>
<event>
 6    1  0.1535970E-002  0.9052593E+02  0.7546771E-02  0.1426293E+00
         -3   -1    0    0    0  501 -0.00000000000E+00  0.00000000000E+00  0.11138939777E+02  0.11138939777E+02  0.00000000000E+00 0.  1.
          3   -1    0    0  501    0  0.00000000000E+00 -0.00000000000E+00 -0.40996829877E+03  0.40996829877E+03  0.00000000000E+00 0. -1.
         23    2    1    2    0    0 -0.97879453677E+01 -0.54824927844E+01 -0.39972991169E+03  0.40985234642E+03  0.89828068896E+02 0.  0.
         13    1    3    3    0    0  0.38869412775E+02 -0.13624315833E+02 -0.18381528003E+03  0.18837332721E+03  0.00000000000E+00 0. -1.
        -13    1    3    3    0    0 -0.48657358143E+02  0.81418230491E+01 -0.21591463167E+03  0.22147901921E+03  0.00000000000E+00 0.  1.
         22    1    1    2    0    0  0.97879453677E+01  0.54824927844E+01  0.90055269992E+00  0.11254892128E+02  0.00000000000E+00 0.  1.
<mgrwt>
<rscale>  0 0.53711390E+02</rscale>
<asrwt>0</asrwt>
<pdfrwt beam="1">  1        3 0.63072046E-01 0.90525928E+02</pdfrwt>
<pdfrwt beam="2">  1       -3 0.17136831E-02 0.90525928E+02</pdfrwt>
<totfact> 0.62495895E+03</totfact>
</mgrwt>
</event>
<event>
 6    1  0.1535970E-002  0.1034268E+03  0.7546771E-02  0.1319095E+00
         -4   -1    0    0    0  501 -0.00000000000E+00  0.00000000000E+00  0.32188954507E+03  0.32188954507E+03  0.00000000000E+00 0.  1.
          4   -1    0    0  501    0  0.00000000000E+00 -0.00000000000E+00 -0.17121625017E+02  0.17121625017E+02  0.00000000000E+00 0. -1.
         23    2    1    2    0    0 -0.42759229415E+02 -0.11116091613E+02  0.22962066540E+03  0.25183876003E+03  0.93515730672E+02 0.  0.
         11    1    3    3    0    0 -0.41983100421E+01 -0.45285931182E+02  0.64906372322E+02  0.79254517463E+02  0.00000000000E+00 0. -1.
        -11    1    3    3    0    0 -0.38560919373E+02  0.34169839570E+02  0.16471429308E+03  0.17258424257E+03  0.00000000000E+00 0.  1.
         22    1    1    2    0    0  0.42759229415E+02  0.11116091613E+02  0.75147254649E+02  0.87172410051E+02  0.00000000000E+00 0.  1.
<mgrwt>
<rscale>  0 0.83614706E+02</rscale>
<asrwt>0</asrwt>
<pdfrwt beam="1">  1        4 0.26340964E-02 0.10342684E+03</pdfrwt>
<pdfrwt beam="2">  1       -4 0.49521464E-01 0.10342684E+03</pdfrwt>
<totfact> 0.40043850E+03</totfact>
</mgrwt>
</event>
<event>
 6    1  0.1535970E-002  0.9577276E+02  0.7546771E-02  0.1421273E+00
          2   -1    0    0  501    0  0.00000000000E+00  0.00000000000E+00  0.21646465651E+03  0.21646465651E+03  0.00000000000E+00 0. -1.
         -2   -1    0    0    0  501 -0.00000000000E+00 -0.00000000000E+00 -0.19426423122E+02  0.19426423122E+02  0.00000000000E+00 0.  1.
         23    2    1    2    0    0 -0.90028203212E+01 -0.48589880228E+01  0.20270844858E+03  0.22419441863E+03  0.95224795512E+02 0.  0.
         11    1    3    3    0    0 -0.38382501075E+01 -0.98074763350E+01  0.21211557618E+03  0.21237687354E+03  0.00000000000E+00 0. -1.
        -11    1    3    3    0    0 -0.51645702137E+01  0.49484883122E+01 -0.94071276051E+01  0.11817545085E+02  0.00000000000E+00 0.  1.
         22    1    1    2    0    0  0.90028203212E+01  0.48589880228E+01 -0.56702151909E+01  0.11696661004E+02  0.00000000000E+00 0.  1.
<mgrwt>
<rscale>  0 0.54752554E+02</rscale>
<asrwt>0</asrwt>
<pdfrwt beam="1">  1        2 0.33302253E-01 0.95772763E+02</pdfrwt>
<pdfrwt beam="2">  1       -2 0.29886806E-02 0.95772763E+02</pdfrwt>
<totfact> 0.58128570E+04</totfact>
</mgrwt>
</event>
<event>
 6    1  0.1535970E-002  0.9929089E+02  0.7546771E-02  0.1335099E+00
         -2   -1    0    0    0  501 -0.00000000000E+00  0.00000000000E+00  0.26875746039E+02  0.26875746039E+02  0.00000000000E+00 0.  1.
          2   -1    0    0  501    0  0.00000000000E+00 -0.00000000000E+00 -0.18318005232E+03  0.18318005232E+03  0.00000000000E+00 0. -1.
         23    2    1    2    0    0 -0.35046045583E+02 -0.13713077079E+02 -0.13231542789E+03  0.16542688306E+03  0.91882573909E+02 0.  0.
         11    1    3    3    0    0 -0.62139319305E+02  0.71838705615E+00 -0.11356590368E+03  0.12945665515E+03  0.00000000000E+00 0. -1.
        -11    1    3    3    0    0  0.27093273722E+02 -0.14431464135E+02 -0.18749524209E+02  0.35970227913E+02  0.00000000000E+00 0.  1.
         22    1    1    2    0    0  0.35046045583E+02  0.13713077079E+02 -0.23988878390E+02  0.44628915295E+02  0.00000000000E+00 0.  1.
<mgrwt>
<rscale>  0 0.77906817E+02</rscale>
<asrwt>0</asrwt>
<pdfrwt beam="1">  1        2 0.28181546E-01 0.99290892E+02</pdfrwt>
<pdfrwt beam="2">  1       -2 0.41347302E-02 0.99290892E+02</pdfrwt>
<totfact> 0.43392544E+04</totfact>
</mgrwt>
</event>
<event>
 6    1  0.1535970E-002  0.9025788E+02  0.7546771E-02  0.1410997E+00
          2   -1    0    0  501    0  0.00000000000E+00  0.00000000000E+00  0.29878456236E+03  0.29878456236E+03  0.00000000000E+00 0. -1.
         -2   -1    0    0    0  501 -0.00000000000E+00 -0.00000000000E+00 -0.92753050040E+01  0.92753050040E+01  0.00000000000E+00 0.  1.
         23    2    1    2    0    0  0.77080252258E+01  0.12078254387E+02  0.26074142672E+03  0.27592132413E+03  0.89113341414E+02 0.  0.
         11    1    3    3    0    0  0.27996712273E+02  0.38689164079E+02  0.89532266549E+02  0.10147262719E+03  0.00000000000E+00 0.  1.
        -11    1    3    3    0    0 -0.20288687048E+02 -0.26610909692E+02  0.17120916017E+03  0.17444869694E+03  0.00000000000E+00 0. -1.
         22    1    1    2    0    0 -0.77080252258E+01 -0.12078254387E+02  0.28767830638E+02  0.32138543239E+02  0.00000000000E+00 0.  1.
<mgrwt>
<rscale>  0 0.56972059E+02</rscale>
<asrwt>0</asrwt>
<pdfrwt beam="1">  1        2 0.45966848E-01 0.90257883E+02</pdfrwt>
<pdfrwt beam="2">  1       -2 0.14269702E-02 0.90257883E+02</pdfrwt>
<totfact> 0.11898953E+05</totfact>
</mgrwt>
</event>
<event>
 6    1  0.1535970E-002  0.9401143E+02  0.7546771E-02  0.1384006E+00
         -2   -1    0    0    0  501 -0.00000000000E+00  0.00000000000E+00  0.12102190439E+02  0.12102190439E+02  0.00000000000E+00 0.  1.
          2   -1    0    0  501    0  0.00000000000E+00 -0.00000000000E+00 -0.27480064713E+03  0.27480064713E+03  0.00000000000E+00 0. -1.
         23    2    1    2    0    0  0.16182308162E+02  0.10831392521E+02 -0.23441781366E+03  0.25256654581E+03  0.91972618426E+02 0.  0.
         13    1    3    3    0    0 -0.18115366523E+01  0.44726010539E+02 -0.65432052644E+02  0.79278314796E+02  0.00000000000E+00 0. -1.
        -13    1    3    3    0    0  0.17993844814E+02 -0.33894618018E+02 -0.16898576102E+03  0.17328823101E+03  0.00000000000E+00 0.  1.
         22    1    1    2    0    0 -0.16182308162E+02 -0.10831392521E+02 -0.28280643026E+02  0.34336291754E+02  0.00000000000E+00 0. -1.
<mgrwt>
<rscale>  0 0.63422309E+02</rscale>
<asrwt>0</asrwt>
<pdfrwt beam="1">  1        2 0.42277021E-01 0.94011429E+02</pdfrwt>
<pdfrwt beam="2">  1       -2 0.18618755E-02 0.94011429E+02</pdfrwt>
<totfact> 0.89324536E+04</totfact>
</mgrwt>
</event>
<event>
 6    1  0.1535970E-002  0.9278005E+02  0.7546771E-02  0.1403625E+00
          2   -1    0    0  501    0  0.00000000000E+00  0.00000000000E+00  0.38607448523E+03  0.38607448523E+03  0.00000000000E+00 0. -1.
         -2   -1    0    0    0  501 -0.00000000000E+00 -0.00000000000E+00 -0.31661954708E+02  0.31661954708E+02  0.00000000000E+00 0.  1.
         23    2    1    2    0    0 -0.13439759581E+02  0.62125686815E+01  0.37836652737E+03  0.38957588043E+03  0.91591017200E+02 0.  0.
         11    1    3    3    0    0  0.14414264936E+02  0.92126624438E+01  0.93458444751E+01  0.19493306336E+02  0.00000000000E+00 0.  1.
        -11    1    3    3    0    0 -0.27854024517E+02 -0.30000937623E+01  0.36902068289E+03  0.37008257409E+03  0.00000000000E+00 0. -1.
         22    1    1    2    0    0  0.13439759581E+02 -0.62125686815E+01 -0.23953996844E+02  0.28160559512E+02  0.00000000000E+00 0.  1.
<mgrwt>
<rscale>  0 0.58641052E+02</rscale>
<asrwt>0</asrwt>
<pdfrwt beam="1">  1        2 0.59396072E-01 0.92780049E+02</pdfrwt>
<pdfrwt beam="2">  1       -2 0.48710702E-02 0.92780049E+02</pdfrwt>
<totfact> 0.15387638E+04</totfact>
</mgrwt>
</event>
<event>
 6    1  0.1535970E-002  0.9240134E+02  0.7546771E-02  0.1391623E+00
         -3   -1    0    0    0  501 -0.00000000000E+00  0.00000000000E+00  0.51758302600E+02  0.51758302600E+02  0.00000000000E+00 0.  1.
          3   -1    0    0  501    0  0.00000000000E+00 -0.00000000000E+00 -0.77325887597E+02  0.77325887597E+02  0.00000000000E+00 0. -1.
         23    2    1    2    0    0  0.18015885994E+02 -0.21069727960E+01 -0.44764279050E+02  0.10267350022E+03  0.90603507029E+02 0.  0.
         13    1    3    3    0    0  0.55006690914E+01  0.35673365507E+02 -0.50905001585E+02  0.62403249542E+02  0.00000000000E+00 0. -1.
        -13    1    3    3    0    0  0.12515216902E+02 -0.37780338303E+02  0.61407225352E+01  0.40270250678E+02  0.00000000000E+00 0.  1.
         22    1    1    2    0    0 -0.18015885994E+02  0.21069727960E+01  0.19196694052E+02  0.26410689977E+02  0.00000000000E+00 0. -1.
<mgrwt>
<rscale>  0 0.61504950E+02</rscale>
<asrwt>0</asrwt>
<pdfrwt beam="1">  1        3 0.11896290E-01 0.92401336E+02</pdfrwt>
<pdfrwt beam="2">  1       -3 0.79628158E-02 0.92401336E+02</pdfrwt>
<totfact> 0.12241537E+04</totfact>
</mgrwt>
</event>
<event>
 6    1  0.1535970E-002  0.9408901E+02  0.7546771E-02  0.1399414E+00
          2   -1    0    0  501    0  0.00000000000E+00  0.00000000000E+00  0.85172666185E+02  0.85172666185E+02  0.00000000000E+00 0. -1.
         -2   -1    0    0    0  501 -0.00000000000E+00 -0.00000000000E+00 -0.35805686619E+02  0.35805686619E+02  0.00000000000E+00 0.  1.
         23    2    1    2    0    0 -0.66583667557E+01  0.13634380798E+02  0.35947624222E+02  0.10072226025E+03  0.92857481312E+02 0.  0.
         11    1    3    3    0    0 -0.26441937597E+02 -0.33580675074E+02  0.13482488699E+02  0.44817578067E+02  0.00000000000E+00 0. -1.
        -11    1    3    3    0    0  0.19783570841E+02  0.47215055871E+02  0.22465135523E+02  0.55904682185E+02  0.00000000000E+00 0.  1.
         22    1    1    2    0    0  0.66583667557E+01 -0.13634380798E+02  0.13419355344E+02  0.20256092551E+02  0.00000000000E+00 0. -1.
<mgrwt>
<rscale>  0 0.59624460E+02</rscale>
<asrwt>0</asrwt>
<pdfrwt beam="1">  1        2 0.13103487E-01 0.94089011E+02</pdfrwt>
<pdfrwt beam="2">  1       -2 0.55085672E-02 0.94089011E+02</pdfrwt>
<totfact> 0.66619398E+04</totfact>
</mgrwt>
</event>
<event>
 6    1  0.1535970E-002  0.9185152E+02  0.7546771E-02  0.1396682E+00
          2   -1    0    0  501    0  0.00000000000E+00  0.00000000000E+00  0.12335904002E+04  0.12335904002E+04  0.00000000000E+00 0. -1.
         -2   -1    0    0    0  501 -0.00000000000E+00 -0.00000000000E+00 -0.46389753219E+01  0.46389753219E+01  0.00000000000E+00 0.  1.
         23    2    1    2    0    0  0.13696147431E+02 -0.10125800237E+02  0.12067809351E+04  0.12102714267E+04  0.90258432723E+02 0.  0.
         11    1    3    3    0    0  0.14649509338E+01  0.39754335059E+02  0.45331323016E+03  0.45505542286E+03  0.00000000000E+00 0. -1.
        -11    1    3    3    0    0  0.12231196497E+02 -0.49880135296E+02  0.75346770497E+03  0.75521600387E+03  0.00000000000E+00 0.  1.
         22    1    1    2    0    0 -0.13696147431E+02  0.10125800237E+02  0.22170489734E+02  0.27957948779E+02  0.00000000000E+00 0.  1.
<mgrwt>
<rscale>  0 0.60274867E+02</rscale>
<asrwt>0</asrwt>
<pdfrwt beam="1">  1        2 0.18978288E+00 0.91851516E+02</pdfrwt>
<pdfrwt beam="2">  1       -2 0.71368949E-03 0.91851516E+02</pdfrwt>
<totfact> 0.60142797E+04</totfact>
</mgrwt>
</event>
<event>
 6    1  0.1535970E-002  0.9214947E+02  0.7546771E-02  0.1397587E+00
          4   -1    0    0  501    0  0.00000000000E+00  0.00000000000E+00  0.21624997740E+02  0.21624997740E+02  0.00000000000E+00 0. -1.
         -4   -1    0    0    0  501 -0.00000000000E+00 -0.00000000000E+00 -0.16168062277E+03  0.16168062277E+03  0.00000000000E+00 0.  1.
         23    2    1    2    0    0 -0.15014355942E+02  0.71431570656E+01 -0.83489197069E+02  0.12434617386E+03  0.90637019748E+02 0.  0.
         11    1    3    3    0    0 -0.48212857860E+02 -0.78173739076E+01 -0.70332402275E+02  0.85628487127E+02  0.00000000000E+00 0.  1.
        -11    1    3    3    0    0  0.33198501918E+02  0.14960530973E+02 -0.13156794794E+02  0.38717686732E+02  0.00000000000E+00 0. -1.
         22    1    1    2    0    0  0.15014355942E+02 -0.71431570656E+01 -0.56566427956E+02  0.58959446647E+02  0.00000000000E+00 0. -1.
<mgrwt>
<rscale>  0 0.60058268E+02</rscale>
<asrwt>0</asrwt>
<pdfrwt beam="1">  1        4 0.33269228E-02 0.92149471E+02</pdfrwt>
<pdfrwt beam="2">  1       -4 0.24873941E-01 0.92149471E+02</pdfrwt>
<totfact> 0.10115265E+04</totfact>
</mgrwt>
</event>
<event>
 6    1  0.1535970E-002  0.9505232E+02  0.7546771E-02  0.1393973E+00
          2   -1    0    0  501    0  0.00000000000E+00  0.00000000000E+00  0.29830144627E+03  0.29830144627E+03  0.00000000000E+00 0. -1.
         -2   -1    0    0    0  501 -0.00000000000E+00 -0.00000000000E+00 -0.14530983064E+02  0.14530983064E+02  0.00000000000E+00 0.  1.
         23    2    1    2    0    0  0.13619303316E+02 -0.84878823451E+01  0.28087874939E+03  0.29652624712E+03  0.93687853014E+02 0.  0.
         13    1    3    3    0    0  0.26611203408E+02  0.33958181762E+02  0.80951733681E+02  0.91730569830E+02  0.00000000000E+00 0.  1.
        -13    1    3    3    0    0 -0.12991900092E+02 -0.42446064107E+02  0.19992701571E+03  0.20479567729E+03  0.00000000000E+00 0. -1.
         22    1    1    2    0    0 -0.13619303316E+02  0.84878823451E+01  0.28917138129E+01  0.16306182211E+02  0.00000000000E+00 0.  1.
<mgrwt>
<rscale>  0 0.60929193E+02</rscale>
<asrwt>0</asrwt>
<pdfrwt beam="1">  1        2 0.45892526E-01 0.95052319E+02</pdfrwt>
<pdfrwt beam="2">  1       -2 0.22355361E-02 0.95052319E+02</pdfrwt>
<totfact> 0.63104309E+04</totfact>
</mgrwt>
</event>
<event>
 6    1  0.1535970E-002  0.9232466E+02  0.7546771E-02  0.1401360E+00
          2   -1    0    0  501    0  0.00000000000E+00  0.00000000000E+00  0.41660638451E+03  0.41660638451E+03  0.00000000000E+00 0. -1.
         -2   -1    0    0    0  501 -0.00000000000E+00 -0.00000000000E+00 -0.74335947149E+01  0.74335947149E+01  0.00000000000E+00 0.  1.
         23    2    1    2    0    0 -0.93283596202E+01  0.12469937643E+02  0.37902715133E+03  0.39010950389E+03  0.91001790868E+02 0.  0.
         11    1    3    3    0    0 -0.30673957824E+02 -0.20634476181E+02  0.29500849129E+03  0.29731579714E+03  0.00000000000E+00 0. -1.
        -11    1    3    3    0    0  0.21345598204E+02  0.33104413824E+02  0.84018660042E+02  0.92793706751E+02  0.00000000000E+00 0.  1.
         22    1    1    2    0    0  0.93283596202E+01 -0.12469937643E+02  0.30145638464E+02  0.33930475335E+02  0.00000000000E+00 0. -1.
<mgrwt>
<rscale>  0 0.59167227E+02</rscale>
<asrwt>0</asrwt>
<pdfrwt beam="1">  1        2 0.64093272E-01 0.92324664E+02</pdfrwt>
<pdfrwt beam="2">  1       -2 0.11436303E-02 0.92324664E+02</pdfrwt>
<totfact> 0.11543877E+05</totfact>
</mgrwt>
</event>
<event>
 6    1  0.1535970E-002  0.9233933E+02  0.7546771E-02  0.1427554E+00
         -2   -1    0    0    0  501 -0.00000000000E+00  0.00000000000E+00  0.58885584110E+01  0.58885584110E+01  0.00000000000E+00 0.  1.
          2   -1    0    0  501    0  0.00000000000E+00 -0.00000000000E+00 -0.45038358000E+03  0.45038358000E+03  0.00000000000E+00 0. -1.
         23    2    1    2    0    0 -0.96492505022E+01  0.37975997599E+01 -0.40895475661E+03  0.41924997972E+03  0.91755232787E+02 0.  0.
         13    1    3    3    0    0  0.26103101753E+02 -0.13103730571E+00 -0.35483334027E+02  0.44050608232E+02  0.00000000000E+00 0.  1.
        -13    1    3    3    0    0 -0.35752352255E+02  0.39286370656E+01 -0.37347142258E+03  0.37519937149E+03  0.00000000000E+00 0. -1.
         22    1    1    2    0    0  0.96492505022E+01 -0.37975997599E+01 -0.35540264973E+02  0.37022158683E+02  0.00000000000E+00 0.  1.
<mgrwt>
<rscale>  0 0.53454117E+02</rscale>
<asrwt>0</asrwt>
<pdfrwt beam="1">  1        2 0.69289772E-01 0.92339334E+02</pdfrwt>
<pdfrwt beam="2">  1       -2 0.90593218E-03 0.92339334E+02</pdfrwt>
<totfact> 0.14783224E+05</totfact>
</mgrwt>
</event>
<event>
 6    1  0.1535970E-002  0.9405675E+02  0.7546771E-02  0.1400648E+00
          2   -1    0    0  501    0  0.00000000000E+00  0.00000000000E+00  0.52632633301E+02  0.52632633301E+02  0.00000000000E+00 0. -1.
         -2   -1    0    0    0  501 -0.00000000000E+00 -0.00000000000E+00 -0.56979873250E+02  0.56979873250E+02  0.00000000000E+00 0.  1.
         23    2    1    2    0    0 -0.74289111005E+01  0.12910345123E+02  0.13747763017E+00  0.94056850889E+02  0.92869836694E+02 0.  0.
         11    1    3    3    0    0  0.12834526830E+02 -0.36389115949E+02  0.99762283344E+01  0.39854961677E+02  0.00000000000E+00 0. -1.
        -11    1    3    3    0    0 -0.20263437930E+02  0.49299461072E+02 -0.98387507042E+01  0.54201889212E+02  0.00000000000E+00 0.  1.
         22    1    1    2    0    0  0.74289111005E+01 -0.12910345123E+02 -0.44847175792E+01  0.15555655663E+02  0.00000000000E+00 0. -1.
<mgrwt>
<rscale>  0 0.59334018E+02</rscale>
<asrwt>0</asrwt>
<pdfrwt beam="1">  1        2 0.80973282E-02 0.94056750E+02</pdfrwt>
<pdfrwt beam="2">  1       -2 0.87661344E-02 0.94056750E+02</pdfrwt>
<totfact> 0.58944745E+04</totfact>
</mgrwt>
</event>
<event>
 6    1  0.1535970E-002  0.8702616E+02  0.7546771E-02  0.1410883E+00
         -2   -1    0    0    0  501 -0.00000000000E+00  0.00000000000E+00  0.10148158539E+02  0.10148158539E+02  0.00000000000E+00 0.  1.
          2   -1    0    0  501    0  0.00000000000E+00 -0.00000000000E+00 -0.30089639850E+03  0.30089639850E+03  0.00000000000E+00 0. -1.
         23    2    1    2    0    0  0.11393052693E+02  0.11251987967E+02 -0.27555570410E+03  0.28897145058E+03  0.85540308068E+02 0.  0.
         11    1    3    3    0    0  0.94041891274E+01 -0.20001527319E+02 -0.24224507012E+03  0.24325125666E+03  0.00000000000E+00 0. -1.
        -11    1    3    3    0    0  0.19888635657E+01  0.31253515286E+02 -0.33310633984E+02  0.45720193924E+02  0.00000000000E+00 0.  1.
         22    1    1    2    0    0 -0.11393052693E+02 -0.11251987967E+02 -0.15192535857E+02  0.22073106457E+02  0.00000000000E+00 0. -1.
<mgrwt>
<rscale>  0 0.56997265E+02</rscale>
<asrwt>0</asrwt>
<pdfrwt beam="1">  1        2 0.46291752E-01 0.87026164E+02</pdfrwt>
<pdfrwt beam="2">  1       -2 0.15612552E-02 0.87026164E+02</pdfrwt>
<totfact> 0.10331869E+05</totfact>
</mgrwt>
</event>
<event>
 6    1  0.1535970E-002  0.8862910E+02  0.7546771E-02  0.1425420E+00
          2   -1    0    0  501    0  0.00000000000E+00  0.00000000000E+00  0.76887184040E+03  0.76887184040E+03  0.00000000000E+00 0. -1.
         -2   -1    0    0    0  501 -0.00000000000E+00 -0.00000000000E+00 -0.39689375150E+01  0.39689375150E+01  0.00000000000E+00 0.  1.
         23    2    1    2    0    0  0.37982273659E+01  0.11504114245E+02  0.73840214124E+03  0.74370211728E+03  0.87797186097E+02 0.  0.
         11    1    3    3    0    0  0.54187625586E+01  0.24958080910E+02  0.60566605568E+02  0.65731137983E+02  0.00000000000E+00 0.  1.
        -11    1    3    3    0    0 -0.16205351927E+01 -0.13453966666E+02  0.67783553567E+03  0.67797097930E+03  0.00000000000E+00 0. -1.
         22    1    1    2    0    0 -0.37982273659E+01 -0.11504114245E+02  0.26500761638E+02  0.29138660626E+02  0.00000000000E+00 0. -1.
<mgrwt>
<rscale>  0 0.53890516E+02</rscale>
<asrwt>0</asrwt>
<pdfrwt beam="1">  1        2 0.11828786E+00 0.88629098E+02</pdfrwt>
<pdfrwt beam="2">  1       -2 0.61060638E-03 0.88629098E+02</pdfrwt>
<totfact> 0.14064697E+05</totfact>
</mgrwt>
</event>
<event>
 6    1  0.1535970E-002  0.1164374E+03  0.7546771E-02  0.1273952E+00
          2   -1    0    0  501    0  0.00000000000E+00  0.00000000000E+00  0.13133329135E+04  0.13133329135E+04  0.00000000000E+00 0. -1.
         -2   -1    0    0    0  501 -0.00000000000E+00 -0.00000000000E+00 -0.87627509531E+01  0.87627509531E+01  0.00000000000E+00 0.  1.
         23    2    1    2    0    0 -0.61545567945E+02 -0.36421608245E+02  0.10836736931E+04  0.10899111673E+04  0.91887371924E+02 0.  0.
         13    1    3    3    0    0 -0.39351043963E+02 -0.39941677653E+02  0.10324935558E+04  0.10340148863E+04  0.00000000000E+00 0. -1.
        -13    1    3    3    0    0 -0.22194523982E+02  0.35200694073E+01  0.51180137252E+02  0.55896281026E+02  0.00000000000E+00 0.  1.
         22    1    1    2    0    0  0.61545567945E+02  0.36421608245E+02  0.22089646947E+03  0.23218449713E+03  0.00000000000E+00 0.  1.
<mgrwt>
<rscale>  0 0.10307866E+03</rscale>
<asrwt>0</asrwt>
<pdfrwt beam="1">  1        2 0.20205106E+00 0.11643745E+03</pdfrwt>
<pdfrwt beam="2">  1       -2 0.13481166E-02 0.11643745E+03</pdfrwt>
<totfact> 0.22566430E+04</totfact>
</mgrwt>
</event>
<event>
 6    1  0.1535970E-002  0.9247037E+02  0.7546771E-02  0.1402932E+00
          2   -1    0    0  501    0  0.00000000000E+00  0.00000000000E+00  0.17925366722E+03  0.17925366722E+03  0.00000000000E+00 0. -1.
         -2   -1    0    0    0  501 -0.00000000000E+00 -0.00000000000E+00 -0.16469858966E+02  0.16469858966E+02  0.00000000000E+00 0.  1.
         23    2    1    2    0    0 -0.68744428538E+01 -0.13466510872E+02  0.14841636075E+03  0.17486619109E+03  0.91225894174E+02 0.  0.
         11    1    3    3    0    0  0.20996990234E+02  0.17019382019E+02  0.75420084220E+01  0.28060913282E+02  0.00000000000E+00 0.  1.
        -11    1    3    3    0    0 -0.27871433088E+02 -0.30485892891E+02  0.14087435233E+03  0.14680527781E+03  0.00000000000E+00 0. -1.
         22    1    1    2    0    0  0.68744428538E+01  0.13466510872E+02  0.14367447500E+02  0.20857335096E+02  0.00000000000E+00 0.  1.
<mgrwt>
<rscale>  0 0.58801394E+02</rscale>
<asrwt>0</asrwt>
<pdfrwt beam="1">  1        2 0.27577486E-01 0.92470366E+02</pdfrwt>
<pdfrwt beam="2">  1       -2 0.25338246E-02 0.92470366E+02</pdfrwt>
<totfact> 0.89935357E+04</totfact>
</mgrwt>
</event>
<event>
 6    1  0.1535970E-002  0.9483200E+02  0.7546771E-02  0.1403721E+00
          2   -1    0    0  501    0  0.00000000000E+00  0.00000000000E+00  0.74078812356E+03  0.74078812356E+03  0.00000000000E+00 0. -1.
         -2   -1    0    0    0  501 -0.00000000000E+00 -0.00000000000E+00 -0.40271467494E+02  0.40271467494E+02  0.00000000000E+00 0.  1.
         23    2    1    2    0    0 -0.13542802939E+02 -0.28759983516E+01  0.73646077657E+03  0.74254130089E+03  0.93815932685E+02 0.  0.
         13    1    3    3    0    0  0.25191978819E+02 -0.19634133682E+02  0.56718375469E+03  0.56808234138E+03  0.00000000000E+00 0. -1.
        -13    1    3    3    0    0 -0.38734781758E+02  0.16758135331E+02  0.16927702188E+03  0.17445895951E+03  0.00000000000E+00 0.  1.
         22    1    1    2    0    0  0.13542802939E+02  0.28759983516E+01 -0.35944120506E+02  0.38518290161E+02  0.00000000000E+00 0.  1.
<mgrwt>
<rscale>  0 0.58618940E+02</rscale>
<asrwt>0</asrwt>
<pdfrwt beam="1">  1        2 0.11396739E+00 0.94831999E+02</pdfrwt>
<pdfrwt beam="2">  1       -2 0.61956110E-02 0.94831999E+02</pdfrwt>
<totfact> 0.52432604E+03</totfact>
</mgrwt>
</event>
<event>
 6    1  0.1535970E-002  0.9528751E+02  0.7546771E-02  0.1387735E+00
          2   -1    0    0  501    0  0.00000000000E+00  0.00000000000E+00  0.36175204771E+02  0.36175204771E+02  0.00000000000E+00 0.  1.
         -2   -1    0    0    0  501 -0.00000000000E+00 -0.00000000000E+00 -0.12405018431E+03  0.12405018431E+03  0.00000000000E+00 0. -1.
         23    2    1    2    0    0  0.17540650066E+02  0.15220127055E+01 -0.30254849296E+02  0.99975324047E+02  0.93646775625E+02 0.  0.
         11    1    3    3    0    0  0.27063730288E+01  0.43402055259E+02  0.42882403371E+01  0.43697275211E+02  0.00000000000E+00 0. -1.
        -11    1    3    3    0    0  0.14834277037E+02 -0.41880042553E+02 -0.34543089633E+02  0.56278048837E+02  0.00000000000E+00 0.  1.
         22    1    1    2    0    0 -0.17540650066E+02 -0.15220127055E+01 -0.57620130246E+02  0.60250065037E+02  0.00000000000E+00 0.  1.
<mgrwt>
<rscale>  0 0.62473467E+02</rscale>
<asrwt>0</asrwt>
<pdfrwt beam="1">  1        2 0.55654161E-02 0.95287510E+02</pdfrwt>
<pdfrwt beam="2">  1       -2 0.19084644E-01 0.95287510E+02</pdfrwt>
<totfact> 0.27346234E+04</totfact>
</mgrwt>
</event>
<event>
 6    1  0.1535970E-002  0.9232888E+02  0.7546771E-02  0.1381870E+00
         -2   -1    0    0    0  501 -0.00000000000E+00  0.00000000000E+00  0.14776294417E+02  0.14776294417E+02  0.00000000000E+00 0.  1.
          2   -1    0    0  501    0  0.00000000000E+00 -0.00000000000E+00 -0.22824477903E+03  0.22824477903E+03  0.00000000000E+00 0. -1.
         23    2    1    2    0    0  0.20935902258E+02  0.38259474655E+01 -0.19057715380E+03  0.21176466764E+03  0.89842490141E+02 0.  0.
         11    1    3    3    0    0  0.91004820358E+01  0.20181972362E+01 -0.19764284343E+03  0.19786254181E+03  0.00000000000E+00 0. -1.
        -11    1    3    3    0    0  0.11835420222E+02  0.18077502293E+01  0.70656896297E+01  0.13902125833E+02  0.00000000000E+00 0.  1.
         22    1    1    2    0    0 -0.20935902258E+02 -0.38259474655E+01 -0.22891330817E+02  0.31256405806E+02  0.00000000000E+00 0. -1.
<mgrwt>
<rscale>  0 0.63974877E+02</rscale>
<asrwt>0</asrwt>
<pdfrwt beam="1">  1        2 0.35114579E-01 0.92328884E+02</pdfrwt>
<pdfrwt beam="2">  1       -2 0.22732762E-02 0.92328884E+02</pdfrwt>
<totfact> 0.81271475E+04</totfact>
</mgrwt>
</event>
<event>
 6    1  0.1535970E-002  0.9553738E+02  0.7546771E-02  0.1360286E+00
          2   -1    0    0  501    0  0.00000000000E+00  0.00000000000E+00  0.35612710875E+03  0.35612710875E+03  0.00000000000E+00 0. -1.
         -2   -1    0    0    0  501 -0.00000000000E+00 -0.00000000000E+00 -0.11051999905E+02  0.11051999905E+02  0.00000000000E+00 0.  1.
         23    2    1    2    0    0 -0.27190321071E+02 -0.37322413276E+01  0.29488616951E+03  0.30997619949E+03  0.91510371529E+02 0.  0.
         13    1    3    3    0    0 -0.46884131184E+02  0.15288749233E+02  0.84666597018E+02  0.97981121960E+02  0.00000000000E+00 0.  1.
        -13    1    3    3    0    0  0.19693810113E+02 -0.19020990561E+02  0.21021957249E+03  0.21199507753E+03  0.00000000000E+00 0. -1.
         22    1    1    2    0    0  0.27190321071E+02  0.37322413276E+01  0.50188939336E+02  0.57202909165E+02  0.00000000000E+00 0. -1.
<mgrwt>
<rscale>  0 0.69943426E+02</rscale>
<asrwt>0</asrwt>
<pdfrwt beam="1">  1        2 0.54788777E-01 0.95537382E+02</pdfrwt>
<pdfrwt beam="2">  1       -2 0.17003080E-02 0.95537382E+02</pdfrwt>
<totfact> 0.77731097E+04</totfact>
</mgrwt>
</event>
<event>
 6    1  0.1535970E-002  0.9040663E+02  0.7546771E-02  0.1424639E+00
         -2   -1    0    0    0  501 -0.00000000000E+00  0.00000000000E+00  0.13081798054E+02  0.13081798054E+02  0.00000000000E+00 0.  1.
          2   -1    0    0  501    0  0.00000000000E+00 -0.00000000000E+00 -0.21533829568E+03  0.21533829568E+03  0.00000000000E+00 0. -1.
         23    2    1    2    0    0  0.93702512524E+01 -0.67547603051E+01 -0.19456226782E+03  0.21454098830E+03  0.89665663471E+02 0.  0.
         13    1    3    3    0    0 -0.22772364870E+02 -0.16048692178E+01 -0.17516721028E+03  0.17664854306E+03  0.00000000000E+00 0. -1.
        -13    1    3    3    0    0  0.32142616123E+02 -0.51498910873E+01 -0.19395057540E+02  0.37892445242E+02  0.00000000000E+00 0.  1.
         22    1    1    2    0    0 -0.93702512524E+01  0.67547603051E+01 -0.76942298029E+01  0.13879105431E+02  0.00000000000E+00 0.  1.
<mgrwt>
<rscale>  0 0.54051315E+02</rscale>
<asrwt>0</asrwt>
<pdfrwt beam="1">  1        2 0.33128966E-01 0.90406635E+02</pdfrwt>
<pdfrwt beam="2">  1       -2 0.20125845E-02 0.90406635E+02</pdfrwt>
<totfact> 0.10267919E+05</totfact>
</mgrwt>
</event>
<event>
 6    1  0.1535970E-002  0.1055997E+03  0.7546771E-02  0.1308153E+00
          2   -1    0    0  501    0  0.00000000000E+00  0.00000000000E+00  0.74150969564E+03  0.74150969564E+03  0.00000000000E+00 0. -1.
         -2   -1    0    0    0  501 -0.00000000000E+00 -0.00000000000E+00 -0.11418004395E+02  0.11418004395E+02  0.00000000000E+00 0.  1.
         23    2    1    2    0    0  0.18516316133E+02 -0.47059691722E+02  0.64771324442E+03  0.65626500273E+03  0.92702957172E+02 0.  0.
         11    1    3    3    0    0  0.48903578612E+02 -0.47942892659E+02  0.54062494762E+03  0.54494533208E+03  0.00000000000E+00 0. -1.
        -11    1    3    3    0    0 -0.30387262479E+02  0.88320093704E+00  0.10708829680E+03  0.11131967066E+03  0.00000000000E+00 0.  1.
         22    1    1    2    0    0 -0.18516316133E+02  0.47059691722E+02  0.82378446825E+02  0.96662697301E+02  0.00000000000E+00 0.  1.
<mgrwt>
<rscale>  0 0.87846295E+02</rscale>
<asrwt>0</asrwt>
<pdfrwt beam="1">  1        2 0.11407838E+00 0.10559975E+03</pdfrwt>
<pdfrwt beam="2">  1       -2 0.17566166E-02 0.10559975E+03</pdfrwt>
<totfact> 0.33498980E+04</totfact>
</mgrwt>
</event>
<event>
 6    1  0.1535970E-002  0.1026788E+03  0.7546771E-02  0.1348807E+00
          2   -1    0    0  501    0  0.00000000000E+00  0.00000000000E+00  0.88240628497E+03  0.88240628497E+03  0.00000000000E+00 0. -1.
         -2   -1    0    0    0  501 -0.00000000000E+00 -0.00000000000E+00 -0.48793885225E+01  0.48793885225E+01  0.00000000000E+00 0.  1.
         23    2    1    2    0    0 -0.97596804586E+01 -0.25018649348E+02  0.74708845402E+03  0.75411145887E+03  0.99104743019E+02 0.  0.
         13    1    3    3    0    0 -0.32372347203E+02  0.29404426140E+02  0.32388917749E+03  0.32682837765E+03  0.00000000000E+00 0. -1.
        -13    1    3    3    0    0  0.22612666744E+02 -0.54423075488E+02  0.42319927653E+03  0.42728308122E+03  0.00000000000E+00 0.  1.
         22    1    1    2    0    0  0.97596804586E+01  0.25018649348E+02  0.13043844243E+03  0.13317421462E+03  0.00000000000E+00 0. -1.
<mgrwt>
<rscale>  0 0.73428784E+02</rscale>
<asrwt>0</asrwt>
<pdfrwt beam="1">  1        2 0.13575469E+00 0.10267879E+03</pdfrwt>
<pdfrwt beam="2">  1       -2 0.75067586E-03 0.10267879E+03</pdfrwt>
<totfact> 0.90434466E+04</totfact>
</mgrwt>
</event>
<event>
 6    1  0.1535970E-002  0.9132417E+02  0.7546771E-02  0.1389329E+00
         -2   -1    0    0    0  501 -0.00000000000E+00  0.00000000000E+00  0.49358557901E+02  0.49358557901E+02  0.00000000000E+00 0.  1.
          2   -1    0    0  501    0  0.00000000000E+00 -0.00000000000E+00 -0.62200284418E+02  0.62200284418E+02  0.00000000000E+00 0. -1.
         23    2    1    2    0    0 -0.34016874161E+01  0.19193811978E+02 -0.10657889480E+02  0.91943974496E+02  0.89219560312E+02 0.  0.
         13    1    3    3    0    0  0.31797448986E+02  0.73454975479E+01 -0.34752107039E+02  0.47673294830E+02  0.00000000000E+00 0. -1.
        -13    1    3    3    0    0 -0.35199136402E+02  0.11848314430E+02  0.24094217559E+02  0.44270679666E+02  0.00000000000E+00 0.  1.
         22    1    1    2    0    0  0.34016874161E+01 -0.19193811978E+02 -0.21838370372E+01  0.19614867824E+02  0.00000000000E+00 0. -1.
<mgrwt>
<rscale>  0 0.62073826E+02</rscale>
<asrwt>0</asrwt>
<pdfrwt beam="1">  1        2 0.95692746E-02 0.91324169E+02</pdfrwt>
<pdfrwt beam="2">  1       -2 0.75936243E-02 0.91324169E+02</pdfrwt>
<totfact> 0.59562699E+04</totfact>
</mgrwt>
</event>
<event>
 6    1  0.1535970E-002  0.8979678E+02  0.7546771E-02  0.1397127E+00
         -2   -1    0    0    0  501 -0.00000000000E+00  0.00000000000E+00  0.46072023302E+03  0.46072023302E+03  0.00000000000E+00 0.  1.
          2   -1    0    0  501    0  0.00000000000E+00 -0.00000000000E+00 -0.66693043240E+01  0.66693043240E+01  0.00000000000E+00 0. -1.
         23    2    1    2    0    0 -0.36826557269E+01  0.17721646126E+02  0.41087496102E+03  0.42057305649E+03  0.87953644377E+02 0.  0.
         13    1    3    3    0    0  0.53722570642E+01  0.37761836595E+02  0.76554955774E+02  0.85530571742E+02  0.00000000000E+00 0. -1.
        -13    1    3    3    0    0 -0.90549127912E+01 -0.20040190469E+02  0.33432000525E+03  0.33504248475E+03  0.00000000000E+00 0.  1.
         22    1    1    2    0    0  0.36826557269E+01 -0.17721646126E+02  0.43175967676E+02  0.46816480852E+02  0.00000000000E+00 0.  1.
<mgrwt>
<rscale>  0 0.60168151E+02</rscale>
<asrwt>0</asrwt>
<pdfrwt beam="1">  1        2 0.10260472E-02 0.89796783E+02</pdfrwt>
<pdfrwt beam="2">  1       -2 0.70880011E-01 0.89796783E+02</pdfrwt>
<totfact> 0.22541495E+04</totfact>
</mgrwt>
</event>
<event>
 6    1  0.1535970E-002  0.9355138E+02  0.7546771E-02  0.1401727E+00
          2   -1    0    0  501    0  0.00000000000E+00  0.00000000000E+00  0.18201572214E+04  0.18201572214E+04  0.00000000000E+00 0. -1.
         -2   -1    0    0    0  501 -0.00000000000E+00 -0.00000000000E+00 -0.34024676596E+01  0.34024676596E+01  0.00000000000E+00 0.  1.
         23    2    1    2    0    0  0.12439834499E+02 -0.81681461787E+01  0.17935801029E+04  0.17960182197E+04  0.92360119953E+02 0.  0.
         11    1    3    3    0    0  0.15144750151E+02 -0.37955784624E+02  0.15594467577E+04  0.15599821137E+04  0.00000000000E+00 0. -1.
        -11    1    3    3    0    0 -0.27049156525E+01  0.29787638445E+02  0.23413334525E+03  0.23603610599E+03  0.00000000000E+00 0.  1.
         22    1    1    2    0    0 -0.12439834499E+02  0.81681461787E+01  0.23174650788E+02  0.27541469341E+02  0.00000000000E+00 0.  1.
<mgrwt>
<rscale>  0 0.59081502E+02</rscale>
<asrwt>0</asrwt>
<pdfrwt beam="1">  1        2 0.28002341E+00 0.93551375E+02</pdfrwt>
<pdfrwt beam="2">  1       -2 0.52345802E-03 0.93551375E+02</pdfrwt>
<totfact> 0.46576517E+04</totfact>
</mgrwt>
</event>
<event>
 6    1  0.1535970E-002  0.9351080E+02  0.7546771E-02  0.1392400E+00
         -4   -1    0    0    0  501 -0.00000000000E+00  0.00000000000E+00  0.15395506532E+02  0.15395506532E+02  0.00000000000E+00 0.  1.
          4   -1    0    0  501    0  0.00000000000E+00 -0.00000000000E+00 -0.20427197261E+03  0.20427197261E+03  0.00000000000E+00 0. -1.
         23    2    1    2    0    0  0.86962015840E+01  0.14937101978E+02 -0.17036567245E+03  0.19434179222E+03  0.91899558841E+02 0.  0.
         11    1    3    3    0    0  0.22469509792E+02 -0.23619163462E+02 -0.19428213507E+02  0.37949956957E+02  0.00000000000E+00 0.  1.
        -11    1    3    3    0    0 -0.13773308208E+02  0.38556265440E+02 -0.15093745894E+03  0.15639183526E+03  0.00000000000E+00 0. -1.
         22    1    1    2    0    0 -0.86962015840E+01 -0.14937101978E+02 -0.18510793626E+02  0.25325686923E+02  0.00000000000E+00 0.  1.
<mgrwt>
<rscale>  0 0.61313792E+02</rscale>
<asrwt>0</asrwt>
<pdfrwt beam="1">  1        4 0.31426459E-01 0.93510801E+02</pdfrwt>
<pdfrwt beam="2">  1       -4 0.23685394E-02 0.93510801E+02</pdfrwt>
<totfact> 0.11139135E+04</totfact>
</mgrwt>
</event>
<event>
 6    1  0.1535970E-002  0.8924448E+02  0.7546771E-02  0.1425236E+00
          2   -1    0    0  501    0  0.00000000000E+00  0.00000000000E+00  0.13633293413E+04  0.13633293413E+04  0.00000000000E+00 0. -1.
         -2   -1    0    0    0  501 -0.00000000000E+00 -0.00000000000E+00 -0.25085304570E+01  0.25085304570E+01  0.00000000000E+00 0.  1.
         23    2    1    2    0    0 -0.98579539265E+01 -0.66645931507E+01  0.13267633941E+04  0.13297615125E+04  0.88447613430E+02 0.  0.
         11    1    3    3    0    0 -0.28291337063E+02 -0.32373990953E+02  0.10956320863E+04  0.10964753274E+04  0.00000000000E+00 0.  1.
        -11    1    3    3    0    0  0.18433383136E+02  0.25709397802E+02  0.23113130780E+03  0.23328618518E+03  0.00000000000E+00 0. -1.
         22    1    1    2    0    0  0.98579539265E+01  0.66645931507E+01  0.34057416802E+02  0.36076359250E+02  0.00000000000E+00 0. -1.
<mgrwt>
<rscale>  0 0.53928383E+02</rscale>
<asrwt>0</asrwt>
<pdfrwt beam="1">  1        2 0.20974238E+00 0.89244475E+02</pdfrwt>
<pdfrwt beam="2">  1       -2 0.38592885E-03 0.89244475E+02</pdfrwt>
<totfact> 0.12117169E+05</totfact>
</mgrwt>
</event>
<event>
 6    1  0.1535970E-002  0.9717244E+02  0.7546771E-02  0.1344131E+00
          2   -1    0    0  501    0  0.00000000000E+00  0.00000000000E+00  0.17974747907E+02  0.17974747907E+02  0.00000000000E+00 0. -1.
         -2   -1    0    0    0  501 -0.00000000000E+00 -0.00000000000E+00 -0.29388683926E+03  0.29388683926E+03  0.00000000000E+00 0.  1.
         23    2    1    2    0    0  0.30347949022E+02  0.16047460455E+02 -0.13199056409E+03  0.16390238669E+03  0.90906349373E+02 0.  0.
         13    1    3    3    0    0  0.56886387593E+02  0.28087345897E+01 -0.11817693960E+03  0.13118589535E+03  0.00000000000E+00 0.  1.
        -13    1    3    3    0    0 -0.26538438571E+02  0.13238725866E+02 -0.13813624486E+02  0.32716491343E+02  0.00000000000E+00 0. -1.
         22    1    1    2    0    0 -0.30347949022E+02 -0.16047460455E+02 -0.14392152726E+03  0.14795920048E+03  0.00000000000E+00 0.  1.
<mgrwt>
<rscale>  0 0.74915970E+02</rscale>
<asrwt>0</asrwt>
<pdfrwt beam="1">  1        2 0.27653461E-02 0.97172441E+02</pdfrwt>
<pdfrwt beam="2">  1       -2 0.45213355E-01 0.97172441E+02</pdfrwt>
<totfact> 0.14716943E+04</totfact>
</mgrwt>
</event>
<event>
 6    1  0.1535970E-002  0.9354484E+02  0.7546771E-02  0.1378057E+00
          1   -1    0    0  501    0  0.00000000000E+00  0.00000000000E+00  0.12482479289E+03  0.12482479289E+03  0.00000000000E+00 0. -1.
         -1   -1    0    0    0  501 -0.00000000000E+00 -0.00000000000E+00 -0.26880587477E+02  0.26880587477E+02  0.00000000000E+00 0.  1.
         23    2    1    2    0    0  0.21673015878E+02 -0.21181739798E+01  0.73482513898E+02  0.11895510357E+03  0.90974889608E+02 0.  0.
         13    1    3    3    0    0  0.51772520025E+02 -0.13765872148E+02  0.67426068984E+02  0.86117175084E+02  0.00000000000E+00 0. -1.
        -13    1    3    3    0    0 -0.30099504147E+02  0.11647698168E+02  0.60564449139E+01  0.32837928490E+02  0.00000000000E+00 0.  1.
         22    1    1    2    0    0 -0.21673015878E+02  0.21181739798E+01  0.24461691516E+02  0.32750276794E+02  0.00000000000E+00 0. -1.
<mgrwt>
<rscale>  0 0.64977169E+02</rscale>
<asrwt>0</asrwt>
<pdfrwt beam="1">  1        1 0.19203814E-01 0.93544839E+02</pdfrwt>
<pdfrwt beam="2">  1       -1 0.41354750E-02 0.93544839E+02</pdfrwt>
<totfact> 0.54517170E+04</totfact>
</mgrwt>
</event>
<event>
 6    1  0.1535970E-002  0.8927322E+02  0.7546771E-02  0.1417776E+00
         -2   -1    0    0    0  501 -0.00000000000E+00  0.00000000000E+00  0.38934692722E+01  0.38934692722E+01  0.00000000000E+00 0.  1.
          2   -1    0    0  501    0  0.00000000000E+00 -0.00000000000E+00 -0.15743693696E+04  0.15743693696E+04  0.00000000000E+00 0. -1.
         23    2    1    2    0    0 -0.77747258557E+01 -0.10827750199E+02 -0.15560970685E+04  0.15586557651E+04  0.88272425108E+02 0.  0.
         11    1    3    3    0    0  0.13066548773E+02 -0.36036246483E+02 -0.34602116195E+03  0.34813788974E+03  0.00000000000E+00 0.  1.
        -11    1    3    3    0    0 -0.20841274629E+02  0.25208496283E+02 -0.12100759065E+04  0.12105178754E+04  0.00000000000E+00 0. -1.
         22    1    1    2    0    0  0.77747258557E+01  0.10827750199E+02 -0.14378831867E+02  0.19607073784E+02  0.00000000000E+00 0.  1.
<mgrwt>
<rscale>  0 0.55494215E+02</rscale>
<asrwt>0</asrwt>
<pdfrwt beam="1">  1        2 0.24221089E+00 0.89273219E+02</pdfrwt>
<pdfrwt beam="2">  1       -2 0.59899474E-03 0.89273219E+02</pdfrwt>
<totfact> 0.51035793E+04</totfact>
</mgrwt>
</event>
<event>
 6    1  0.1535970E-002  0.1006090E+03  0.7546771E-02  0.1409606E+00
         -2   -1    0    0    0  501 -0.00000000000E+00  0.00000000000E+00  0.35832756639E+01  0.35832756639E+01  0.00000000000E+00 0.  1.
          2   -1    0    0  501    0  0.00000000000E+00 -0.00000000000E+00 -0.12792870758E+04  0.12792870758E+04  0.00000000000E+00 0. -1.
         23    2    1    2    0    0 -0.95967251827E+01  0.44349728562E+01 -0.12595677005E+04  0.12635794254E+04  0.10005201616E+03 0.  0.
         11    1    3    3    0    0 -0.36761384413E+02 -0.17687848687E+02 -0.10715128646E+04  0.10722891766E+04  0.00000000000E+00 0. -1.
        -11    1    3    3    0    0  0.27164659231E+02  0.22122821544E+02 -0.18805483594E+03  0.19129024875E+03  0.00000000000E+00 0.  1.
         22    1    1    2    0    0  0.95967251827E+01 -0.44349728562E+01 -0.16136099649E+02  0.19290926114E+02  0.00000000000E+00 0.  1.
<mgrwt>
<rscale>  0 0.57281768E+02</rscale>
<asrwt>0</asrwt>
<pdfrwt beam="1">  1        2 0.19681315E+00 0.10060901E+03</pdfrwt>
<pdfrwt beam="2">  1       -2 0.55127387E-03 0.10060901E+03</pdfrwt>
<totfact> 0.82587618E+04</totfact>
</mgrwt>
</event>
<event>
 6    1  0.1535970E-002  0.1282109E+03  0.7546771E-02  0.1291014E+00
         -2   -1    0    0    0  501 -0.00000000000E+00  0.00000000000E+00  0.43761291248E+01  0.43761291248E+01  0.00000000000E+00 0.  1.
          2   -1    0    0  501    0  0.00000000000E+00 -0.00000000000E+00 -0.22949524073E+04  0.22949524073E+04  0.00000000000E+00 0. -1.
         23    2    1    2    0    0 -0.33098621935E+02 -0.20178066707E+02 -0.21401789443E+04  0.21440158480E+04  0.12221035018E+03 0.  0.
         11    1    3    3    0    0  0.37003970959E+01 -0.67657519374E+02 -0.10515470616E+04  0.10537278850E+04  0.00000000000E+00 0. -1.
        -11    1    3    3    0    0 -0.36799019030E+02  0.47479452667E+02 -0.10886318827E+04  0.10902879630E+04  0.00000000000E+00 0.  1.
         22    1    1    2    0    0  0.33098621935E+02  0.20178066707E+02 -0.15039733391E+03  0.15531268846E+03  0.00000000000E+00 0.  1.
<mgrwt>
<rscale>  0 0.95071831E+02</rscale>
<asrwt>0</asrwt>
<pdfrwt beam="1">  1        2 0.35306941E+00 0.12821093E+03</pdfrwt>
<pdfrwt beam="2">  1       -2 0.67325100E-03 0.12821093E+03</pdfrwt>
<totfact> 0.19091620E+04</totfact>
</mgrwt>
</event>
<event>
 6    1  0.1535970E-002  0.9345974E+02  0.7546771E-02  0.1383192E+00
         -2   -1    0    0    0  501 -0.00000000000E+00  0.00000000000E+00  0.44391429378E+02  0.44391429378E+02  0.00000000000E+00 0.  1.
          2   -1    0    0  501    0  0.00000000000E+00 -0.00000000000E+00 -0.79390610585E+02  0.79390610585E+02  0.00000000000E+00 0. -1.
         23    2    1    2    0    0 -0.11917532213E+02 -0.16165099527E+02 -0.42067842717E+02  0.10249110310E+03  0.91276419781E+02 0.  0.
         11    1    3    3    0    0 -0.43097963548E+02  0.70315205510E+01  0.20269342245E+01  0.43714816774E+02  0.00000000000E+00 0.  1.
        -11    1    3    3    0    0  0.31180431335E+02 -0.23196620078E+02 -0.44094776941E+02  0.58776286330E+02  0.00000000000E+00 0. -1.
         22    1    1    2    0    0  0.11917532213E+02  0.16165099527E+02  0.70686615098E+01  0.21290936859E+02  0.00000000000E+00 0.  1.
<mgrwt>
<rscale>  0 0.63632219E+02</rscale>
<asrwt>0</asrwt>
<pdfrwt beam="1">  1        2 0.12213940E-01 0.93459739E+02</pdfrwt>
<pdfrwt beam="2">  1       -2 0.68294507E-02 0.93459739E+02</pdfrwt>
<totfact> 0.52348076E+04</totfact>
</mgrwt>
</event>
<event>
 6    1  0.1535970E-002  0.9356307E+02  0.7546771E-02  0.1379047E+00
         -2   -1    0    0    0  501 -0.00000000000E+00  0.00000000000E+00  0.11817409789E+02  0.11817409789E+02  0.00000000000E+00 0.  1.
          2   -1    0    0  501    0  0.00000000000E+00 -0.00000000000E+00 -0.31420161152E+03  0.31420161152E+03  0.00000000000E+00 0. -1.
         23    2    1    2    0    0  0.10517524230E+02  0.18653470279E+02 -0.27919218670E+03  0.29445258612E+03  0.91079515194E+02 0.  0.
         13    1    3    3    0    0 -0.24580694501E+02  0.16135091176E+02 -0.23994743873E+03  0.24174226991E+03  0.00000000000E+00 0. -1.
        -13    1    3    3    0    0  0.35098218731E+02  0.25183791031E+01 -0.39244747977E+02  0.52710316212E+02  0.00000000000E+00 0.  1.
         22    1    1    2    0    0 -0.10517524230E+02 -0.18653470279E+02 -0.23192015023E+02  0.31566435184E+02  0.00000000000E+00 0. -1.
<mgrwt>
<rscale>  0 0.64714871E+02</rscale>
<asrwt>0</asrwt>
<pdfrwt beam="1">  1        2 0.48338709E-01 0.93563072E+02</pdfrwt>
<pdfrwt beam="2">  1       -2 0.18180631E-02 0.93563072E+02</pdfrwt>
<totfact> 0.80284403E+04</totfact>
</mgrwt>
</event>
<event>
 6    1  0.1535970E-002  0.9458236E+02  0.7546771E-02  0.1380175E+00
          2   -1    0    0  501    0  0.00000000000E+00  0.00000000000E+00  0.46937081684E+03  0.46937081684E+03  0.00000000000E+00 0. -1.
         -2   -1    0    0    0  501 -0.00000000000E+00 -0.00000000000E+00 -0.10711270994E+02  0.10711270994E+02  0.00000000000E+00 0.  1.
         23    2    1    2    0    0 -0.87463481388E+01 -0.18375893865E+02  0.44642934176E+03  0.45633866826E+03  0.92366936085E+02 0.  0.
         11    1    3    3    0    0  0.21839686598E+02 -0.65277165633E+01  0.25778610623E+02  0.34411041250E+02  0.00000000000E+00 0.  1.
        -11    1    3    3    0    0 -0.30586034737E+02 -0.11848177302E+02  0.42065073114E+03  0.42192762701E+03  0.00000000000E+00 0. -1.
         22    1    1    2    0    0  0.87463481388E+01  0.18375893865E+02  0.12230204083E+02  0.23743419573E+02  0.00000000000E+00 0.  1.
<mgrwt>
<rscale>  0 0.64417700E+02</rscale>
<asrwt>0</asrwt>
<pdfrwt beam="1">  1        2 0.72210879E-01 0.94582361E+02</pdfrwt>
<pdfrwt beam="2">  1       -2 0.16478882E-02 0.94582361E+02</pdfrwt>
<totfact> 0.60618432E+04</totfact>
</mgrwt>
</event>
<event>
 6    1  0.1535970E-002  0.9153399E+02  0.7546771E-02  0.1423771E+00
          2   -1    0    0  501    0  0.00000000000E+00  0.00000000000E+00  0.97620407550E+02  0.97620407550E+02  0.00000000000E+00 0. -1.
         -2   -1    0    0    0  501 -0.00000000000E+00 -0.00000000000E+00 -0.28563602220E+02  0.28563602220E+02  0.00000000000E+00 0.  1.
         23    2    1    2    0    0  0.19490603176E+01  0.11108609181E+02  0.69449824069E+02  0.11489886476E+03  0.90836507126E+02 0.  0.
         13    1    3    3    0    0  0.18506416383E+02 -0.10869893131E+02  0.81922148242E+02  0.84686955292E+02  0.00000000000E+00 0. -1.
        -13    1    3    3    0    0 -0.16557356065E+02  0.21978502312E+02 -0.12472324172E+02  0.30211909473E+02  0.00000000000E+00 0.  1.
         22    1    1    2    0    0 -0.19490603176E+01 -0.11108609181E+02 -0.39301873998E+00  0.11285145005E+02  0.00000000000E+00 0. -1.
<mgrwt>
<rscale>  0 0.54231010E+02</rscale>
<asrwt>0</asrwt>
<pdfrwt beam="1">  1        2 0.15018524E-01 0.91533989E+02</pdfrwt>
<pdfrwt beam="2">  1       -2 0.43944004E-02 0.91533989E+02</pdfrwt>
<totfact> 0.79167242E+04</totfact>
</mgrwt>
</event>
<event>
 6    1  0.1535970E-002  0.9532163E+02  0.7546771E-02  0.1414985E+00
          2   -1    0    0  501    0  0.00000000000E+00  0.00000000000E+00  0.16189028788E+04  0.16189028788E+04  0.00000000000E+00 0. -1.
         -2   -1    0    0    0  501 -0.00000000000E+00 -0.00000000000E+00 -0.23747069532E+01  0.23747069532E+01  0.00000000000E+00 0.  1.
         23    2    1    2    0    0  0.89152605440E+01  0.71576207663E+01  0.15827342426E+04  0.15856020611E+04  0.94633503864E+02 0.  0.
         13    1    3    3    0    0  0.36897227389E+02 -0.30245612251E+02  0.90826940775E+03  0.90952158826E+03  0.00000000000E+00 0. -1.
        -13    1    3    3    0    0 -0.27981966845E+02  0.37403233017E+02  0.67446483483E+03  0.67608047283E+03  0.00000000000E+00 0.  1.
         22    1    1    2    0    0 -0.89152605440E+01 -0.71576207663E+01  0.33793929277E+02  0.35675524686E+02  0.00000000000E+00 0. -1.
<mgrwt>
<rscale>  0 0.56096222E+02</rscale>
<asrwt>0</asrwt>
<pdfrwt beam="1">  1        2 0.24906110E+00 0.95321632E+02</pdfrwt>
<pdfrwt beam="2">  1       -2 0.36534083E-03 0.95321632E+02</pdfrwt>
<totfact> 0.97505419E+04</totfact>
</mgrwt>
</event>
<event>
 6    1  0.1535970E-002  0.9357073E+02  0.7546771E-02  0.1351124E+00
          2   -1    0    0  501    0  0.00000000000E+00  0.00000000000E+00  0.20895657183E+02  0.20895657183E+02  0.00000000000E+00 0. -1.
         -2   -1    0    0    0  501 -0.00000000000E+00 -0.00000000000E+00 -0.21654076009E+03  0.21654076009E+03  0.00000000000E+00 0.  1.
         23    2    1    2    0    0  0.31975322751E+02  0.11875402185E+02 -0.10530199093E+03  0.14086869842E+03  0.87132281385E+02 0.  0.
         13    1    3    3    0    0  0.61310747626E+02  0.78910756019E+01 -0.56266924165E+02  0.83589733841E+02  0.00000000000E+00 0.  1.
        -13    1    3    3    0    0 -0.29335424875E+02  0.39843265829E+01 -0.49035066760E+02  0.57278964578E+02  0.00000000000E+00 0. -1.
         22    1    1    2    0    0 -0.31975322751E+02 -0.11875402185E+02 -0.90343111982E+02  0.96567718854E+02  0.00000000000E+00 0. -1.
<mgrwt>
<rscale>  0 0.72706510E+02</rscale>
<asrwt>0</asrwt>
<pdfrwt beam="1">  1        2 0.32147165E-02 0.93570727E+02</pdfrwt>
<pdfrwt beam="2">  1       -2 0.33313963E-01 0.93570727E+02</pdfrwt>
<totfact> 0.21216644E+04</totfact>
</mgrwt>
</event>
<event>
 6    1  0.1535970E-002  0.9847052E+02  0.7546771E-02  0.1337405E+00
          2   -1    0    0  501    0  0.00000000000E+00  0.00000000000E+00  0.68555294266E+03  0.68555294266E+03  0.00000000000E+00 0. -1.
         -2   -1    0    0    0  501 -0.00000000000E+00 -0.00000000000E+00 -0.73963975221E+01  0.73963975221E+01  0.00000000000E+00 0.  1.
         23    2    1    2    0    0 -0.33703857725E+02 -0.15415966689E+02  0.57423401320E+03  0.58261577911E+03  0.91229611955E+02 0.  0.
         11    1    3    3    0    0 -0.78208025713E+01  0.33119076458E+01  0.51699294944E+03  0.51706270747E+03  0.00000000000E+00 0. -1.
        -11    1    3    3    0    0 -0.25883055153E+02 -0.18727874334E+02  0.57241063765E+02  0.65553071645E+02  0.00000000000E+00 0.  1.
         22    1    1    2    0    0  0.33703857725E+02  0.15415966689E+02  0.10392253193E+03  0.11033356107E+03  0.00000000000E+00 0. -1.
<mgrwt>
<rscale>  0 0.77128042E+02</rscale>
<asrwt>0</asrwt>
<pdfrwt beam="1">  1        2 0.10546963E+00 0.98470524E+02</pdfrwt>
<pdfrwt beam="2">  1       -2 0.11379079E-02 0.98470524E+02</pdfrwt>
<totfact> 0.67816539E+04</totfact>
</mgrwt>
</event>
<event>
 6    1  0.1535970E-002  0.9723101E+02  0.7546771E-02  0.1362358E+00
          1   -1    0    0  501    0  0.00000000000E+00  0.00000000000E+00  0.31508593264E+03  0.31508593264E+03  0.00000000000E+00 0. -1.
         -1   -1    0    0    0  501 -0.00000000000E+00 -0.00000000000E+00 -0.13083032396E+02  0.13083032396E+02  0.00000000000E+00 0.  1.
         23    2    1    2    0    0  0.68921565680E+01 -0.24183287447E+02  0.27291811817E+03  0.28972084723E+03  0.93923037031E+02 0.  0.
         13    1    3    3    0    0 -0.40502114174E+02  0.36142101844E+01  0.90676386642E+02  0.99376510617E+02  0.00000000000E+00 0. -1.
        -13    1    3    3    0    0  0.47394270742E+02 -0.27797497631E+02  0.18224173152E+03  0.19034433662E+03  0.00000000000E+00 0.  1.
         22    1    1    2    0    0 -0.68921565680E+01  0.24183287447E+02  0.29084782078E+02  0.38448117801E+02  0.00000000000E+00 0. -1.
<mgrwt>
<rscale>  0 0.69338088E+02</rscale>
<asrwt>0</asrwt>
<pdfrwt beam="1">  1        1 0.48474753E-01 0.97231014E+02</pdfrwt>
<pdfrwt beam="2">  1       -1 0.20127745E-02 0.97231014E+02</pdfrwt>
<totfact> 0.49359130E+04</totfact>
</mgrwt>
</event>
<event>
 6    1  0.1535970E-002  0.9309394E+02  0.7546771E-02  0.1399797E+00
          2   -1    0    0  501    0  0.00000000000E+00  0.00000000000E+00  0.11990096612E+04  0.11990096612E+04  0.00000000000E+00 0. -1.
         -2   -1    0    0    0  501 -0.00000000000E+00 -0.00000000000E+00 -0.26190078206E+01  0.26190078206E+01  0.00000000000E+00 0.  1.
         23    2    1    2    0    0  0.12110534108E+02  0.97863920694E+01  0.11056097217E+04  0.11095221216E+04  0.91782587007E+02 0.  0.
         11    1    3    3    0    0  0.42240060143E+02  0.30713177439E+02  0.47880394840E+03  0.48164379260E+03  0.00000000000E+00 0.  1.
        -11    1    3    3    0    0 -0.30129526035E+02 -0.20926785370E+02  0.62680577326E+03  0.62787832904E+03  0.00000000000E+00 0. -1.
         22    1    1    2    0    0 -0.12110534108E+02 -0.97863920694E+01  0.90780931689E+02  0.92106547348E+02  0.00000000000E+00 0.  1.
<mgrwt>
<rscale>  0 0.59534164E+02</rscale>
<asrwt>0</asrwt>
<pdfrwt beam="1">  1        2 0.18446259E+00 0.93093941E+02</pdfrwt>
<pdfrwt beam="2">  1       -2 0.40292524E-03 0.93093941E+02</pdfrwt>
<totfact> 0.14027996E+05</totfact>
</mgrwt>
</event>
<event>
 6    1  0.1535970E-002  0.1040582E+03  0.7546771E-02  0.1304504E+00
          2   -1    0    0  501    0  0.00000000000E+00  0.00000000000E+00  0.42857025611E+03  0.42857025611E+03  0.00000000000E+00 0. -1.
         -2   -1    0    0    0  501 -0.00000000000E+00 -0.00000000000E+00 -0.15756407196E+02  0.15756407196E+02  0.00000000000E+00 0.  1.
         23    2    1    2    0    0  0.53089585325E+02 -0.19308514922E+02  0.21929962168E+03  0.24273529702E+03  0.87388657920E+02 0.  0.
         11    1    3    3    0    0  0.45827203235E+02  0.21062542628E+02  0.17603031457E+03  0.18311317513E+03  0.00000000000E+00 0. -1.
        -11    1    3    3    0    0  0.72623820896E+01 -0.40371057550E+02  0.43269307113E+02  0.59622121895E+02  0.00000000000E+00 0.  1.
         22    1    1    2    0    0 -0.53089585325E+02  0.19308514922E+02  0.19351422724E+03  0.20159136629E+03  0.00000000000E+00 0. -1.
<mgrwt>
<rscale>  0 0.89320973E+02</rscale>
<asrwt>0</asrwt>
<pdfrwt beam="1">  1        2 0.65933877E-01 0.10405816E+03</pdfrwt>
<pdfrwt beam="2">  1       -2 0.24240630E-02 0.10405816E+03</pdfrwt>
<totfact> 0.38770346E+04</totfact>
</mgrwt>
</event>
<event>
 6    1  0.1535970E-002  0.8894138E+02  0.7546771E-02  0.1421380E+00
         -2   -1    0    0    0  501 -0.00000000000E+00  0.00000000000E+00  0.32067592177E+01  0.32067592177E+01  0.00000000000E+00 0.  1.
          2   -1    0    0  501    0  0.00000000000E+00 -0.00000000000E+00 -0.15838169157E+04  0.15838169157E+04  0.00000000000E+00 0. -1.
         23    2    1    2    0    0 -0.58739875082E+01 -0.11319042951E+02 -0.15616095752E+04  0.15641403502E+04  0.88022413051E+02 0.  0.
         13    1    3    3    0    0  0.97047500364E+01 -0.16266286446E+02 -0.15074263804E+04  0.15075453779E+04  0.00000000000E+00 0. -1.
        -13    1    3    3    0    0 -0.15578737545E+02  0.49472434949E+01 -0.54183194819E+02  0.56594972236E+02  0.00000000000E+00 0.  1.
         22    1    1    2    0    0  0.58739875082E+01  0.11319042951E+02 -0.19000581278E+02  0.22883324747E+02  0.00000000000E+00 0.  1.
<mgrwt>
<rscale>  0 0.54730088E+02</rscale>
<asrwt>0</asrwt>
<pdfrwt beam="1">  1        2 0.24366439E+00 0.88941383E+02</pdfrwt>
<pdfrwt beam="2">  1       -2 0.49334706E-03 0.88941383E+02</pdfrwt>
<totfact> 0.66233596E+04</totfact>
</mgrwt>
</event>
<event>
 6    1  0.1535970E-002  0.8706363E+02  0.7546771E-02  0.1438548E+00
          1   -1    0    0  501    0  0.00000000000E+00  0.00000000000E+00  0.66422223747E+02  0.66422223747E+02  0.00000000000E+00 0.  1.
         -1   -1    0    0    0  501 -0.00000000000E+00 -0.00000000000E+00 -0.36783729357E+02  0.36783729357E+02  0.00000000000E+00 0. -1.
         23    2    1    2    0    0 -0.18013260854E+01 -0.10323576806E+02  0.31452214158E+02  0.92570606700E+02  0.86430633664E+02 0.  0.
         13    1    3    3    0    0  0.55883039122E+01 -0.48174681238E+02  0.17418435802E+02  0.51530873840E+02  0.00000000000E+00 0. -1.
        -13    1    3    3    0    0 -0.73896299976E+01  0.37851104432E+02  0.14033778356E+02  0.41039732859E+02  0.00000000000E+00 0.  1.
         22    1    1    2    0    0  0.18013260854E+01  0.10323576806E+02 -0.18137197679E+01  0.10635346404E+02  0.00000000000E+00 0. -1.
<mgrwt>
<rscale>  0 0.51281799E+02</rscale>
<asrwt>0</asrwt>
<pdfrwt beam="1">  1        1 0.10218804E-01 0.87063629E+02</pdfrwt>
<pdfrwt beam="2">  1       -1 0.56590353E-02 0.87063629E+02</pdfrwt>
<totfact> 0.76657462E+04</totfact>
</mgrwt>
</event>
<event>
 6    1  0.1535970E-002  0.8814540E+02  0.7546771E-02  0.1399916E+00
         -2   -1    0    0    0  501 -0.00000000000E+00  0.00000000000E+00  0.15125372264E+02  0.15125372264E+02  0.00000000000E+00 0. -1.
          2   -1    0    0  501    0  0.00000000000E+00 -0.00000000000E+00 -0.58949018246E+03  0.58949018246E+03  0.00000000000E+00 0.  1.
         23    2    1    2    0    0 -0.71973750369E+01  0.16834373144E+02 -0.57904729142E+03  0.58571783113E+03  0.86223046096E+02 0.  0.
         13    1    3    3    0    0  0.19440392076E+02  0.10052078957E+01 -0.29784268454E+02  0.35581483026E+02  0.00000000000E+00 0. -1.
        -13    1    3    3    0    0 -0.26637767113E+02  0.15829165248E+02 -0.54926302296E+03  0.55013634810E+03  0.00000000000E+00 0.  1.
         22    1    1    2    0    0  0.71973750369E+01 -0.16834373144E+02  0.46824812245E+01  0.18897723593E+02  0.00000000000E+00 0.  1.
<mgrwt>
<rscale>  0 0.59506236E+02</rscale>
<asrwt>0</asrwt>
<pdfrwt beam="1">  1        2 0.90690779E-01 0.88145403E+02</pdfrwt>
<pdfrwt beam="2">  1       -2 0.23269808E-02 0.88145403E+02</pdfrwt>
<totfact> 0.28565732E+04</totfact>
</mgrwt>
</event>
<event>
 6    1  0.1535970E-002  0.9778684E+02  0.7546771E-02  0.1346813E+00
          2   -1    0    0  501    0  0.00000000000E+00  0.00000000000E+00  0.52051598831E+03  0.52051598831E+03  0.00000000000E+00 0. -1.
         -2   -1    0    0    0  501 -0.00000000000E+00 -0.00000000000E+00 -0.12407525345E+02  0.12407525345E+02  0.00000000000E+00 0.  1.
         23    2    1    2    0    0 -0.19737901530E+02  0.25402642171E+02  0.48104702272E+03  0.49088542932E+03  0.92343855606E+02 0.  0.
         11    1    3    3    0    0 -0.45383470712E+02 -0.15324636107E+02  0.28628803629E+03  0.29026771024E+03  0.00000000000E+00 0. -1.
        -11    1    3    3    0    0  0.25645569183E+02  0.40727278278E+02  0.19475898643E+03  0.20061771908E+03  0.00000000000E+00 0.  1.
         22    1    1    2    0    0  0.19737901530E+02 -0.25402642171E+02  0.27061440240E+02  0.42038084327E+02  0.00000000000E+00 0.  1.
<mgrwt>
<rscale>  0 0.74057921E+02</rscale>
<asrwt>0</asrwt>
<pdfrwt beam="1">  1        2 0.80079366E-01 0.97786843E+02</pdfrwt>
<pdfrwt beam="2">  1       -2 0.19088505E-02 0.97786843E+02</pdfrwt>
<totfact> 0.44079454E+04</totfact>
</mgrwt>
</event>
<event>
 6    1  0.1535970E-002  0.9216273E+02  0.7546771E-02  0.1401319E+00
          2   -1    0    0  501    0  0.00000000000E+00  0.00000000000E+00  0.10574702569E+04  0.10574702569E+04  0.00000000000E+00 0. -1.
         -2   -1    0    0    0  501 -0.00000000000E+00 -0.00000000000E+00 -0.33585355275E+01  0.33585355275E+01  0.00000000000E+00 0.  1.
         23    2    1    2    0    0 -0.15028119798E+02  0.44228969169E+01  0.10063989648E+04  0.10106101351E+04  0.90821596908E+02 0.  0.
         11    1    3    3    0    0  0.13509800936E+02 -0.38388968841E+02  0.43563636596E+03  0.43753316560E+03  0.00000000000E+00 0.  1.
        -11    1    3    3    0    0 -0.28537920734E+02  0.42811865758E+02  0.57076259880E+03  0.57307696948E+03  0.00000000000E+00 0. -1.
         22    1    1    2    0    0  0.15028119798E+02 -0.44228969169E+01  0.47712756635E+02  0.50218657365E+02  0.00000000000E+00 0.  1.
<mgrwt>
<rscale>  0 0.59176903E+02</rscale>
<asrwt>0</asrwt>
<pdfrwt beam="1">  1        2 0.16268747E+00 0.92162730E+02</pdfrwt>
<pdfrwt beam="2">  1       -2 0.51669862E-03 0.92162730E+02</pdfrwt>
<totfact> 0.11857001E+05</totfact>
</mgrwt>
</event>
<event>
 6    1  0.1535970E-002  0.8776211E+02  0.7546771E-02  0.1434998E+00
         -2   -1    0    0    0  501 -0.00000000000E+00  0.00000000000E+00  0.14209047480E+02  0.14209047480E+02  0.00000000000E+00 0.  1.
          2   -1    0    0  501    0  0.00000000000E+00 -0.00000000000E+00 -0.19585068207E+03  0.19585068207E+03  0.00000000000E+00 0. -1.
         23    2    1    2    0    0  0.70698051562E+01  0.81532097504E+01 -0.17835634521E+03  0.19877921092E+03  0.87096106943E+02 0.  0.
         13    1    3    3    0    0  0.22561999782E+02 -0.97597145064E+01 -0.17268600823E+03  0.17442692826E+03  0.00000000000E+00 0. -1.
        -13    1    3    3    0    0 -0.15492194626E+02  0.17912924257E+02 -0.56703369792E+01  0.24352282670E+02  0.00000000000E+00 0.  1.
         22    1    1    2    0    0 -0.70698051562E+01 -0.81532097504E+01 -0.32852893813E+01  0.11280518627E+02  0.00000000000E+00 0. -1.
<mgrwt>
<rscale>  0 0.51969794E+02</rscale>
<asrwt>0</asrwt>
<pdfrwt beam="1">  1        2 0.30130873E-01 0.87762115E+02</pdfrwt>
<pdfrwt beam="2">  1       -2 0.21860074E-02 0.87762115E+02</pdfrwt>
<totfact> 0.10039388E+05</totfact>
</mgrwt>
</event>
<event>
 6    1  0.1535970E-002  0.9387670E+02  0.7546771E-02  0.1363475E+00
         -2   -1    0    0    0  501 -0.00000000000E+00  0.00000000000E+00  0.32621075396E+02  0.32621075396E+02  0.00000000000E+00 0. -1.
          2   -1    0    0  501    0  0.00000000000E+00 -0.00000000000E+00 -0.11431394162E+03  0.11431394162E+03  0.00000000000E+00 0.  1.
         23    2    1    2    0    0 -0.19711259478E+02  0.19063923632E+02 -0.55733063803E+02  0.10917421358E+03  0.89782334429E+02 0.  0.
         13    1    3    3    0    0  0.13181046965E+02 -0.15189955313E+02 -0.58244105596E+02  0.61618589551E+02  0.00000000000E+00 0.  1.
        -13    1    3    3    0    0 -0.32892306444E+02  0.34253878945E+02  0.25110417928E+01  0.47555624030E+02  0.00000000000E+00 0. -1.
         22    1    1    2    0    0  0.19711259478E+02 -0.19063923632E+02 -0.25959802423E+02  0.37760803439E+02  0.00000000000E+00 0.  1.
<mgrwt>
<rscale>  0 0.69014953E+02</rscale>
<asrwt>0</asrwt>
<pdfrwt beam="1">  1        2 0.17586760E-01 0.93876698E+02</pdfrwt>
<pdfrwt beam="2">  1       -2 0.50186269E-02 0.93876698E+02</pdfrwt>
<totfact> 0.54455186E+04</totfact>
</mgrwt>
</event>
<event>
 6    1  0.1535970E-002  0.9236742E+02  0.7546771E-02  0.1413850E+00
         -4   -1    0    0    0  501 -0.00000000000E+00  0.00000000000E+00  0.86491700512E+02  0.86491700512E+02  0.00000000000E+00 0. -1.
          4   -1    0    0  501    0  0.00000000000E+00 -0.00000000000E+00 -0.31967529650E+02  0.31967529650E+02  0.00000000000E+00 0.  1.
         23    2    1    2    0    0  0.83348517385E+01  0.96992023569E+01  0.48403476142E+02  0.10428152994E+03  0.91477848156E+02 0.  0.
         11    1    3    3    0    0 -0.19491565796E+02 -0.11645355842E+02 -0.18140247578E+02  0.29062072054E+02  0.00000000000E+00 0.  1.
        -11    1    3    3    0    0  0.27826417535E+02  0.21344558198E+02  0.66543723721E+02  0.75219457882E+02  0.00000000000E+00 0. -1.
         22    1    1    2    0    0 -0.83348517385E+01 -0.96992023569E+01  0.61206947190E+01  0.14177700226E+02  0.00000000000E+00 0.  1.
<mgrwt>
<rscale>  0 0.56343464E+02</rscale>
<asrwt>0</asrwt>
<pdfrwt beam="1">  1        4 0.49180815E-02 0.92367424E+02</pdfrwt>
<pdfrwt beam="2">  1       -4 0.13306415E-01 0.92367424E+02</pdfrwt>
<totfact> 0.16513264E+04</totfact>
</mgrwt>
</event>
<event>
 6    1  0.1535970E-002  0.9339446E+02  0.7546771E-02  0.1403000E+00
          2   -1    0    0  501    0  0.00000000000E+00  0.00000000000E+00  0.80094548939E+03  0.80094548939E+03  0.00000000000E+00 0. -1.
         -2   -1    0    0    0  501 -0.00000000000E+00 -0.00000000000E+00 -0.37670467426E+01  0.37670467426E+01  0.00000000000E+00 0.  1.
         23    2    1    2    0    0  0.14655780859E+02  0.32928615575E+00  0.73020948236E+03  0.73615787193E+03  0.92236781893E+02 0.  0.
         11    1    3    3    0    0  0.32077052121E+02  0.25640726684E+02  0.63014909729E+03  0.63148576306E+03  0.00000000000E+00 0. -1.
        -11    1    3    3    0    0 -0.17421271262E+02 -0.25311440528E+02  0.10006038507E+03  0.10467210886E+03  0.00000000000E+00 0.  1.
         22    1    1    2    0    0 -0.14655780859E+02 -0.32928615575E+00  0.66968960288E+02  0.68554664203E+02  0.00000000000E+00 0.  1.
<mgrwt>
<rscale>  0 0.58785533E+02</rscale>
<asrwt>0</asrwt>
<pdfrwt beam="1">  1        2 0.12322225E+00 0.93394455E+02</pdfrwt>
<pdfrwt beam="2">  1       -2 0.57954629E-03 0.93394455E+02</pdfrwt>
<totfact> 0.14513004E+05</totfact>
</mgrwt>
</event>
<event>
 6    1  0.1535970E-002  0.9038966E+02  0.7546771E-02  0.1427815E+00
         -2   -1    0    0    0  501 -0.00000000000E+00  0.00000000000E+00  0.42570322458E+02  0.42570322458E+02  0.00000000000E+00 0.  1.
          2   -1    0    0  501    0  0.00000000000E+00 -0.00000000000E+00 -0.66354493836E+02  0.66354493836E+02  0.00000000000E+00 0. -1.
         23    2    1    2    0    0  0.10105241914E+02  0.43746470138E+01 -0.31229485696E+02  0.95632481815E+02  0.89716427429E+02 0.  0.
         13    1    3    3    0    0 -0.32476318682E+02 -0.11878145611E+02 -0.35863549861E+02  0.49819632946E+02  0.00000000000E+00 0. -1.
        -13    1    3    3    0    0  0.42581560595E+02  0.16252792625E+02  0.46340641647E+01  0.45812848869E+02  0.00000000000E+00 0.  1.
         22    1    1    2    0    0 -0.10105241914E+02 -0.43746470138E+01  0.74453143179E+01  0.13292334480E+02  0.00000000000E+00 0.  1.
<mgrwt>
<rscale>  0 0.53401177E+02</rscale>
<asrwt>0</asrwt>
<pdfrwt beam="1">  1        2 0.10208384E-01 0.90389661E+02</pdfrwt>
<pdfrwt beam="2">  1       -2 0.65492804E-02 0.90389661E+02</pdfrwt>
<totfact> 0.68804660E+04</totfact>
</mgrwt>
</event>
<event>
 6    1  0.1535970E-002  0.9674253E+02  0.7546771E-02  0.1414042E+00
         -2   -1    0    0    0  501 -0.00000000000E+00  0.00000000000E+00  0.65257535592E+01  0.65257535592E+01  0.00000000000E+00 0. -1.
          2   -1    0    0  501    0  0.00000000000E+00 -0.00000000000E+00 -0.75326215425E+03  0.75326215425E+03  0.00000000000E+00 0.  1.
         23    2    1    2    0    0  0.33267186755E+01 -0.10587256990E+02 -0.74101288603E+03  0.74730128746E+03  0.96103901606E+02 0.  0.
         11    1    3    3    0    0  0.24551002904E+02 -0.17876060788E+02 -0.69909562308E+03  0.69975495389E+03  0.00000000000E+00 0.  1.
        -11    1    3    3    0    0 -0.21224284229E+02  0.72888037975E+01 -0.41917262952E+02  0.47546333562E+02  0.00000000000E+00 0. -1.
         22    1    1    2    0    0 -0.33267186755E+01  0.10587256990E+02 -0.57235146578E+01  0.12486620350E+02  0.00000000000E+00 0. -1.
<mgrwt>
<rscale>  0 0.56301569E+02</rscale>
<asrwt>0</asrwt>
<pdfrwt beam="1">  1        2 0.11588655E+00 0.96742529E+02</pdfrwt>
<pdfrwt beam="2">  1       -2 0.10039615E-02 0.96742529E+02</pdfrwt>
<totfact> 0.72330849E+04</totfact>
</mgrwt>
</event>
<event>
 6    1  0.1535970E-002  0.9130587E+02  0.7546771E-02  0.1425387E+00
         -2   -1    0    0    0  501 -0.00000000000E+00  0.00000000000E+00  0.40522964883E+01  0.40522964883E+01  0.00000000000E+00 0. -1.
          2   -1    0    0  501    0  0.00000000000E+00 -0.00000000000E+00 -0.85205865169E+03  0.85205865169E+03  0.00000000000E+00 0.  1.
         23    2    1    2    0    0 -0.16220803721E+01  0.10966502168E+02 -0.82970542051E+03  0.83471423055E+03  0.90630384261E+02 0.  0.
         11    1    3    3    0    0  0.30110875679E+02 -0.19390142320E+02 -0.18011530807E+03  0.18364140778E+03  0.00000000000E+00 0. -1.
        -11    1    3    3    0    0 -0.31732956051E+02  0.30356644488E+02 -0.64959011244E+03  0.65107282277E+03  0.00000000000E+00 0.  1.
         22    1    1    2    0    0  0.16220803721E+01 -0.10966502168E+02 -0.18300934698E+02  0.21396717630E+02  0.00000000000E+00 0. -1.
<mgrwt>
<rscale>  0 0.53897167E+02</rscale>
<asrwt>0</asrwt>
<pdfrwt beam="1">  1        2 0.13108606E+00 0.91305870E+02</pdfrwt>
<pdfrwt beam="2">  1       -2 0.62342970E-03 0.91305870E+02</pdfrwt>
<totfact> 0.12093842E+05</totfact>
</mgrwt>
</event>
<event>
 6    1  0.1535970E-002  0.9074787E+02  0.7546771E-02  0.1395272E+00
         -3   -1    0    0    0  501 -0.00000000000E+00  0.00000000000E+00  0.14165022182E+03  0.14165022182E+03  0.00000000000E+00 0.  1.
          3   -1    0    0  501    0  0.00000000000E+00 -0.00000000000E+00 -0.20924250336E+02  0.20924250336E+02  0.00000000000E+00 0. -1.
         23    2    1    2    0    0  0.16748647291E+02  0.67641419807E+01  0.98414469648E+02  0.13386778449E+03  0.88932025078E+02 0.  0.
         11    1    3    3    0    0  0.46966040840E+02 -0.15341349862E+02  0.74659572474E+02  0.89527748602E+02  0.00000000000E+00 0. -1.
        -11    1    3    3    0    0 -0.30217393549E+02  0.22105491843E+02  0.23754897174E+02  0.44340035884E+02  0.00000000000E+00 0.  1.
         22    1    1    2    0    0 -0.16748647291E+02 -0.67641419807E+01  0.22311501841E+02  0.28706687674E+02  0.00000000000E+00 0. -1.
<mgrwt>
<rscale>  0 0.60614232E+02</rscale>
<asrwt>0</asrwt>
<pdfrwt beam="1">  1        3 0.32191155E-02 0.90747870E+02</pdfrwt>
<pdfrwt beam="2">  1       -3 0.21792341E-01 0.90747870E+02</pdfrwt>
<totfact> 0.17973096E+04</totfact>
</mgrwt>
</event>
<event>
 6    1  0.1535970E-002  0.1036934E+03  0.7546771E-02  0.1321593E+00
         -1   -1    0    0    0  501 -0.00000000000E+00  0.00000000000E+00  0.59637236870E+02  0.59637236870E+02  0.00000000000E+00 0.  1.
          1   -1    0    0  501    0  0.00000000000E+00 -0.00000000000E+00 -0.15221991855E+03  0.15221991855E+03  0.00000000000E+00 0. -1.
         23    2    1    2    0    0 -0.30758511293E+02  0.28493346418E+02 -0.12239210856E+03  0.16041244007E+03  0.94838630765E+02 0.  0.
         11    1    3    3    0    0 -0.46068678814E+01 -0.21370993482E+02 -0.95580436736E+02  0.98048776029E+02  0.00000000000E+00 0. -1.
        -11    1    3    3    0    0 -0.26151643411E+02  0.49864339900E+02 -0.26811671820E+02  0.62363664041E+02  0.00000000000E+00 0.  1.
         22    1    1    2    0    0  0.30758511293E+02 -0.28493346418E+02  0.29809426875E+02  0.51444715352E+02  0.00000000000E+00 0.  1.
<mgrwt>
<rscale>  0 0.82687409E+02</rscale>
<asrwt>0</asrwt>
<pdfrwt beam="1">  1        1 0.23418449E-01 0.10369341E+03</pdfrwt>
<pdfrwt beam="2">  1       -1 0.91749596E-02 0.10369341E+03</pdfrwt>
<totfact> 0.13233095E+04</totfact>
</mgrwt>
</event>
<event>
 6    1  0.1535970E-002  0.9285072E+02  0.7546771E-02  0.1409896E+00
          2   -1    0    0  501    0  0.00000000000E+00  0.00000000000E+00  0.56274424645E+03  0.56274424645E+03  0.00000000000E+00 0. -1.
         -2   -1    0    0    0  501 -0.00000000000E+00 -0.00000000000E+00 -0.52945992234E+01  0.52945992234E+01  0.00000000000E+00 0.  1.
         23    2    1    2    0    0  0.75475488551E+01  0.11058819140E+02  0.52097481083E+03  0.52918428784E+03  0.91880324334E+02 0.  0.
         13    1    3    3    0    0  0.12973793638E+01 -0.36148377118E+02  0.34463478838E+03  0.34652781378E+03  0.00000000000E+00 0. -1.
        -13    1    3    3    0    0  0.62501694913E+01  0.47207196259E+02  0.17634002245E+03  0.18265647406E+03  0.00000000000E+00 0.  1.
         22    1    1    2    0    0 -0.75475488551E+01 -0.11058819140E+02  0.36474836395E+02  0.38854557835E+02  0.00000000000E+00 0. -1.
<mgrwt>
<rscale>  0 0.57217028E+02</rscale>
<asrwt>0</asrwt>
<pdfrwt beam="1">  1        2 0.86575991E-01 0.92850724E+02</pdfrwt>
<pdfrwt beam="2">  1       -2 0.81455417E-03 0.92850724E+02</pdfrwt>
<totfact> 0.13506962E+05</totfact>
</mgrwt>
</event>
<event>
 6    1  0.1535970E-002  0.9335936E+02  0.7546771E-02  0.1383641E+00
         -2   -1    0    0    0  501 -0.00000000000E+00  0.00000000000E+00  0.26111748906E+01  0.26111748906E+01  0.00000000000E+00 0.  1.
          2   -1    0    0  501    0  0.00000000000E+00 -0.00000000000E+00 -0.14292321257E+04  0.14292321257E+04  0.00000000000E+00 0. -1.
         23    2    1    2    0    0  0.13739252300E+02 -0.14536057948E+02 -0.13242393870E+04  0.13275262424E+04  0.91191589411E+02 0.  0.
         13    1    3    3    0    0  0.24511947526E+02  0.37239851787E+01 -0.97476632111E+02  0.10058030346E+03  0.00000000000E+00 0.  1.
        -13    1    3    3    0    0 -0.10772695226E+02 -0.18260043127E+02 -0.12267627549E+04  0.12269459389E+04  0.00000000000E+00 0. -1.
         22    1    1    2    0    0 -0.13739252300E+02  0.14536057948E+02 -0.10238156380E+03  0.10431705825E+03  0.00000000000E+00 0.  1.
<mgrwt>
<rscale>  0 0.63516212E+02</rscale>
<asrwt>0</asrwt>
<pdfrwt beam="1">  1        2 0.21988188E+00 0.93359360E+02</pdfrwt>
<pdfrwt beam="2">  1       -2 0.40171919E-03 0.93359360E+02</pdfrwt>
<totfact> 0.10647560E+05</totfact>
</mgrwt>
</event>
<event>
 6    1  0.1535970E-002  0.9018505E+02  0.7546771E-02  0.1428275E+00
         -2   -1    0    0    0  501 -0.00000000000E+00  0.00000000000E+00  0.74229477386E+01  0.74229477386E+01  0.00000000000E+00 0.  1.
          2   -1    0    0  501    0  0.00000000000E+00 -0.00000000000E+00 -0.37104557024E+03  0.37104557024E+03  0.00000000000E+00 0. -1.
         23    2    1    2    0    0 -0.10916840632E+02 -0.14240113463E+01 -0.34701989299E+03  0.35854727693E+03  0.89510549353E+02 0.  0.
         13    1    3    3    0    0 -0.47048342966E+02  0.16478240920E+02 -0.19463317441E+03  0.20091578230E+03  0.00000000000E+00 0.  1.
        -13    1    3    3    0    0  0.36131502334E+02 -0.17902252266E+02 -0.15238671858E+03  0.15763149462E+03  0.00000000000E+00 0. -1.
         22    1    1    2    0    0  0.10916840632E+02  0.14240113463E+01 -0.16602729513E+02  0.19921241051E+02  0.00000000000E+00 0.  1.
<mgrwt>
<rscale>  0 0.53307840E+02</rscale>
<asrwt>0</asrwt>
<pdfrwt beam="1">  1        2 0.57083930E-01 0.90185052E+02</pdfrwt>
<pdfrwt beam="2">  1       -2 0.11419920E-02 0.90185052E+02</pdfrwt>
<totfact> 0.13019438E+05</totfact>
</mgrwt>
</event>
<event>
 6    1  0.1535970E-002  0.8565112E+02  0.7546771E-02  0.1400992E+00
         -2   -1    0    0    0  501 -0.00000000000E+00  0.00000000000E+00  0.41623448202E+01  0.41623448202E+01  0.00000000000E+00 0.  1.
          2   -1    0    0  501    0  0.00000000000E+00 -0.00000000000E+00 -0.19959088666E+04  0.19959088666E+04  0.00000000000E+00 0. -1.
         23    2    1    2    0    0 -0.92115760855E+01  0.17320751124E+02 -0.19651836387E+04  0.19670492746E+04  0.83374176652E+02 0.  0.
         13    1    3    3    0    0 -0.33203506263E+02  0.36857617237E+02 -0.15103544162E+04  0.15111688917E+04  0.00000000000E+00 0. -1.
        -13    1    3    3    0    0  0.23991930178E+02 -0.19536866112E+02 -0.45482922252E+03  0.45588038290E+03  0.00000000000E+00 0.  1.
         22    1    1    2    0    0  0.92115760855E+01 -0.17320751124E+02 -0.26562883047E+02  0.33021936789E+02  0.00000000000E+00 0.  1.
<mgrwt>
<rscale>  0 0.59253344E+02</rscale>
<asrwt>0</asrwt>
<pdfrwt beam="1">  1        2 0.30706296E+00 0.85651123E+02</pdfrwt>
<pdfrwt beam="2">  1       -2 0.64036063E-03 0.85651123E+02</pdfrwt>
<totfact> 0.28458758E+04</totfact>
</mgrwt>
</event>
<event>
 6    1  0.1535970E-002  0.9164449E+02  0.7546771E-02  0.1420535E+00
         -1   -1    0    0    0  501 -0.00000000000E+00  0.00000000000E+00  0.29458207830E+01  0.29458207830E+01  0.00000000000E+00 0.  1.
          1   -1    0    0  501    0  0.00000000000E+00 -0.00000000000E+00 -0.10517856255E+04  0.10517856255E+04  0.00000000000E+00 0. -1.
         23    2    1    2    0    0 -0.19206803326E+00  0.11807563763E+02 -0.10096597598E+04  0.10138104080E+04  0.90880456748E+02 0.  0.
         13    1    3    3    0    0 -0.10489418520E+01  0.89636763748E+00 -0.99730120027E+03  0.99730215472E+03  0.00000000000E+00 0. -1.
        -13    1    3    3    0    0  0.85687381872E+00  0.10911196125E+02 -0.12358559531E+02  0.16508253308E+02  0.00000000000E+00 0.  1.
         22    1    1    2    0    0  0.19206803326E+00 -0.11807563763E+02 -0.39180044959E+02  0.40921038295E+02  0.00000000000E+00 0. -1.
<mgrwt>
<rscale>  0 0.54907821E+02</rscale>
<asrwt>0</asrwt>
<pdfrwt beam="1">  1        1 0.16181334E+00 0.91644492E+02</pdfrwt>
<pdfrwt beam="2">  1       -1 0.45320273E-03 0.91644492E+02</pdfrwt>
<totfact> 0.76851207E+04</totfact>
</mgrwt>
</event>
<event>
 6    1  0.1535970E-002  0.8940014E+02  0.7546771E-02  0.1413484E+00
          2   -1    0    0  501    0  0.00000000000E+00  0.00000000000E+00  0.36945184245E+02  0.36945184245E+02  0.00000000000E+00 0. -1.
         -2   -1    0    0    0  501 -0.00000000000E+00 -0.00000000000E+00 -0.88962258627E+02  0.88962258627E+02  0.00000000000E+00 0.  1.
         23    2    1    2    0    0 -0.10123297515E+02  0.99365776185E+01 -0.21048275839E+02  0.91844512720E+02  0.88267592432E+02 0.  0.
         13    1    3    3    0    0 -0.10097713585E+02  0.36003891600E+02 -0.43555545568E+02  0.57404961281E+02  0.00000000000E+00 0. -1.
        -13    1    3    3    0    0 -0.25583930014E-01 -0.26067313981E+02  0.22507269728E+02  0.34439551440E+02  0.00000000000E+00 0.  1.
         22    1    1    2    0    0  0.10123297515E+02 -0.99365776185E+01 -0.30968798543E+02  0.34062930152E+02  0.00000000000E+00 0.  1.
<mgrwt>
<rscale>  0 0.56423712E+02</rscale>
<asrwt>0</asrwt>
<pdfrwt beam="1">  1        2 0.56838746E-02 0.89400138E+02</pdfrwt>
<pdfrwt beam="2">  1       -2 0.13686501E-01 0.89400138E+02</pdfrwt>
<totfact> 0.45423109E+04</totfact>
</mgrwt>
</event>
<event>
 6    1  0.1535970E-002  0.1067566E+03  0.7546771E-02  0.1351023E+00
         -2   -1    0    0    0  501 -0.00000000000E+00  0.00000000000E+00  0.78290793145E+02  0.78290793145E+02  0.00000000000E+00 0.  1.
          2   -1    0    0  501    0  0.00000000000E+00 -0.00000000000E+00 -0.73233872349E+02  0.73233872349E+02  0.00000000000E+00 0. -1.
         23    2    1    2    0    0  0.13532907241E+02  0.18605469133E+02 -0.28816089133E+02  0.11057733516E+03  0.10424815105E+03 0.  0.
         13    1    3    3    0    0 -0.88640384864E+00  0.27399188073E+02 -0.65055563154E+02  0.70595520510E+02  0.00000000000E+00 0. -1.
        -13    1    3    3    0    0  0.14419311090E+02 -0.87937189393E+01  0.36239474021E+02  0.39981814647E+02  0.00000000000E+00 0.  1.
         22    1    1    2    0    0 -0.13532907241E+02 -0.18605469133E+02  0.33873009929E+02  0.40947330337E+02  0.00000000000E+00 0.  1.
<mgrwt>
<rscale>  0 0.72737643E+02</rscale>
<asrwt>0</asrwt>
<pdfrwt beam="1">  1        2 0.11266750E-01 0.10675664E+03</pdfrwt>
<pdfrwt beam="2">  1       -2 0.12044737E-01 0.10675664E+03</pdfrwt>
<totfact> 0.24355849E+04</totfact>
</mgrwt>
</event>
<event>
 6    1  0.1535970E-002  0.1091330E+03  0.7546771E-02  0.1296610E+00
         -2   -1    0    0    0  501 -0.00000000000E+00  0.00000000000E+00  0.32105930426E+02  0.32105930426E+02  0.00000000000E+00 0.  1.
          2   -1    0    0  501    0  0.00000000000E+00 -0.00000000000E+00 -0.28120068260E+03  0.28120068260E+03  0.00000000000E+00 0. -1.
         23    2    1    2    0    0 -0.33978528318E+02 -0.45311532138E+02 -0.22817447718E+03  0.25293001792E+03  0.93286261555E+02 0.  0.
         13    1    3    3    0    0 -0.28254353409E+02 -0.12684895718E+02 -0.10429894610E+02  0.32680235120E+02  0.00000000000E+00 0.  1.
        -13    1    3    3    0    0 -0.57241749091E+01 -0.32626636420E+02 -0.21774458257E+03  0.22024978280E+03  0.00000000000E+00 0. -1.
         22    1    1    2    0    0  0.33978528318E+02  0.45311532138E+02 -0.20920274995E+02  0.60376595111E+02  0.00000000000E+00 0.  1.
<mgrwt>
<rscale>  0 0.92627670E+02</rscale>
<asrwt>0</asrwt>
<pdfrwt beam="1">  1        2 0.43261642E-01 0.10913296E+03</pdfrwt>
<pdfrwt beam="2">  1       -2 0.49393740E-02 0.10913296E+03</pdfrwt>
<totfact> 0.21362698E+04</totfact>
</mgrwt>
</event>
<event>
 6    1  0.1535970E-002  0.9667757E+02  0.7546771E-02  0.1346394E+00
         -1   -1    0    0    0  501 -0.00000000000E+00  0.00000000000E+00  0.10048176338E+02  0.10048176338E+02  0.00000000000E+00 0. -1.
          1   -1    0    0  501    0  0.00000000000E+00 -0.00000000000E+00 -0.42323624776E+03  0.42323624776E+03  0.00000000000E+00 0.  1.
         23    2    1    2    0    0 -0.18435369011E+02 -0.28007312334E+02 -0.31741961975E+03  0.33181586389E+03  0.90676789494E+02 0.  0.
         13    1    3    3    0    0 -0.16616597121E+02  0.29204933475E+02 -0.67200314916E+02  0.75132694375E+02  0.00000000000E+00 0. -1.
        -13    1    3    3    0    0 -0.18187718896E+01 -0.57212245808E+02 -0.25021930483E+03  0.25668316951E+03  0.00000000000E+00 0.  1.
         22    1    1    2    0    0  0.18435369011E+02  0.28007312334E+02 -0.95768451674E+02  0.10146856021E+03  0.00000000000E+00 0. -1.
<mgrwt>
<rscale>  0 0.74191344E+02</rscale>
<asrwt>0</asrwt>
<pdfrwt beam="1">  1        1 0.65113263E-01 0.96677570E+02</pdfrwt>
<pdfrwt beam="2">  1       -1 0.15458734E-02 0.96677570E+02</pdfrwt>
<totfact> 0.49879187E+04</totfact>
</mgrwt>
</event>
<event>
 6    1  0.1535970E-002  0.9213203E+02  0.7546771E-02  0.1417234E+00
         -1   -1    0    0    0  501 -0.00000000000E+00  0.00000000000E+00  0.36597174339E+02  0.36597174339E+02  0.00000000000E+00 0.  1.
          1   -1    0    0  501    0  0.00000000000E+00 -0.00000000000E+00 -0.84989877163E+02  0.84989877163E+02  0.00000000000E+00 0. -1.
         23    2    1    2    0    0 -0.10074674461E+02  0.69319560138E+01 -0.55387089342E+02  0.10749902387E+03  0.91316807810E+02 0.  0.
         13    1    3    3    0    0  0.35945609466E+01 -0.15684932059E+02 -0.73642451744E+02  0.75380028263E+02  0.00000000000E+00 0. -1.
        -13    1    3    3    0    0 -0.13669235407E+02  0.22616888073E+02  0.18255362401E+02  0.32118995612E+02  0.00000000000E+00 0.  1.
         22    1    1    2    0    0  0.10074674461E+02 -0.69319560138E+01  0.69943865183E+01  0.14088027627E+02  0.00000000000E+00 0. -1.
<mgrwt>
<rscale>  0 0.55610483E+02</rscale>
<asrwt>0</asrwt>
<pdfrwt beam="1">  1        1 0.13075365E-01 0.92132027E+02</pdfrwt>
<pdfrwt beam="2">  1       -1 0.56303346E-02 0.92132027E+02</pdfrwt>
<totfact> 0.56556753E+04</totfact>
</mgrwt>
</event>
<event>
 6    1  0.1535970E-002  0.9339689E+02  0.7546771E-02  0.1392290E+00
         -2   -1    0    0    0  501 -0.00000000000E+00  0.00000000000E+00  0.50985500687E+02  0.50985500687E+02  0.00000000000E+00 0.  1.
          2   -1    0    0  501    0  0.00000000000E+00 -0.00000000000E+00 -0.31967715497E+03  0.31967715497E+03  0.00000000000E+00 0. -1.
         23    2    1    2    0    0 -0.15178398744E+02  0.84623373163E+01 -0.31110779963E+03  0.32482463293E+03  0.91765920864E+02 0.  0.
         11    1    3    3    0    0 -0.24090558603E+02  0.43627011293E+02 -0.23859107856E+03  0.24374038216E+03  0.00000000000E+00 0. -1.
        -11    1    3    3    0    0  0.89121598590E+01 -0.35164673977E+02 -0.72516721067E+02  0.81084250774E+02  0.00000000000E+00 0.  1.
         22    1    1    2    0    0  0.15178398744E+02 -0.84623373163E+01  0.42416145343E+02  0.45838022722E+02  0.00000000000E+00 0.  1.
<mgrwt>
<rscale>  0 0.61340777E+02</rscale>
<asrwt>0</asrwt>
<pdfrwt beam="1">  1        2 0.49181102E-01 0.93396891E+02</pdfrwt>
<pdfrwt beam="2">  1       -2 0.78439230E-02 0.93396891E+02</pdfrwt>
<totfact> 0.91628747E+03</totfact>
</mgrwt>
</event>
<event>
 6    1  0.1535970E-002  0.9716752E+02  0.7546771E-02  0.1373890E+00
          1   -1    0    0  501    0  0.00000000000E+00  0.00000000000E+00  0.40380659185E+03  0.40380659185E+03  0.00000000000E+00 0. -1.
         -1   -1    0    0    0  501 -0.00000000000E+00 -0.00000000000E+00 -0.98773355377E+01  0.98773355377E+01  0.00000000000E+00 0.  1.
         23    2    1    2    0    0  0.19928373429E+01  0.20709805230E+02  0.36704836795E+03  0.37969202258E+03  0.94913961900E+02 0.  0.
         11    1    3    3    0    0  0.13598824587E+02  0.42661771613E+02  0.34015002167E+03  0.34308452607E+03  0.00000000000E+00 0. -1.
        -11    1    3    3    0    0 -0.11605987244E+02 -0.21951966383E+02  0.26898346273E+02  0.36607496503E+02  0.00000000000E+00 0.  1.
         22    1    1    2    0    0 -0.19928373429E+01 -0.20709805230E+02  0.26880888369E+02  0.33991904813E+02  0.00000000000E+00 0.  1.
<mgrwt>
<rscale>  0 0.66097528E+02</rscale>
<asrwt>0</asrwt>
<pdfrwt beam="1">  1        1 0.62124078E-01 0.97167523E+02</pdfrwt>
<pdfrwt beam="2">  1       -1 0.15195904E-02 0.97167523E+02</pdfrwt>
<totfact> 0.54238887E+04</totfact>
</mgrwt>
</event>
<event>
 6    1  0.1535970E-002  0.9495629E+02  0.7546771E-02  0.1371224E+00
         -2   -1    0    0    0  501 -0.00000000000E+00  0.00000000000E+00  0.54517909913E+01  0.54517909913E+01  0.00000000000E+00 0.  1.
          2   -1    0    0  501    0  0.00000000000E+00 -0.00000000000E+00 -0.68015477326E+03  0.68015477326E+03  0.00000000000E+00 0. -1.
         23    2    1    2    0    0 -0.16364875232E+02 -0.16578869911E+02 -0.59639642229E+03  0.60390842839E+03  0.92054490824E+02 0.  0.
         13    1    3    3    0    0 -0.19689280611E+02 -0.32206688759E+02 -0.57922375482E+03  0.58045249307E+03  0.00000000000E+00 0. -1.
        -13    1    3    3    0    0  0.33244053789E+01  0.15627818847E+02 -0.17172667478E+02  0.23455935312E+02  0.00000000000E+00 0.  1.
         22    1    1    2    0    0  0.16364875232E+02  0.16578869911E+02 -0.78306559972E+02  0.81698135863E+02  0.00000000000E+00 0.  1.
<mgrwt>
<rscale>  0 0.66828174E+02</rscale>
<asrwt>0</asrwt>
<pdfrwt beam="1">  1        2 0.10463908E+00 0.94956292E+02</pdfrwt>
<pdfrwt beam="2">  1       -2 0.83873798E-03 0.94956292E+02</pdfrwt>
<totfact> 0.10496150E+05</totfact>
</mgrwt>
</event>
<event>
 6    1  0.1535970E-002  0.1003773E+03  0.7546771E-02  0.1405448E+00
         -2   -1    0    0    0  501 -0.00000000000E+00  0.00000000000E+00  0.66712903650E+02  0.66712903650E+02  0.00000000000E+00 0.  1.
          2   -1    0    0  501    0  0.00000000000E+00 -0.00000000000E+00 -0.62168196142E+02  0.62168196142E+02  0.00000000000E+00 0. -1.
         23    2    1    2    0    0  0.11326210891E+02  0.89777611032E+00 -0.19530451983E+02  0.10225963553E+03  0.99732168573E+02 0.  0.
         11    1    3    3    0    0  0.44987012248E+02  0.31432693732E+02 -0.12288443878E+02  0.56239233273E+02  0.00000000000E+00 0.  1.
        -11    1    3    3    0    0 -0.33660801356E+02 -0.30534917622E+02 -0.72420081048E+01  0.46020402253E+02  0.00000000000E+00 0. -1.
         22    1    1    2    0    0 -0.11326210891E+02 -0.89777611032E+00  0.24075159492E+02  0.26621464266E+02  0.00000000000E+00 0.  1.
<mgrwt>
<rscale>  0 0.58222075E+02</rscale>
<asrwt>0</asrwt>
<pdfrwt beam="1">  1        2 0.95643378E-02 0.10037726E+03</pdfrwt>
<pdfrwt beam="2">  1       -2 0.10263524E-01 0.10037726E+03</pdfrwt>
<totfact> 0.37932992E+04</totfact>
</mgrwt>
</event>
<event>
 6    1  0.1535970E-002  0.9240658E+02  0.7546771E-02  0.1418171E+00
          2   -1    0    0  501    0  0.00000000000E+00  0.00000000000E+00  0.21621197891E+02  0.21621197891E+02  0.00000000000E+00 0.  1.
         -2   -1    0    0    0  501 -0.00000000000E+00 -0.00000000000E+00 -0.15066894335E+03  0.15066894335E+03  0.00000000000E+00 0. -1.
         23    2    1    2    0    0 -0.42011755893E+01 -0.11183387959E+02 -0.81330184865E+02  0.12309986139E+03  0.91631102046E+02 0.  0.
         11    1    3    3    0    0  0.42431838387E+02 -0.30167532922E+01 -0.52879449038E+02  0.67866028614E+02  0.00000000000E+00 0.  1.
        -11    1    3    3    0    0 -0.46633013976E+02 -0.81666346668E+01 -0.28450735827E+02  0.55233832778E+02  0.00000000000E+00 0. -1.
         22    1    1    2    0    0  0.42011755893E+01  0.11183387959E+02 -0.47717560595E+02  0.49190279850E+02  0.00000000000E+00 0.  1.
<mgrwt>
<rscale>  0 0.55409860E+02</rscale>
<asrwt>0</asrwt>
<pdfrwt beam="1">  1        2 0.33263382E-02 0.92406585E+02</pdfrwt>
<pdfrwt beam="2">  1       -2 0.23179837E-01 0.92406585E+02</pdfrwt>
<totfact> 0.38353935E+04</totfact>
</mgrwt>
</event>
<event>
 6    1  0.1535970E-002  0.9420281E+02  0.7546771E-02  0.1388014E+00
         -4   -1    0    0    0  501 -0.00000000000E+00  0.00000000000E+00  0.12644713432E+03  0.12644713432E+03  0.00000000000E+00 0.  1.
          4   -1    0    0  501    0  0.00000000000E+00 -0.00000000000E+00 -0.24985781255E+02  0.24985781255E+02  0.00000000000E+00 0. -1.
         23    2    1    2    0    0  0.14821002427E+02 -0.10459767710E+02  0.87051203247E+02  0.12826566992E+03  0.92439716788E+02 0.  0.
         13    1    3    3    0    0 -0.27410407391E+02 -0.21377946645E+02  0.75537094097E+02  0.83151666373E+02  0.00000000000E+00 0.  1.
        -13    1    3    3    0    0  0.42231409818E+02  0.10918178935E+02  0.11514109151E+02  0.45114003547E+02  0.00000000000E+00 0. -1.
         22    1    1    2    0    0 -0.14821002427E+02  0.10459767710E+02  0.14410149819E+02  0.23167245656E+02  0.00000000000E+00 0.  1.
<mgrwt>
<rscale>  0 0.62403472E+02</rscale>
<asrwt>0</asrwt>
<pdfrwt beam="1">  1        4 0.38439664E-02 0.94202814E+02</pdfrwt>
<pdfrwt beam="2">  1       -4 0.19453405E-01 0.94202814E+02</pdfrwt>
<totfact> 0.12649417E+04</totfact>
</mgrwt>
</event>
<event>
 6    1  0.1535970E-002  0.9070473E+02  0.7546771E-02  0.1424645E+00
         -2   -1    0    0    0  501 -0.00000000000E+00  0.00000000000E+00  0.24877435607E+01  0.24877435607E+01  0.00000000000E+00 0.  1.
          2   -1    0    0  501    0  0.00000000000E+00 -0.00000000000E+00 -0.11889449592E+04  0.11889449592E+04  0.00000000000E+00 0. -1.
         23    2    1    2    0    0 -0.11429922414E+02 -0.38915742079E+00 -0.11394397547E+04  0.11430443136E+04  0.89980852121E+02 0.  0.
         11    1    3    3    0    0  0.22463990370E+02  0.40879401982E+01 -0.96585321968E+03  0.96612306881E+03  0.00000000000E+00 0. -1.
        -11    1    3    3    0    0 -0.33893912784E+02 -0.44770976190E+01 -0.17358653504E+03  0.17692124483E+03  0.00000000000E+00 0.  1.
         22    1    1    2    0    0  0.11429922414E+02  0.38915742079E+00 -0.47017460886E+02  0.48388389083E+02  0.00000000000E+00 0.  1.
<mgrwt>
<rscale>  0 0.54050059E+02</rscale>
<asrwt>0</asrwt>
<pdfrwt beam="1">  1        2 0.18291476E+00 0.90704732E+02</pdfrwt>
<pdfrwt beam="2">  1       -2 0.38272946E-03 0.90704732E+02</pdfrwt>
<totfact> 0.15211294E+05</totfact>
</mgrwt>
</event>
<event>
 6    1  0.1535970E-002  0.9341882E+02  0.7546771E-02  0.1416560E+00
         -2   -1    0    0    0  501 -0.00000000000E+00  0.00000000000E+00  0.25685974377E+01  0.25685974377E+01  0.00000000000E+00 0.  1.
          2   -1    0    0  501    0  0.00000000000E+00 -0.00000000000E+00 -0.15682686934E+04  0.15682686934E+04  0.00000000000E+00 0. -1.
         23    2    1    2    0    0  0.48015203342E+01 -0.10837420987E+02 -0.15362991189E+04  0.15391367902E+04  0.92663756572E+02 0.  0.
         11    1    3    3    0    0  0.11734290144E+02  0.15553432257E+02 -0.13998791406E+04  0.14000147182E+04  0.00000000000E+00 0. -1.
        -11    1    3    3    0    0 -0.69327698099E+01 -0.26390853245E+02 -0.13641997827E+03  0.13912207195E+03  0.00000000000E+00 0.  1.
         22    1    1    2    0    0 -0.48015203342E+01  0.10837420987E+02 -0.29400977020E+02  0.31700500641E+02  0.00000000000E+00 0.  1.
<mgrwt>
<rscale>  0 0.55755406E+02</rscale>
<asrwt>0</asrwt>
<pdfrwt beam="1">  1        2 0.24127233E+00 0.93418821E+02</pdfrwt>
<pdfrwt beam="2">  1       -2 0.39516847E-03 0.93418821E+02</pdfrwt>
<totfact> 0.92487736E+04</totfact>
</mgrwt>
</event>
<event>
 6    1  0.1535970E-002  0.9449634E+02  0.7546771E-02  0.1374359E+00
          2   -1    0    0  501    0  0.00000000000E+00  0.00000000000E+00  0.21038010612E+03  0.21038010612E+03  0.00000000000E+00 0. -1.
         -2   -1    0    0    0  501 -0.00000000000E+00 -0.00000000000E+00 -0.16758675382E+02  0.16758675382E+02  0.00000000000E+00 0.  1.
         23    2    1    2    0    0  0.21952552155E+02 -0.46827712987E+01  0.17036220050E+03  0.19481487882E+03  0.91791692206E+02 0.  0.
         13    1    3    3    0    0 -0.13062961247E+00  0.29128567861E+02  0.12203712102E+02  0.31581974587E+02  0.00000000000E+00 0.  1.
        -13    1    3    3    0    0  0.22083181767E+02 -0.33811339160E+02  0.15815848839E+03  0.16323290423E+03  0.00000000000E+00 0. -1.
         22    1    1    2    0    0 -0.21952552155E+02  0.46827712987E+01  0.23259230240E+02  0.32323902680E+02  0.00000000000E+00 0. -1.
<mgrwt>
<rscale>  0 0.65970249E+02</rscale>
<asrwt>0</asrwt>
<pdfrwt beam="1">  1        2 0.32366168E-01 0.94496337E+02</pdfrwt>
<pdfrwt beam="2">  1       -2 0.25782579E-02 0.94496337E+02</pdfrwt>
<totfact> 0.74115244E+04</totfact>
</mgrwt>
</event>
<event>
 6    1  0.1535970E-002  0.9538526E+02  0.7546771E-02  0.1363031E+00
          2   -1    0    0  501    0  0.00000000000E+00  0.00000000000E+00  0.30148764506E+03  0.30148764506E+03  0.00000000000E+00 0. -1.
         -2   -1    0    0    0  501 -0.00000000000E+00 -0.00000000000E+00 -0.33477903369E+02  0.33477903369E+02  0.00000000000E+00 0.  1.
         23    2    1    2    0    0 -0.26098477664E+02 -0.35314804686E+01  0.28703970734E+03  0.30247337270E+03  0.91677400219E+02 0.  0.
         11    1    3    3    0    0 -0.40923963522E+02 -0.38748508398E+02  0.15120110791E+03  0.16136292241E+03  0.00000000000E+00 0.  1.
        -11    1    3    3    0    0  0.14825485858E+02  0.35217027930E+02  0.13583859943E+03  0.14111045030E+03  0.00000000000E+00 0. -1.
         22    1    1    2    0    0  0.26098477664E+02  0.35314804686E+01 -0.19029965653E+02  0.32492175726E+02  0.00000000000E+00 0.  1.
<mgrwt>
<rscale>  0 0.69143241E+02</rscale>
<asrwt>0</asrwt>
<pdfrwt beam="1">  1        2 0.46382713E-01 0.95385259E+02</pdfrwt>
<pdfrwt beam="2">  1       -2 0.51504469E-02 0.95385259E+02</pdfrwt>
<totfact> 0.18402649E+04</totfact>
</mgrwt>
</event>
<event>
 6    1  0.1535970E-002  0.8965903E+02  0.7546771E-02  0.1434847E+00
          3   -1    0    0  501    0  0.00000000000E+00  0.00000000000E+00  0.23272048487E+02  0.23272048487E+02  0.00000000000E+00 0. -1.
         -3   -1    0    0    0  501 -0.00000000000E+00 -0.00000000000E+00 -0.10723671388E+03  0.10723671388E+03  0.00000000000E+00 0.  1.
         23    2    1    2    0    0  0.66042127773E+01  0.76995421265E+01 -0.77205853502E+02  0.11831941811E+03  0.89083344743E+02 0.  0.
         13    1    3    3    0    0  0.90841342057E+01  0.47381372646E+02 -0.30923689283E+02  0.57304367434E+02  0.00000000000E+00 0. -1.
        -13    1    3    3    0    0 -0.24799214285E+01 -0.39681830520E+02 -0.46282164219E+02  0.61015050672E+02  0.00000000000E+00 0.  1.
         22    1    1    2    0    0 -0.66042127773E+01 -0.76995421265E+01 -0.67588118934E+01  0.12189344264E+02  0.00000000000E+00 0. -1.
<mgrwt>
<rscale>  0 0.51999202E+02</rscale>
<asrwt>0</asrwt>
<pdfrwt beam="1">  1        3 0.35803152E-02 0.89659026E+02</pdfrwt>
<pdfrwt beam="2">  1       -3 0.16497956E-01 0.89659026E+02</pdfrwt>
<totfact> 0.24648835E+04</totfact>
</mgrwt>
</event>
<event>
 6    1  0.1535970E-002  0.9332302E+02  0.7546771E-02  0.1402271E+00
         -2   -1    0    0    0  501 -0.00000000000E+00  0.00000000000E+00  0.53781216932E+01  0.53781216932E+01  0.00000000000E+00 0.  1.
          2   -1    0    0  501    0  0.00000000000E+00 -0.00000000000E+00 -0.57896330233E+03  0.57896330233E+03  0.00000000000E+00 0. -1.
         23    2    1    2    0    0 -0.14399980840E+02 -0.36817763521E+01 -0.53325736197E+03  0.54136180230E+03  0.92131818422E+02 0.  0.
         11    1    3    3    0    0 -0.44393850893E+01  0.33423638299E+02 -0.42775703264E+03  0.42908382247E+03  0.00000000000E+00 0. -1.
        -11    1    3    3    0    0 -0.99605957510E+01 -0.37105414651E+02 -0.10550032934E+03  0.11227797983E+03  0.00000000000E+00 0.  1.
         22    1    1    2    0    0  0.14399980840E+02  0.36817763521E+01 -0.40327818667E+02  0.42979621726E+02  0.00000000000E+00 0. -1.
<mgrwt>
<rscale>  0 0.58954877E+02</rscale>
<asrwt>0</asrwt>
<pdfrwt beam="1">  1        2 0.89071235E-01 0.93323024E+02</pdfrwt>
<pdfrwt beam="2">  1       -2 0.82740373E-03 0.93323024E+02</pdfrwt>
<totfact> 0.12812042E+05</totfact>
</mgrwt>
</event>
<event>
 6    1  0.1535970E-002  0.9484621E+02  0.7546771E-02  0.1364929E+00
         -3   -1    0    0    0  501 -0.00000000000E+00  0.00000000000E+00  0.38275321377E+01  0.38275321377E+01  0.00000000000E+00 0.  1.
          3   -1    0    0  501    0  0.00000000000E+00 -0.00000000000E+00 -0.10570456916E+04  0.10570456916E+04  0.00000000000E+00 0. -1.
         23    2    1    2    0    0 -0.21425568408E+02  0.14643909353E+02 -0.93724519406E+03  0.94203203658E+03  0.91226668677E+02 0.  0.
         11    1    3    3    0    0 -0.72123652469E+00 -0.74513515976E+01 -0.43755884503E+01  0.86711358566E+01  0.00000000000E+00 0. -1.
        -11    1    3    3    0    0 -0.20704331883E+02  0.22095260950E+02 -0.93286960561E+03  0.93336090072E+03  0.00000000000E+00 0.  1.
         22    1    1    2    0    0  0.21425568408E+02 -0.14643909353E+02 -0.11597296543E+03  0.11884118719E+03  0.00000000000E+00 0. -1.
<mgrwt>
<rscale>  0 0.68597316E+02</rscale>
<asrwt>0</asrwt>
<pdfrwt beam="1">  1        3 0.16262242E+00 0.94846213E+02</pdfrwt>
<pdfrwt beam="2">  1       -3 0.58885106E-03 0.94846213E+02</pdfrwt>
<totfact> 0.36110221E+03</totfact>
</mgrwt>
</event>
<event>
 6    1  0.1535970E-002  0.9396675E+02  0.7546771E-02  0.1380737E+00
          2   -1    0    0  501    0  0.00000000000E+00  0.00000000000E+00  0.10248658280E+02  0.10248658280E+02  0.00000000000E+00 0. -1.
         -2   -1    0    0    0  501 -0.00000000000E+00 -0.00000000000E+00 -0.33788709674E+03  0.33788709674E+03  0.00000000000E+00 0.  1.
         23    2    1    2    0    0 -0.93291350320E+01 -0.18326786736E+02 -0.23192061040E+03  0.25023373011E+03  0.91688855840E+02 0.  0.
         11    1    3    3    0    0 -0.35875998618E+02  0.12993190904E+02 -0.18021399926E+03  0.18420910893E+03  0.00000000000E+00 0.  1.
        -11    1    3    3    0    0  0.26546863586E+02 -0.31319977641E+02 -0.51706611142E+02  0.66024621176E+02  0.00000000000E+00 0. -1.
         22    1    1    2    0    0  0.93291350320E+01  0.18326786736E+02 -0.95717828064E+02  0.97902024912E+02  0.00000000000E+00 0. -1.
<mgrwt>
<rscale>  0 0.64270379E+02</rscale>
<asrwt>0</asrwt>
<pdfrwt beam="1">  1        2 0.15767170E-02 0.93966750E+02</pdfrwt>
<pdfrwt beam="2">  1       -2 0.51982620E-01 0.93966750E+02</pdfrwt>
<totfact> 0.23803754E+04</totfact>
</mgrwt>
</event>
<event>
 6    1  0.1535970E-002  0.9115990E+02  0.7546771E-02  0.1411174E+00
         -2   -1    0    0    0  501 -0.00000000000E+00  0.00000000000E+00  0.33618887527E+01  0.33618887527E+01  0.00000000000E+00 0. -1.
          2   -1    0    0  501    0  0.00000000000E+00 -0.00000000000E+00 -0.83123168187E+03  0.83123168187E+03  0.00000000000E+00 0.  1.
         23    2    1    2    0    0 -0.36433222861E+01 -0.13381541816E+02 -0.74720170789E+03  0.75274200110E+03  0.90098770754E+02 0.  0.
         11    1    3    3    0    0 -0.82661314938E+01  0.79096282870E+01 -0.70635770491E+03  0.70645035100E+03  0.00000000000E+00 0.  1.
        -11    1    3    3    0    0  0.46228092077E+01 -0.21291170103E+02 -0.40844002983E+02  0.46291650100E+02  0.00000000000E+00 0. -1.
         22    1    1    2    0    0  0.36433222861E+01  0.13381541816E+02 -0.80668085223E+02  0.81851569516E+02  0.00000000000E+00 0. -1.
<mgrwt>
<rscale>  0 0.56932655E+02</rscale>
<asrwt>0</asrwt>
<pdfrwt beam="1">  1        2 0.12788186E+00 0.91159903E+02</pdfrwt>
<pdfrwt beam="2">  1       -2 0.51721338E-03 0.91159903E+02</pdfrwt>
<totfact> 0.16207937E+05</totfact>
</mgrwt>
</event>
<event>
 6    1  0.1535970E-002  0.9562570E+02  0.7546771E-02  0.1360342E+00
          2   -1    0    0  501    0  0.00000000000E+00  0.00000000000E+00  0.26382936974E+03  0.26382936974E+03  0.00000000000E+00 0. -1.
         -2   -1    0    0    0  501 -0.00000000000E+00 -0.00000000000E+00 -0.15797645209E+02  0.15797645209E+02  0.00000000000E+00 0.  1.
         23    2    1    2    0    0 -0.76679778970E+01  0.26246127126E+02  0.22266031839E+03  0.24232600526E+03  0.91633063719E+02 0.  0.
         13    1    3    3    0    0 -0.24349786870E+02  0.37397035950E+02  0.44437932849E+02  0.62977617408E+02  0.00000000000E+00 0.  1.
        -13    1    3    3    0    0  0.16681808973E+02 -0.11150908823E+02  0.17822238554E+03  0.17934838785E+03  0.00000000000E+00 0. -1.
         22    1    1    2    0    0  0.76679778970E+01 -0.26246127126E+02  0.25371406147E+02  0.37301009692E+02  0.00000000000E+00 0.  1.
<mgrwt>
<rscale>  0 0.69926822E+02</rscale>
<asrwt>0</asrwt>
<pdfrwt beam="1">  1        2 0.40589131E-01 0.95625705E+02</pdfrwt>
<pdfrwt beam="2">  1       -2 0.24304071E-02 0.95625705E+02</pdfrwt>
<totfact> 0.63657292E+04</totfact>
</mgrwt>
</event>
<event>
 6    1  0.1535970E-002  0.9082191E+02  0.7546771E-02  0.1367238E+00
         -1   -1    0    0    0  501 -0.00000000000E+00  0.00000000000E+00  0.67672441200E+01  0.67672441200E+01  0.00000000000E+00 0.  1.
          1   -1    0    0  501    0  0.00000000000E+00 -0.00000000000E+00 -0.53179431746E+03  0.53179431746E+03  0.00000000000E+00 0. -1.
         23    2    1    2    0    0 -0.27593459567E+02 -0.68948502460E+01 -0.42327710634E+03  0.43291122436E+03  0.86253588054E+02 0.  0.
         13    1    3    3    0    0 -0.28648528719E+02 -0.42859822036E+02 -0.30347737156E+03  0.30782497883E+03  0.00000000000E+00 0.  1.
        -13    1    3    3    0    0  0.10550691512E+01  0.35964971790E+02 -0.11979973479E+03  0.12508624553E+03  0.00000000000E+00 0. -1.
         22    1    1    2    0    0  0.27593459567E+02  0.68948502460E+01 -0.10174996700E+03  0.10565033723E+03  0.00000000000E+00 0. -1.
<mgrwt>
<rscale>  0 0.67941069E+02</rscale>
<asrwt>0</asrwt>
<pdfrwt beam="1">  1        1 0.81814505E-01 0.90821910E+02</pdfrwt>
<pdfrwt beam="2">  1       -1 0.10411146E-02 0.90821910E+02</pdfrwt>
<totfact> 0.64741955E+04</totfact>
</mgrwt>
</event>
<event>
 6    1  0.1535970E-002  0.8953295E+02  0.7546771E-02  0.1428360E+00
         -1   -1    0    0    0  501 -0.00000000000E+00  0.00000000000E+00  0.43658579789E+01  0.43658579789E+01  0.00000000000E+00 0.  1.
          1   -1    0    0  501    0  0.00000000000E+00 -0.00000000000E+00 -0.58186114963E+03  0.58186114963E+03  0.00000000000E+00 0. -1.
         23    2    1    2    0    0 -0.10111663548E+02  0.49018724317E+01 -0.51768147457E+03  0.52536678409E+03  0.88824966188E+02 0.  0.
         13    1    3    3    0    0 -0.15949393502E+02 -0.80077062299E+01 -0.50775213778E+03  0.50806568467E+03  0.00000000000E+00 0. -1.
        -13    1    3    3    0    0  0.58377299536E+01  0.12909578662E+02 -0.99293367880E+01  0.17301099424E+02  0.00000000000E+00 0.  1.
         22    1    1    2    0    0  0.10111663548E+02 -0.49018724317E+01 -0.59813817082E+02  0.60860223520E+02  0.00000000000E+00 0. -1.
<mgrwt>
<rscale>  0 0.53290702E+02</rscale>
<asrwt>0</asrwt>
<pdfrwt beam="1">  1        1 0.89517093E-01 0.89532948E+02</pdfrwt>
<pdfrwt beam="2">  1       -1 0.67167051E-03 0.89532948E+02</pdfrwt>
<totfact> 0.10635683E+05</totfact>
</mgrwt>
</event>
<event>
 6    1  0.1535970E-002  0.9330291E+02  0.7546771E-02  0.1368353E+00
          1   -1    0    0  501    0  0.00000000000E+00  0.00000000000E+00  0.99202679790E+01  0.99202679790E+01  0.00000000000E+00 0. -1.
         -1   -1    0    0    0  501 -0.00000000000E+00 -0.00000000000E+00 -0.79751779530E+03  0.79751779530E+03  0.00000000000E+00 0.  1.
         23    2    1    2    0    0  0.25188094045E+02 -0.53556347724E+01 -0.77138735994E+03  0.77700958267E+03  0.89678924966E+02 0.  0.
         11    1    3    3    0    0  0.36444608317E+02 -0.40503781732E+02 -0.53368063376E+03  0.53645483002E+03  0.00000000000E+00 0.  1.
        -11    1    3    3    0    0 -0.11256514271E+02  0.35148146960E+02 -0.23770672618E+03  0.24055475265E+03  0.00000000000E+00 0. -1.
         22    1    1    2    0    0 -0.25188094045E+02  0.53556347724E+01 -0.16210167378E+02  0.30428480604E+02  0.00000000000E+00 0. -1.
<mgrwt>
<rscale>  0 0.67627080E+02</rscale>
<asrwt>0</asrwt>
<pdfrwt beam="1">  1        1 0.15261948E-02 0.93302907E+02</pdfrwt>
<pdfrwt beam="2">  1       -1 0.12269507E+00 0.93302907E+02</pdfrwt>
<totfact> 0.51492353E+03</totfact>
</mgrwt>
</event>
<event>
 6    1  0.1535970E-002  0.9103382E+02  0.7546771E-02  0.1402016E+00
          2   -1    0    0  501    0  0.00000000000E+00  0.00000000000E+00  0.67356951900E+03  0.67356951900E+03  0.00000000000E+00 0. -1.
         -2   -1    0    0    0  501 -0.00000000000E+00 -0.00000000000E+00 -0.53495782920E+01  0.53495782920E+01  0.00000000000E+00 0.  1.
         23    2    1    2    0    0  0.74894314899E+01  0.14226357503E+02  0.63998997665E+03  0.64643199673E+03  0.89602875842E+02 0.  0.
         11    1    3    3    0    0 -0.33841908366E+02  0.30701990066E+02  0.36813777412E+03  0.37096267695E+03  0.00000000000E+00 0. -1.
        -11    1    3    3    0    0  0.41331339856E+02 -0.16475632563E+02  0.27185220253E+03  0.27546931978E+03  0.00000000000E+00 0.  1.
         22    1    1    2    0    0 -0.74894314899E+01 -0.14226357503E+02  0.28229964055E+02  0.32487100554E+02  0.00000000000E+00 0.  1.
<mgrwt>
<rscale>  0 0.59014076E+02</rscale>
<asrwt>0</asrwt>
<pdfrwt beam="1">  1        2 0.10362601E+00 0.91033819E+02</pdfrwt>
<pdfrwt beam="2">  1       -2 0.82301258E-03 0.91033819E+02</pdfrwt>
<totfact> 0.10838703E+05</totfact>
</mgrwt>
</event>
<event>
 6    1  0.1535970E-002  0.1219349E+03  0.7546771E-02  0.1261005E+00
          2   -1    0    0  501    0  0.00000000000E+00  0.00000000000E+00  0.14096520448E+04  0.14096520448E+04  0.00000000000E+00 0. -1.
         -2   -1    0    0    0  501 -0.00000000000E+00 -0.00000000000E+00 -0.76692910748E+01  0.76692910748E+01  0.00000000000E+00 0.  1.
         23    2    1    2    0    0  0.46177869067E+02 -0.65414052863E+02  0.10028842709E+04  0.10102697508E+04  0.91960397436E+02 0.  0.
         11    1    3    3    0    0  0.15515050353E+02  0.76436518181E+01  0.33953264956E+02  0.38104676901E+02  0.00000000000E+00 0.  1.
        -11    1    3    3    0    0  0.30662818714E+02 -0.73057704681E+02  0.96893100595E+03  0.97216507392E+03  0.00000000000E+00 0. -1.
         22    1    1    2    0    0 -0.46177869067E+02  0.65414052863E+02  0.39909848282E+03  0.40705158506E+03  0.00000000000E+00 0. -1.
<mgrwt>
<rscale>  0 0.10976527E+03</rscale>
<asrwt>0</asrwt>
<pdfrwt beam="1">  1        2 0.21686934E+00 0.12193485E+03</pdfrwt>
<pdfrwt beam="2">  1       -2 0.11798921E-02 0.12193485E+03</pdfrwt>
<totfact> 0.24367511E+04</totfact>
</mgrwt>
</event>
<event>
 6    1  0.1535970E-002  0.9421644E+02  0.7546771E-02  0.1369983E+00
         -4   -1    0    0    0  501 -0.00000000000E+00  0.00000000000E+00  0.25960750811E+02  0.25960750811E+02  0.00000000000E+00 0.  1.
          4   -1    0    0  501    0  0.00000000000E+00 -0.00000000000E+00 -0.19686243828E+03  0.19686243828E+03  0.00000000000E+00 0. -1.
         23    2    1    2    0    0 -0.12285136840E+02  0.21015602556E+02 -0.17440762127E+03  0.19822904935E+03  0.91017347300E+02 0.  0.
         13    1    3    3    0    0 -0.41471782932E+01 -0.54720527706E+01 -0.17003854801E+03  0.17017711438E+03  0.00000000000E+00 0. -1.
        -13    1    3    3    0    0 -0.81379585468E+01  0.26487655326E+02 -0.43690732557E+01  0.28051934962E+02  0.00000000000E+00 0.  1.
         22    1    1    2    0    0  0.12285136840E+02 -0.21015602556E+02  0.35059338007E+01  0.24594139744E+02  0.00000000000E+00 0.  1.
<mgrwt>
<rscale>  0 0.67172020E+02</rscale>
<asrwt>0</asrwt>
<pdfrwt beam="1">  1        4 0.30286527E-01 0.94216440E+02</pdfrwt>
<pdfrwt beam="2">  1       -4 0.39939619E-02 0.94216440E+02</pdfrwt>
<totfact> 0.53071017E+03</totfact>
</mgrwt>
</event>
<event>
 6    1  0.1535970E-002  0.9126489E+02  0.7546771E-02  0.1391879E+00
         -2   -1    0    0    0  501 -0.00000000000E+00  0.00000000000E+00  0.32348891351E+01  0.32348891351E+01  0.00000000000E+00 0.  1.
          2   -1    0    0  501    0  0.00000000000E+00 -0.00000000000E+00 -0.13746189042E+04  0.13746189042E+04  0.00000000000E+00 0. -1.
         23    2    1    2    0    0 -0.10727997610E+02 -0.15374688328E+02 -0.13200906737E+04  0.13232417266E+04  0.89318581611E+02 0.  0.
         11    1    3    3    0    0 -0.27565106111E+02  0.26976615447E+02 -0.86877362917E+03  0.86962934150E+03  0.00000000000E+00 0. -1.
        -11    1    3    3    0    0  0.16837108501E+02 -0.42351303775E+02 -0.45131704457E+03  0.45361238506E+03  0.00000000000E+00 0.  1.
         22    1    1    2    0    0  0.10727997610E+02  0.15374688328E+02 -0.51293341315E+02  0.54612066773E+02  0.00000000000E+00 0. -1.
<mgrwt>
<rscale>  0 0.61441807E+02</rscale>
<asrwt>0</asrwt>
<pdfrwt beam="1">  1        2 0.21147976E+00 0.91264889E+02</pdfrwt>
<pdfrwt beam="2">  1       -2 0.49767542E-03 0.91264889E+02</pdfrwt>
<totfact> 0.83987165E+04</totfact>
</mgrwt>
</event>
<event>
 6    1  0.1535970E-002  0.9860010E+02  0.7546771E-02  0.1338232E+00
         -2   -1    0    0    0  501 -0.00000000000E+00  0.00000000000E+00  0.19895418586E+03  0.19895418586E+03  0.00000000000E+00 0.  1.
          2   -1    0    0  501    0  0.00000000000E+00 -0.00000000000E+00 -0.31450249147E+02  0.31450249147E+02  0.00000000000E+00 0. -1.
         23    2    1    2    0    0  0.14853717912E+01  0.36358780477E+02  0.56616279662E+02  0.11369865223E+03  0.91639582874E+02 0.  0.
         13    1    3    3    0    0 -0.37563111378E+02 -0.67346453921E+01  0.34615576250E+02  0.51522625167E+02  0.00000000000E+00 0.  1.
        -13    1    3    3    0    0  0.39048483169E+02  0.43093425869E+02  0.22000703411E+02  0.62176027064E+02  0.00000000000E+00 0. -1.
         22    1    1    2    0    0 -0.14853717912E+01 -0.36358780477E+02  0.11088765705E+03  0.11670578277E+03  0.00000000000E+00 0.  1.
<mgrwt>
<rscale>  0 0.76851241E+02</rscale>
<asrwt>0</asrwt>
<pdfrwt beam="1">  1        2 0.48385000E-02 0.98600103E+02</pdfrwt>
<pdfrwt beam="2">  1       -2 0.30608336E-01 0.98600103E+02</pdfrwt>
<totfact> 0.14550666E+04</totfact>
</mgrwt>
</event>
<event>
 6    1  0.1535970E-002  0.9399306E+02  0.7546771E-02  0.1392208E+00
          2   -1    0    0  501    0  0.00000000000E+00  0.00000000000E+00  0.53167243947E+03  0.53167243947E+03  0.00000000000E+00 0.  1.
         -2   -1    0    0    0  501 -0.00000000000E+00 -0.00000000000E+00 -0.19610979028E+02  0.19610979028E+02  0.00000000000E+00 0. -1.
         23    2    1    2    0    0  0.16352817314E+02  0.49022650590E+01  0.52275569930E+03  0.53113860324E+03  0.92429691447E+02 0.  0.
         11    1    3    3    0    0 -0.58103624749E+01  0.26690731215E+02  0.46943970339E+02  0.54312906349E+02  0.00000000000E+00 0. -1.
        -11    1    3    3    0    0  0.22163179789E+02 -0.21788466156E+02  0.47581172896E+03  0.47682569689E+03  0.00000000000E+00 0.  1.
         22    1    1    2    0    0 -0.16352817314E+02 -0.49022650590E+01 -0.10694238863E+02  0.20144815256E+02  0.00000000000E+00 0. -1.
<mgrwt>
<rscale>  0 0.61360904E+02</rscale>
<asrwt>0</asrwt>
<pdfrwt beam="1">  1        2 0.81795749E-01 0.93993057E+02</pdfrwt>
<pdfrwt beam="2">  1       -2 0.30170741E-02 0.93993057E+02</pdfrwt>
<totfact> 0.22121774E+04</totfact>
</mgrwt>
</event>
<event>
 6    1  0.1535970E-002  0.9430233E+02  0.7546771E-02  0.1373129E+00
          2   -1    0    0  501    0  0.00000000000E+00  0.00000000000E+00  0.12539353968E+04  0.12539353968E+04  0.00000000000E+00 0. -1.
         -2   -1    0    0    0  501 -0.00000000000E+00 -0.00000000000E+00 -0.29990659586E+01  0.29990659586E+01  0.00000000000E+00 0.  1.
         23    2    1    2    0    0  0.76441546185E+01  0.21742593266E+02  0.11218750940E+04  0.11258315402E+04  0.91442642101E+02 0.  0.
         13    1    3    3    0    0  0.65607563424E+01  0.50500142997E+02  0.37982342047E+03  0.38322204882E+03  0.00000000000E+00 0.  1.
        -13    1    3    3    0    0  0.10833982761E+01 -0.28757549731E+02  0.74205167356E+03  0.74260949136E+03  0.00000000000E+00 0. -1.
         22    1    1    2    0    0 -0.76441546185E+01 -0.21742593266E+02  0.12906123682E+03  0.13110292259E+03  0.00000000000E+00 0. -1.
<mgrwt>
<rscale>  0 0.66305015E+02</rscale>
<asrwt>0</asrwt>
<pdfrwt beam="1">  1        2 0.19291272E+00 0.94302334E+02</pdfrwt>
<pdfrwt beam="2">  1       -2 0.46139576E-03 0.94302334E+02</pdfrwt>
<totfact> 0.10856497E+05</totfact>
</mgrwt>
</event>
<event>
 6    1  0.1535970E-002  0.9287866E+02  0.7546771E-02  0.1410367E+00
          2   -1    0    0  501    0  0.00000000000E+00  0.00000000000E+00  0.45380452537E+02  0.45380452537E+02  0.00000000000E+00 0.  1.
         -2   -1    0    0    0  501 -0.00000000000E+00 -0.00000000000E+00 -0.62984982795E+02  0.62984982795E+02  0.00000000000E+00 0. -1.
         23    2    1    2    0    0  0.11074098859E+02  0.73276603426E+01 -0.10978852435E+02  0.93525291186E+02  0.91924504998E+02 0.  0.
         11    1    3    3    0    0  0.48417972176E+02  0.20213375473E+02 -0.12700875690E+02  0.53983264268E+02  0.00000000000E+00 0.  1.
        -11    1    3    3    0    0 -0.37343873317E+02 -0.12885715130E+02  0.17220232551E+01  0.39542026919E+02  0.00000000000E+00 0. -1.
         22    1    1    2    0    0 -0.11074098859E+02 -0.73276603426E+01 -0.66256778228E+01  0.14840144145E+02  0.00000000000E+00 0. -1.
<mgrwt>
<rscale>  0 0.57112057E+02</rscale>
<asrwt>0</asrwt>
<pdfrwt beam="1">  1        2 0.69816081E-02 0.92878657E+02</pdfrwt>
<pdfrwt beam="2">  1       -2 0.96899973E-02 0.92878657E+02</pdfrwt>
<totfact> 0.60640172E+04</totfact>
</mgrwt>
</event>
<event>
 6    1  0.1535970E-002  0.8999303E+02  0.7546771E-02  0.1411279E+00
         -4   -1    0    0    0  501 -0.00000000000E+00  0.00000000000E+00  0.12073892037E+02  0.12073892037E+02  0.00000000000E+00 0. -1.
          4   -1    0    0  501    0  0.00000000000E+00 -0.00000000000E+00 -0.22648646347E+03  0.22648646347E+03  0.00000000000E+00 0.  1.
         23    2    1    2    0    0  0.71156916689E+01  0.12509476127E+02 -0.17943713350E+03  0.20073970877E+03  0.88834822777E+02 0.  0.
         13    1    3    3    0    0 -0.37092027882E+02 -0.45125932815E+01 -0.46736401388E+02  0.59837055787E+02  0.00000000000E+00 0. -1.
        -13    1    3    3    0    0  0.44207719551E+02  0.17022069409E+02 -0.13270073211E+03  0.14090265299E+03  0.00000000000E+00 0.  1.
         22    1    1    2    0    0 -0.71156916689E+01 -0.12509476127E+02 -0.34975437931E+02  0.37820646734E+02  0.00000000000E+00 0. -1.
<mgrwt>
<rscale>  0 0.56909456E+02</rscale>
<asrwt>0</asrwt>
<pdfrwt beam="1">  1        4 0.34844069E-01 0.89993032E+02</pdfrwt>
<pdfrwt beam="2">  1       -4 0.18575220E-02 0.89993032E+02</pdfrwt>
<totfact> 0.13129216E+04</totfact>
</mgrwt>
</event>
<event>
 6    1  0.1535970E-002  0.9221563E+02  0.7546771E-02  0.1418479E+00
          2   -1    0    0  501    0  0.00000000000E+00  0.00000000000E+00  0.76490370990E+03  0.76490370990E+03  0.00000000000E+00 0. -1.
         -2   -1    0    0    0  501 -0.00000000000E+00 -0.00000000000E+00 -0.37836007942E+01  0.37836007942E+01  0.00000000000E+00 0.  1.
         23    2    1    2    0    0 -0.29771557970E+01  0.11587500224E+02  0.71938294790E+03  0.72526929320E+03  0.91436252676E+02 0.  0.
         13    1    3    3    0    0 -0.13286053996E+02 -0.68916214031E+01  0.17334109265E+02  0.22901637940E+02  0.00000000000E+00 0.  1.
        -13    1    3    3    0    0  0.10308898199E+02  0.18479121627E+02  0.70204883864E+03  0.70236765526E+03  0.00000000000E+00 0. -1.
         22    1    1    2    0    0  0.29771557970E+01 -0.11587500224E+02  0.41737161199E+02  0.43418017493E+02  0.00000000000E+00 0. -1.
<mgrwt>
<rscale>  0 0.55344071E+02</rscale>
<asrwt>0</asrwt>
<pdfrwt beam="1">  1        2 0.11767737E+00 0.92215627E+02</pdfrwt>
<pdfrwt beam="2">  1       -2 0.58209304E-03 0.92215627E+02</pdfrwt>
<totfact> 0.15224176E+05</totfact>
</mgrwt>
</event>
<event>
 6    1  0.1535970E-002  0.9043291E+02  0.7546771E-02  0.1413709E+00
          2   -1    0    0  501    0  0.00000000000E+00  0.00000000000E+00  0.82639536435E+02  0.82639536435E+02  0.00000000000E+00 0. -1.
         -2   -1    0    0    0  501 -0.00000000000E+00 -0.00000000000E+00 -0.33590054397E+02  0.33590054397E+02  0.00000000000E+00 0.  1.
         23    2    1    2    0    0 -0.13281507963E+02 -0.31790464715E+01  0.48369651715E+02  0.10255600463E+03  0.89395783397E+02 0.  0.
         13    1    3    3    0    0  0.16072453954E+02  0.71078563361E+01  0.64966001015E+02  0.67301015487E+02  0.00000000000E+00 0. -1.
        -13    1    3    3    0    0 -0.29353961917E+02 -0.10286902808E+02 -0.16596349300E+02  0.35254989146E+02  0.00000000000E+00 0.  1.
         22    1    1    2    0    0  0.13281507963E+02  0.31790464715E+01  0.67983032253E+00  0.13673586198E+02  0.00000000000E+00 0. -1.
<mgrwt>
<rscale>  0 0.56374295E+02</rscale>
<asrwt>0</asrwt>
<pdfrwt beam="1">  1        2 0.12713775E-01 0.90432908E+02</pdfrwt>
<pdfrwt beam="2">  1       -2 0.51677007E-02 0.90432908E+02</pdfrwt>
<totfact> 0.75492654E+04</totfact>
</mgrwt>
</event>
<event>
 6    1  0.1535970E-002  0.9182755E+02  0.7546771E-02  0.1427231E+00
          2   -1    0    0  501    0  0.00000000000E+00  0.00000000000E+00  0.14527299855E+03  0.14527299855E+03  0.00000000000E+00 0. -1.
         -2   -1    0    0    0  501 -0.00000000000E+00 -0.00000000000E+00 -0.18479076638E+02  0.18479076638E+02  0.00000000000E+00 0.  1.
         23    2    1    2    0    0 -0.84987869223E+01 -0.63281849778E+01  0.12023518098E+03  0.15129043858E+03  0.91214158752E+02 0.  0.
         13    1    3    3    0    0  0.40622134254E+02 -0.12052321337E+02  0.54999938856E+02  0.69429169051E+02  0.00000000000E+00 0. -1.
        -13    1    3    3    0    0 -0.49120921177E+02  0.57241363588E+01  0.65235242119E+02  0.81861269527E+02  0.00000000000E+00 0.  1.
         22    1    1    2    0    0  0.84987869223E+01  0.63281849778E+01  0.65587409313E+01  0.12461636605E+02  0.00000000000E+00 0.  1.
<mgrwt>
<rscale>  0 0.53519896E+02</rscale>
<asrwt>0</asrwt>
<pdfrwt beam="1">  1        2 0.22349691E-01 0.91827545E+02</pdfrwt>
<pdfrwt beam="2">  1       -2 0.28429350E-02 0.91827545E+02</pdfrwt>
<totfact> 0.95631149E+04</totfact>
</mgrwt>
</event>
<event>
 6    1  0.1535970E-002  0.9326334E+02  0.7546771E-02  0.1394952E+00
          2   -1    0    0  501    0  0.00000000000E+00  0.00000000000E+00  0.23623291847E+03  0.23623291847E+03  0.00000000000E+00 0. -1.
         -2   -1    0    0    0  501 -0.00000000000E+00 -0.00000000000E+00 -0.13643010588E+02  0.13643010588E+02  0.00000000000E+00 0.  1.
         23    2    1    2    0    0  0.16389359043E+02  0.33367021571E+01  0.20687555147E+03  0.22692629576E+03  0.91751322822E+02 0.  0.
         13    1    3    3    0    0 -0.18202003561E+02 -0.32777841822E+02  0.51504844323E+02  0.63705956055E+02  0.00000000000E+00 0.  1.
        -13    1    3    3    0    0  0.34591362604E+02  0.36114543979E+02  0.15537070715E+03  0.16322033970E+03  0.00000000000E+00 0. -1.
         22    1    1    2    0    0 -0.16389359043E+02 -0.33367021571E+01  0.15714356412E+02  0.22949633299E+02  0.00000000000E+00 0.  1.
<mgrwt>
<rscale>  0 0.60691579E+02</rscale>
<asrwt>0</asrwt>
<pdfrwt beam="1">  1        2 0.36343523E-01 0.93263336E+02</pdfrwt>
<pdfrwt beam="2">  1       -2 0.20989249E-02 0.93263336E+02</pdfrwt>
<totfact> 0.88046392E+04</totfact>
</mgrwt>
</event>
<event>
 6    1  0.1535970E-002  0.1043298E+03  0.7546771E-02  0.1309358E+00
         -1   -1    0    0    0  501 -0.00000000000E+00  0.00000000000E+00  0.72392054847E+01  0.72392054847E+01  0.00000000000E+00 0.  1.
          1   -1    0    0  501    0  0.00000000000E+00 -0.00000000000E+00 -0.84129109561E+03  0.84129109561E+03  0.00000000000E+00 0. -1.
         23    2    1    2    0    0 -0.17590174122E+02 -0.48194411883E+02 -0.58845986957E+03  0.59763678559E+03  0.90843788077E+02 0.  0.
         13    1    3    3    0    0 -0.48945641277E+02 -0.52458374894E+02 -0.44324145465E+03  0.44901062796E+03  0.00000000000E+00 0.  1.
        -13    1    3    3    0    0  0.31355467155E+02  0.42639630105E+01 -0.14521841491E+03  0.14862615763E+03  0.00000000000E+00 0. -1.
         22    1    1    2    0    0  0.17590174122E+02  0.48194411883E+02 -0.24559202056E+03  0.25089351551E+03  0.00000000000E+00 0. -1.
<mgrwt>
<rscale>  0 0.87366399E+02</rscale>
<asrwt>0</asrwt>
<pdfrwt beam="1">  1        1 0.12942943E+00 0.10432981E+03</pdfrwt>
<pdfrwt beam="2">  1       -1 0.11137237E-02 0.10432981E+03</pdfrwt>
<totfact> 0.31519170E+04</totfact>
</mgrwt>
</event>
<event>
 6    1  0.1535970E-002  0.9299526E+02  0.7546771E-02  0.1416542E+00
         -1   -1    0    0    0  501 -0.00000000000E+00  0.00000000000E+00  0.18304595735E+02  0.18304595735E+02  0.00000000000E+00 0.  1.
          1   -1    0    0  501    0  0.00000000000E+00 -0.00000000000E+00 -0.16014963878E+03  0.16014963878E+03  0.00000000000E+00 0. -1.
         23    2    1    2    0    0  0.89295005630E+01  0.80456689249E+01 -0.13680712114E+03  0.16542160524E+03  0.92215239068E+02 0.  0.
         13    1    3    3    0    0  0.14582786661E+02  0.28732135976E+02 -0.58840943983E+01  0.32753868038E+02  0.00000000000E+00 0.  1.
        -13    1    3    3    0    0 -0.56532860979E+01 -0.20686467051E+02 -0.13092302674E+03  0.13266773720E+03  0.00000000000E+00 0. -1.
         22    1    1    2    0    0 -0.89295005630E+01 -0.80456689249E+01 -0.50379219060E+01  0.13032629278E+02  0.00000000000E+00 0. -1.
<mgrwt>
<rscale>  0 0.55759307E+02</rscale>
<asrwt>0</asrwt>
<pdfrwt beam="1">  1        1 0.24638406E-01 0.92995264E+02</pdfrwt>
<pdfrwt beam="2">  1       -1 0.28160916E-02 0.92995264E+02</pdfrwt>
<totfact> 0.69546315E+04</totfact>
</mgrwt>
</event>
<event>
 6    1  0.1535970E-002  0.1199100E+03  0.7546771E-02  0.1265328E+00
          2   -1    0    0  501    0  0.00000000000E+00  0.00000000000E+00  0.60862294180E+03  0.60862294180E+03  0.00000000000E+00 0. -1.
         -2   -1    0    0    0  501 -0.00000000000E+00 -0.00000000000E+00 -0.25068917257E+02  0.25068917257E+02  0.00000000000E+00 0.  1.
         23    2    1    2    0    0 -0.72498461249E+02  0.27026124822E+02  0.14403838168E+03  0.18741790886E+03  0.91607744524E+02 0.  0.
         11    1    3    3    0    0  0.13610867552E+02  0.25596582613E+02  0.16005073488E+02  0.33114998631E+02  0.00000000000E+00 0. -1.
        -11    1    3    3    0    0 -0.86109328801E+02  0.14295422087E+01  0.12803330819E+03  0.15430291023E+03  0.00000000000E+00 0.  1.
         22    1    1    2    0    0  0.72498461249E+02 -0.27026124822E+02  0.43951564286E+03  0.44627395019E+03  0.00000000000E+00 0. -1.
<mgrwt>
<rscale>  0 0.10747012E+03</rscale>
<asrwt>0</asrwt>
<pdfrwt beam="1">  1        2 0.93634288E-01 0.11991004E+03</pdfrwt>
<pdfrwt beam="2">  1       -2 0.38567569E-02 0.11991004E+03</pdfrwt>
<totfact> 0.13562001E+04</totfact>
</mgrwt>
</event>
<event>
 6    1  0.1535970E-002  0.9263830E+02  0.7546771E-02  0.1394702E+00
         -2   -1    0    0    0  501 -0.00000000000E+00  0.00000000000E+00  0.23166309679E+01  0.23166309679E+01  0.00000000000E+00 0. -1.
          2   -1    0    0  501    0  0.00000000000E+00 -0.00000000000E+00 -0.20013676315E+04  0.20013676315E+04  0.00000000000E+00 0.  1.
         23    2    1    2    0    0 -0.16838082230E+02 -0.31748835709E+01 -0.19396587790E+04  0.19418697263E+04  0.91039849553E+02 0.  0.
         11    1    3    3    0    0 -0.14511536391E+00  0.12807963777E+02 -0.18174376622E+04  0.18174827980E+04  0.00000000000E+00 0.  1.
        -11    1    3    3    0    0 -0.16692966866E+02 -0.15982847348E+02 -0.12222111680E+03  0.12438692835E+03  0.00000000000E+00 0. -1.
         22    1    1    2    0    0  0.16838082230E+02  0.31748835709E+01 -0.59392221548E+02  0.61814536149E+02  0.00000000000E+00 0. -1.
<mgrwt>
<rscale>  0 0.60752285E+02</rscale>
<asrwt>0</asrwt>
<pdfrwt beam="1">  1        2 0.30790270E+00 0.92638303E+02</pdfrwt>
<pdfrwt beam="2">  1       -2 0.35640478E-03 0.92638303E+02</pdfrwt>
<totfact> 0.64628560E+04</totfact>
</mgrwt>
</event>
<event>
 6    1  0.1535970E-002  0.7857440E+02  0.7546771E-02  0.1454394E+00
         -1   -1    0    0    0  501 -0.00000000000E+00  0.00000000000E+00  0.94960846116E+01  0.94960846116E+01  0.00000000000E+00 0.  1.
          1   -1    0    0  501    0  0.00000000000E+00 -0.00000000000E+00 -0.22200225431E+03  0.22200225431E+03  0.00000000000E+00 0. -1.
         23    2    1    2    0    0 -0.11151925959E+02 -0.16583222217E+01 -0.19871095399E+03  0.21368195709E+03  0.77761301845E+02 0.  0.
         13    1    3    3    0    0 -0.35731946276E+02  0.23939486135E+02 -0.10418438825E+03  0.11271316576E+03  0.00000000000E+00 0.  1.
        -13    1    3    3    0    0  0.24580020317E+02 -0.25597808356E+02 -0.94526565734E+02  0.10096879132E+03  0.00000000000E+00 0. -1.
         22    1    1    2    0    0  0.11151925959E+02  0.16583222217E+01 -0.13795215712E+02  0.17816381836E+02  0.00000000000E+00 0.  1.
<mgrwt>
<rscale>  0 0.48359922E+02</rscale>
<asrwt>0</asrwt>
<pdfrwt beam="1">  1        1 0.34154189E-01 0.78574395E+02</pdfrwt>
<pdfrwt beam="2">  1       -1 0.14609363E-02 0.78574395E+02</pdfrwt>
<totfact> 0.11557791E+05</totfact>
</mgrwt>
</event>
<event>
 6    1  0.1535970E-002  0.1020322E+03  0.7546771E-02  0.1368043E+00
          2   -1    0    0  501    0  0.00000000000E+00  0.00000000000E+00  0.52926949427E+03  0.52926949427E+03  0.00000000000E+00 0. -1.
         -2   -1    0    0    0  501 -0.00000000000E+00 -0.00000000000E+00 -0.72680431044E+01  0.72680431044E+01  0.00000000000E+00 0.  1.
         23    2    1    2    0    0 -0.11385370650E+02 -0.16190430143E+02  0.46876454765E+03  0.47974031395E+03  0.10009401081E+03 0.  0.
         11    1    3    3    0    0 -0.27044674089E+02  0.27394150787E+02  0.86479675073E+02  0.94660382921E+02  0.00000000000E+00 0.  1.
        -11    1    3    3    0    0  0.15659303438E+02 -0.43584580930E+02  0.38228487258E+03  0.38507993103E+03  0.00000000000E+00 0. -1.
         22    1    1    2    0    0  0.11385370650E+02  0.16190430143E+02  0.53236903521E+02  0.56797223432E+02  0.00000000000E+00 0.  1.
<mgrwt>
<rscale>  0 0.67714232E+02</rscale>
<asrwt>0</asrwt>
<pdfrwt beam="1">  1        2 0.81426046E-01 0.10203219E+03</pdfrwt>
<pdfrwt beam="2">  1       -2 0.11181609E-02 0.10203219E+03</pdfrwt>
<totfact> 0.93481647E+04</totfact>
</mgrwt>
</event>
<event>
 6    1  0.1535970E-002  0.9407138E+02  0.7546771E-02  0.1400678E+00
         -2   -1    0    0    0  501 -0.00000000000E+00  0.00000000000E+00  0.70235321094E+01  0.70235321094E+01  0.00000000000E+00 0.  1.
          2   -1    0    0  501    0  0.00000000000E+00 -0.00000000000E+00 -0.43210174572E+03  0.43210174572E+03  0.00000000000E+00 0. -1.
         23    2    1    2    0    0  0.28803510281E+00 -0.14878469705E+02 -0.38631583132E+03  0.39760451067E+03  0.92886885772E+02 0.  0.
         13    1    3    3    0    0 -0.29476728077E+02  0.19438483662E+02 -0.27677097010E+03  0.27901416100E+03  0.00000000000E+00 0. -1.
        -13    1    3    3    0    0  0.29764763180E+02 -0.34316953367E+02 -0.10954486122E+03  0.11859034967E+03  0.00000000000E+00 0.  1.
         22    1    1    2    0    0 -0.28803510281E+00  0.14878469705E+02 -0.38762382286E+02  0.41520767159E+02  0.00000000000E+00 0. -1.
<mgrwt>
<rscale>  0 0.59327092E+02</rscale>
<asrwt>0</asrwt>
<pdfrwt beam="1">  1        2 0.66477198E-01 0.94071384E+02</pdfrwt>
<pdfrwt beam="2">  1       -2 0.10805433E-02 0.94071384E+02</pdfrwt>
<totfact> 0.12070646E+05</totfact>
</mgrwt>
</event>
<event>
 6    1  0.1535970E-002  0.8898914E+02  0.7546771E-02  0.1370495E+00
          2   -1    0    0  501    0  0.00000000000E+00  0.00000000000E+00  0.96222630927E+03  0.96222630927E+03  0.00000000000E+00 0. -1.
         -2   -1    0    0    0  501 -0.00000000000E+00 -0.00000000000E+00 -0.55706927712E+01  0.55706927712E+01  0.00000000000E+00 0.  1.
         23    2    1    2    0    0 -0.95797646595E+01  0.26996621260E+02  0.89923568071E+03  0.90362817413E+03  0.84252466771E+02 0.  0.
         13    1    3    3    0    0  0.22938033665E+02  0.45448201433E+02  0.57299824319E+03  0.57525531645E+03  0.00000000000E+00 0. -1.
        -13    1    3    3    0    0 -0.32517798325E+02 -0.18451580172E+02  0.32623743752E+03  0.32837285768E+03  0.00000000000E+00 0.  1.
         22    1    1    2    0    0  0.95797646595E+01 -0.26996621260E+02  0.57419935790E+02  0.64168827920E+02  0.00000000000E+00 0.  1.
<mgrwt>
<rscale>  0 0.67029891E+02</rscale>
<asrwt>0</asrwt>
<pdfrwt beam="1">  1        2 0.14803469E+00 0.88989143E+02</pdfrwt>
<pdfrwt beam="2">  1       -2 0.85703042E-03 0.88989143E+02</pdfrwt>
<totfact> 0.65849127E+04</totfact>
</mgrwt>
</event>
<event>
 6    1  0.1535970E-002  0.9583809E+02  0.7546771E-02  0.1366100E+00
          4   -1    0    0  501    0  0.00000000000E+00  0.00000000000E+00  0.50748003678E+02  0.50748003678E+02  0.00000000000E+00 0. -1.
         -4   -1    0    0    0  501 -0.00000000000E+00 -0.00000000000E+00 -0.10833319108E+03  0.10833319108E+03  0.00000000000E+00 0.  1.
         23    2    1    2    0    0 -0.24203373697E+02 -0.47654422493E+01  0.64626483779E+00  0.95840268389E+02  0.92608998744E+02 0.  0.
         13    1    3    3    0    0 -0.49863106604E+02 -0.31340924822E+02  0.68790550637E+00  0.58898694238E+02  0.00000000000E+00 0.  1.
        -13    1    3    3    0    0  0.25659732907E+02  0.26575482573E+02 -0.41640668581E-01  0.36941574151E+02  0.00000000000E+00 0. -1.
         22    1    1    2    0    0  0.24203373697E+02  0.47654422493E+01 -0.58231452237E+02  0.63240926368E+02  0.00000000000E+00 0.  1.
<mgrwt>
<rscale>  0 0.68263306E+02</rscale>
<asrwt>0</asrwt>
<pdfrwt beam="1">  1        4 0.78073853E-02 0.95838089E+02</pdfrwt>
<pdfrwt beam="2">  1       -4 0.16666644E-01 0.95838089E+02</pdfrwt>
<totfact> 0.53564917E+03</totfact>
</mgrwt>
</event>
<event>
 6    1  0.1535970E-002  0.8982986E+02  0.7546771E-02  0.1413772E+00
         -1   -1    0    0    0  501 -0.00000000000E+00  0.00000000000E+00  0.65461841543E+02  0.65461841543E+02  0.00000000000E+00 0.  1.
          1   -1    0    0  501    0  0.00000000000E+00 -0.00000000000E+00 -0.58374452111E+02  0.58374452111E+02  0.00000000000E+00 0. -1.
         23    2    1    2    0    0 -0.13270234483E+02  0.42033336675E+01 -0.21210505235E+02  0.92299997427E+02  0.88744784948E+02 0.  0.
         11    1    3    3    0    0 -0.35109720568E+02  0.28332667036E+02  0.11077328207E+02  0.46455782201E+02  0.00000000000E+00 0.  1.
        -11    1    3    3    0    0  0.21839486085E+02 -0.24129333369E+02 -0.32287833442E+02  0.45844215226E+02  0.00000000000E+00 0. -1.
         22    1    1    2    0    0  0.13270234483E+02 -0.42033336675E+01  0.28297894667E+02  0.31536296227E+02  0.00000000000E+00 0. -1.
<mgrwt>
<rscale>  0 0.56360594E+02</rscale>
<asrwt>0</asrwt>
<pdfrwt beam="1">  1        1 0.89806849E-02 0.89829861E+02</pdfrwt>
<pdfrwt beam="2">  1       -1 0.10071053E-01 0.89829861E+02</pdfrwt>
<totfact> 0.38698085E+04</totfact>
</mgrwt>
</event>
<event>
 6    1  0.1535970E-002  0.9201853E+02  0.7546771E-02  0.1423917E+00
         -2   -1    0    0    0  501 -0.00000000000E+00  0.00000000000E+00  0.43241998408E+02  0.43241998408E+02  0.00000000000E+00 0. -1.
          2   -1    0    0  501    0  0.00000000000E+00 -0.00000000000E+00 -0.61527747789E+02  0.61527747789E+02  0.00000000000E+00 0.  1.
         23    2    1    2    0    0 -0.30747346041E+01  0.10641038715E+02 -0.15143426488E+02  0.93256280560E+02  0.91349465243E+02 0.  0.
         11    1    3    3    0    0  0.33163044601E+02  0.10901902943E+01 -0.37139341103E+02  0.49802677636E+02  0.00000000000E+00 0.  1.
        -11    1    3    3    0    0 -0.36237779205E+02  0.95508484205E+01  0.21995914616E+02  0.43453602924E+02  0.00000000000E+00 0. -1.
         22    1    1    2    0    0  0.30747346041E+01 -0.10641038715E+02 -0.31423228929E+01  0.11513465637E+02  0.00000000000E+00 0. -1.
<mgrwt>
<rscale>  0 0.54200803E+02</rscale>
<asrwt>0</asrwt>
<pdfrwt beam="1">  1        2 0.94658072E-02 0.92018533E+02</pdfrwt>
<pdfrwt beam="2">  1       -2 0.66526152E-02 0.92018533E+02</pdfrwt>
<totfact> 0.73847608E+04</totfact>
</mgrwt>
</event>
<event>
 6    1  0.1535970E-002  0.9188951E+02  0.7546771E-02  0.1389245E+00
          2   -1    0    0  501    0  0.00000000000E+00  0.00000000000E+00  0.35775405367E+03  0.35775405367E+03  0.00000000000E+00 0. -1.
         -2   -1    0    0    0  501 -0.00000000000E+00 -0.00000000000E+00 -0.10418262261E+02  0.10418262261E+02  0.00000000000E+00 0.  1.
         23    2    1    2    0    0  0.11293653818E+02 -0.15479503768E+02  0.32921875244E+03  0.34180209116E+03  0.89869465946E+02 0.  0.
         11    1    3    3    0    0 -0.26232494087E+02  0.13690981169E+02  0.22876917214E+03  0.23067492459E+03  0.00000000000E+00 0. -1.
        -11    1    3    3    0    0  0.37526147905E+02 -0.29170484937E+02  0.10044958030E+03  0.11112716657E+03  0.00000000000E+00 0.  1.
         22    1    1    2    0    0 -0.11293653818E+02  0.15479503768E+02  0.18117038965E+02  0.26370224768E+02  0.00000000000E+00 0.  1.
<mgrwt>
<rscale>  0 0.62094999E+02</rscale>
<asrwt>0</asrwt>
<pdfrwt beam="1">  1        2 0.55039076E-01 0.91889513E+02</pdfrwt>
<pdfrwt beam="2">  1       -2 0.16028099E-02 0.91889513E+02</pdfrwt>
<totfact> 0.83723763E+04</totfact>
</mgrwt>
</event>
<event>
 6    1  0.1535970E-002  0.9305307E+02  0.7546771E-02  0.1416208E+00
          2   -1    0    0  501    0  0.00000000000E+00  0.00000000000E+00  0.10617780896E+03  0.10617780896E+03  0.00000000000E+00 0. -1.
         -2   -1    0    0    0  501 -0.00000000000E+00 -0.00000000000E+00 -0.33460057995E+02  0.33460057995E+02  0.00000000000E+00 0.  1.
         23    2    1    2    0    0 -0.30216722124E+01 -0.11674528578E+02  0.82306895847E+02  0.12423082895E+03  0.92268351222E+02 0.  0.
         13    1    3    3    0    0 -0.10354148469E+02 -0.33438420677E+01  0.10148848091E+03  0.10207008096E+03  0.00000000000E+00 0. -1.
        -13    1    3    3    0    0  0.73324762561E+01 -0.83306865098E+01 -0.19181585064E+02  0.22160747987E+02  0.00000000000E+00 0.  1.
         22    1    1    2    0    0  0.30216722124E+01  0.11674528578E+02 -0.95891448833E+01  0.15407038004E+02  0.00000000000E+00 0. -1.
<mgrwt>
<rscale>  0 0.55831328E+02</rscale>
<asrwt>0</asrwt>
<pdfrwt beam="1">  1        2 0.16335047E-01 0.93053070E+02</pdfrwt>
<pdfrwt beam="2">  1       -2 0.51477013E-02 0.93053070E+02</pdfrwt>
<totfact> 0.56974501E+04</totfact>
</mgrwt>
</event>
<event>
 6    1  0.1535970E-002  0.9230603E+02  0.7546771E-02  0.1427426E+00
          4   -1    0    0  501    0  0.00000000000E+00  0.00000000000E+00  0.12039800600E+03  0.12039800600E+03  0.00000000000E+00 0. -1.
         -4   -1    0    0    0  501 -0.00000000000E+00 -0.00000000000E+00 -0.21965196683E+02  0.21965196683E+02  0.00000000000E+00 0.  1.
         23    2    1    2    0    0 -0.10358524139E+02  0.94074710396E+00  0.90628549242E+02  0.12935972228E+03  0.91718154047E+02 0.  0.
         11    1    3    3    0    0 -0.14921150036E+02 -0.67795530387E+01 -0.15675124227E+02  0.22678460647E+02  0.00000000000E+00 0.  1.
        -11    1    3    3    0    0  0.45626258965E+01  0.77203001427E+01  0.10630367347E+03  0.10668126163E+03  0.00000000000E+00 0. -1.
         22    1    1    2    0    0  0.10358524139E+02 -0.94074710396E+00  0.78042600784E+01  0.13003480412E+02  0.00000000000E+00 0. -1.
<mgrwt>
<rscale>  0 0.53480192E+02</rscale>
<asrwt>0</asrwt>
<pdfrwt beam="1">  1        4 0.18522770E-01 0.92306033E+02</pdfrwt>
<pdfrwt beam="2">  1       -4 0.33792611E-02 0.92306033E+02</pdfrwt>
<totfact> 0.16783121E+04</totfact>
</mgrwt>
</event>
<event>
 6    1  0.1535970E-002  0.8707452E+02  0.7546771E-02  0.1362294E+00
          1   -1    0    0  501    0  0.00000000000E+00  0.00000000000E+00  0.53546682342E+02  0.53546682342E+02  0.00000000000E+00 0. -1.
         -1   -1    0    0    0  501 -0.00000000000E+00 -0.00000000000E+00 -0.88180635410E+02  0.88180635410E+02  0.00000000000E+00 0.  1.
         23    2    1    2    0    0 -0.22961076637E+02 -0.26481755219E+02  0.69392832363E+01  0.87350591327E+02  0.79708705632E+02 0.  0.
         13    1    3    3    0    0 -0.24486248757E+02  0.67796749091E+01  0.35382206401E+02  0.43559624652E+02  0.00000000000E+00 0. -1.
        -13    1    3    3    0    0  0.15251721200E+01 -0.33261430128E+02 -0.28442923165E+02  0.43790966675E+02  0.00000000000E+00 0.  1.
         22    1    1    2    0    0  0.22961076637E+02  0.26481755219E+02 -0.41573236305E+02  0.54376726425E+02  0.00000000000E+00 0.  1.
<mgrwt>
<rscale>  0 0.69356947E+02</rscale>
<asrwt>0</asrwt>
<pdfrwt beam="1">  1        1 0.82379511E-02 0.87074521E+02</pdfrwt>
<pdfrwt beam="2">  1       -1 0.13566252E-01 0.87074521E+02</pdfrwt>
<totfact> 0.27434321E+04</totfact>
</mgrwt>
</event>
<event>
 6    1  0.1535970E-002  0.9220804E+02  0.7546771E-02  0.1413707E+00
         -2   -1    0    0    0  501 -0.00000000000E+00  0.00000000000E+00  0.22108391326E+03  0.22108391326E+03  0.00000000000E+00 0.  1.
          2   -1    0    0  501    0  0.00000000000E+00 -0.00000000000E+00 -0.12642033223E+02  0.12642033223E+02  0.00000000000E+00 0. -1.
         23    2    1    2    0    0 -0.60824006690E+01  0.11357344776E+02  0.17342577867E+03  0.19641492622E+03  0.91303546786E+02 0.  0.
         13    1    3    3    0    0  0.20964688344E+02 -0.61040854774E+01  0.19264805107E+01  0.21920067154E+02  0.00000000000E+00 0. -1.
        -13    1    3    3    0    0 -0.27047089013E+02  0.17461430253E+02  0.17149929816E+03  0.17449485906E+03  0.00000000000E+00 0.  1.
         22    1    1    2    0    0  0.60824006690E+01 -0.11357344776E+02  0.35016101367E+02  0.37311020265E+02  0.00000000000E+00 0. -1.
<mgrwt>
<rscale>  0 0.56374818E+02</rscale>
<asrwt>0</asrwt>
<pdfrwt beam="1">  1        2 0.19449283E-02 0.92208039E+02</pdfrwt>
<pdfrwt beam="2">  1       -2 0.34012907E-01 0.92208039E+02</pdfrwt>
<totfact> 0.39950435E+04</totfact>
</mgrwt>
</event>
<event>
 6    1  0.1535970E-002  0.1233645E+03  0.7546771E-02  0.1258054E+00
         -2   -1    0    0    0  501 -0.00000000000E+00  0.00000000000E+00  0.17180643147E+03  0.17180643147E+03  0.00000000000E+00 0.  1.
          2   -1    0    0  501    0  0.00000000000E+00 -0.00000000000E+00 -0.93180431291E+02  0.93180431291E+02  0.00000000000E+00 0. -1.
         23    2    1    2    0    0 -0.79100516547E+02 -0.21387314176E+02 -0.31878395022E+02  0.12741677050E+03  0.92219804870E+02 0.  0.
         13    1    3    3    0    0 -0.39647306999E+01  0.25602042988E+02 -0.28808609281E+02  0.38744285558E+02  0.00000000000E+00 0.  1.
        -13    1    3    3    0    0 -0.75135785848E+02 -0.46989357164E+02 -0.30697857405E+01  0.88672484944E+02  0.00000000000E+00 0. -1.
         22    1    1    2    0    0  0.79100516547E+02  0.21387314176E+02  0.11050439520E+03  0.13757009226E+03  0.00000000000E+00 0.  1.
<mgrwt>
<rscale>  0 0.11136990E+03</rscale>
<asrwt>0</asrwt>
<pdfrwt beam="1">  1        2 0.14335451E-01 0.12336451E+03</pdfrwt>
<pdfrwt beam="2">  1       -2 0.26431759E-01 0.12336451E+03</pdfrwt>
<totfact> 0.50096407E+03</totfact>
</mgrwt>
</event>
<event>
 6    1  0.1535970E-002  0.1007184E+03  0.7546771E-02  0.1326159E+00
         -2   -1    0    0    0  501 -0.00000000000E+00  0.00000000000E+00  0.19824626087E+03  0.19824626087E+03  0.00000000000E+00 0. -1.
          2   -1    0    0  501    0  0.00000000000E+00 -0.00000000000E+00 -0.26124824776E+02  0.26124824776E+02  0.00000000000E+00 0.  1.
         23    2    1    2    0    0 -0.40920250139E+02  0.10274391589E+02  0.10860423919E+03  0.14811845096E+03  0.91455807640E+02 0.  0.
         13    1    3    3    0    0 -0.42181001821E+01  0.75946789768E+01 -0.15993103032E+02  0.18200298418E+02  0.00000000000E+00 0.  1.
        -13    1    3    3    0    0 -0.36702149957E+02  0.26797126118E+01  0.12459734222E+03  0.12991815254E+03  0.00000000000E+00 0. -1.
         22    1    1    2    0    0  0.40920250139E+02 -0.10274391589E+02  0.63517196904E+02  0.76252634686E+02  0.00000000000E+00 0.  1.
<mgrwt>
<rscale>  0 0.81027979E+02</rscale>
<asrwt>0</asrwt>
<pdfrwt beam="1">  1        2 0.40192039E-02 0.10071839E+03</pdfrwt>
<pdfrwt beam="2">  1       -2 0.30499424E-01 0.10071839E+03</pdfrwt>
<totfact> 0.18697780E+04</totfact>
</mgrwt>
</event>
<event>
 6    1  0.1535970E-002  0.9147980E+02  0.7546771E-02  0.1411957E+00
          2   -1    0    0  501    0  0.00000000000E+00  0.00000000000E+00  0.54594224040E+03  0.54594224040E+03  0.00000000000E+00 0. -1.
         -2   -1    0    0    0  501 -0.00000000000E+00 -0.00000000000E+00 -0.56903104541E+01  0.56903104541E+01  0.00000000000E+00 0.  1.
         23    2    1    2    0    0 -0.11248819930E+02 -0.75673368910E+01  0.51409782554E+03  0.52217346542E+03  0.90469625976E+02 0.  0.
         11    1    3    3    0    0 -0.40969906658E+02  0.13236173727E+02  0.14391907750E+03  0.15022127151E+03  0.00000000000E+00 0. -1.
        -11    1    3    3    0    0  0.29721086728E+02 -0.20803510618E+02  0.37017874805E+03  0.37195219391E+03  0.00000000000E+00 0.  1.
         22    1    1    2    0    0  0.11248819930E+02  0.75673368910E+01  0.26154104404E+02  0.29459085434E+02  0.00000000000E+00 0.  1.
<mgrwt>
<rscale>  0 0.56759329E+02</rscale>
<asrwt>0</asrwt>
<pdfrwt beam="1">  1        2 0.83991072E-01 0.91479800E+02</pdfrwt>
<pdfrwt beam="2">  1       -2 0.87543281E-03 0.91479800E+02</pdfrwt>
<totfact> 0.12585886E+05</totfact>
</mgrwt>
</event>
<event>
 6    1  0.1535970E-002  0.1001279E+03  0.7546771E-02  0.1335791E+00
         -2   -1    0    0    0  501 -0.00000000000E+00  0.00000000000E+00  0.78521655608E+03  0.78521655608E+03  0.00000000000E+00 0.  1.
          2   -1    0    0  501    0  0.00000000000E+00 -0.00000000000E+00 -0.13602759789E+02  0.13602759789E+02  0.00000000000E+00 0. -1.
         23    2    1    2    0    0  0.15436248486E+02 -0.32807088969E+02  0.74990479155E+03  0.75655983479E+03  0.93332761528E+02 0.  0.
         13    1    3    3    0    0  0.19142641150E+02 -0.64616215807E+02  0.54856587831E+03  0.55268998444E+03  0.00000000000E+00 0.  1.
        -13    1    3    3    0    0 -0.37063926641E+01  0.31809126838E+02  0.20133891324E+03  0.20386985035E+03  0.00000000000E+00 0. -1.
         22    1    1    2    0    0 -0.15436248486E+02  0.32807088969E+02  0.21709004734E+02  0.42259481072E+02  0.00000000000E+00 0. -1.
<mgrwt>
<rscale>  0 0.77672034E+02</rscale>
<asrwt>0</asrwt>
<pdfrwt beam="1">  1        2 0.20927329E-02 0.10012785E+03</pdfrwt>
<pdfrwt beam="2">  1       -2 0.12080251E+00 0.10012785E+03</pdfrwt>
<totfact> 0.26113739E+03</totfact>
</mgrwt>
</event>
<event>
 6    1  0.1535970E-002  0.9319450E+02  0.7546771E-02  0.1364682E+00
          2   -1    0    0  501    0  0.00000000000E+00  0.00000000000E+00  0.12166135020E+04  0.12166135020E+04  0.00000000000E+00 0. -1.
         -2   -1    0    0    0  501 -0.00000000000E+00 -0.00000000000E+00 -0.35118708043E+01  0.35118708043E+01  0.00000000000E+00 0.  1.
         23    2    1    2    0    0 -0.81532562476E+01  0.26231225833E+02  0.10909453139E+04  0.10949186691E+04  0.89054260055E+02 0.  0.
         11    1    3    3    0    0 -0.48853135227E+01 -0.28910397000E+02  0.18675297272E+03  0.18904060454E+03  0.00000000000E+00 0.  1.
        -11    1    3    3    0    0 -0.32679427249E+01  0.55141622834E+02  0.90419234121E+03  0.90587806460E+03  0.00000000000E+00 0. -1.
         22    1    1    2    0    0  0.81532562476E+01 -0.26231225833E+02  0.12215631724E+03  0.12520670364E+03  0.00000000000E+00 0.  1.
<mgrwt>
<rscale>  0 0.68667921E+02</rscale>
<asrwt>0</asrwt>
<pdfrwt beam="1">  1        2 0.18717097E+00 0.93194496E+02</pdfrwt>
<pdfrwt beam="2">  1       -2 0.54028879E-03 0.93194496E+02</pdfrwt>
<totfact> 0.90995823E+04</totfact>
</mgrwt>
</event>
<event>
 6    1  0.1535970E-002  0.9531762E+02  0.7546771E-02  0.1375288E+00
         -2   -1    0    0    0  501 -0.00000000000E+00  0.00000000000E+00  0.60581870485E+01  0.60581870485E+01  0.00000000000E+00 0.  1.
          2   -1    0    0  501    0  0.00000000000E+00 -0.00000000000E+00 -0.81511433164E+03  0.81511433164E+03  0.00000000000E+00 0. -1.
         23    2    1    2    0    0  0.75485273140E+01 -0.20173468705E+02 -0.77524894414E+03  0.78108666200E+03  0.92852027759E+02 0.  0.
         13    1    3    3    0    0 -0.41882897386E+01  0.89903599612E+01 -0.69244348950E+03  0.69251451572E+03  0.00000000000E+00 0. -1.
        -13    1    3    3    0    0  0.11736817053E+02 -0.29163828666E+02 -0.82805454641E+02  0.88572146272E+02  0.00000000000E+00 0.  1.
         22    1    1    2    0    0 -0.75485273140E+01  0.20173468705E+02 -0.33807200457E+02  0.40085856695E+02  0.00000000000E+00 0.  1.
<mgrwt>
<rscale>  0 0.65718656E+02</rscale>
<asrwt>0</asrwt>
<pdfrwt beam="1">  1        2 0.12540225E+00 0.95317617E+02</pdfrwt>
<pdfrwt beam="2">  1       -2 0.93202841E-03 0.95317617E+02</pdfrwt>
<totfact> 0.72881327E+04</totfact>
</mgrwt>
</event>
<event>
 6    1  0.1535970E-002  0.9446808E+02  0.7546771E-02  0.1348619E+00
         -2   -1    0    0    0  501 -0.00000000000E+00  0.00000000000E+00  0.10424234207E+02  0.10424234207E+02  0.00000000000E+00 0.  1.
          2   -1    0    0  501    0  0.00000000000E+00 -0.00000000000E+00 -0.28072459684E+04  0.28072459684E+04  0.00000000000E+00 0. -1.
         23    2    1    2    0    0  0.12682727046E+02 -0.32185301259E+02 -0.27753437546E+04  0.27769510574E+04  0.87906049613E+02 0.  0.
         11    1    3    3    0    0  0.49846534730E+02 -0.26538302903E+02 -0.17899429869E+04  0.17908335643E+04  0.00000000000E+00 0. -1.
        -11    1    3    3    0    0 -0.37163807683E+02 -0.56469983562E+01 -0.98540076768E+03  0.98611749307E+03  0.00000000000E+00 0.  1.
         22    1    1    2    0    0 -0.12682727046E+02  0.32185301259E+02 -0.21477979584E+02  0.40719145244E+02  0.00000000000E+00 0.  1.
<mgrwt>
<rscale>  0 0.73487596E+02</rscale>
<asrwt>0</asrwt>
<pdfrwt beam="1">  1        2 0.43188450E+00 0.94468083E+02</pdfrwt>
<pdfrwt beam="2">  1       -2 0.16037265E-02 0.94468083E+02</pdfrwt>
<totfact> 0.29398418E+03</totfact>
</mgrwt>
</event>
<event>
 6    1  0.1535970E-002  0.1000572E+03  0.7546771E-02  0.1321073E+00
         -2   -1    0    0    0  501 -0.00000000000E+00  0.00000000000E+00  0.21476746912E+02  0.21476746912E+02  0.00000000000E+00 0.  1.
          2   -1    0    0  501    0  0.00000000000E+00 -0.00000000000E+00 -0.34741870999E+03  0.34741870999E+03  0.00000000000E+00 0. -1.
         23    2    1    2    0    0  0.34803757635E+02 -0.31738466007E+02 -0.29749244845E+03  0.31386813048E+03  0.88276920412E+02 0.  0.
         11    1    3    3    0    0  0.15329960078E+02 -0.33759883527E+02 -0.29083477564E+03  0.29318868351E+03  0.00000000000E+00 0. -1.
        -11    1    3    3    0    0  0.19473797557E+02  0.20214175200E+01 -0.66576728070E+01  0.20679446977E+02  0.00000000000E+00 0.  1.
         22    1    1    2    0    0 -0.34803757635E+02  0.31738466007E+02 -0.28449514622E+02  0.55027326414E+02  0.00000000000E+00 0. -1.
<mgrwt>
<rscale>  0 0.82879470E+02</rscale>
<asrwt>0</asrwt>
<pdfrwt beam="1">  1        2 0.53449033E-01 0.10005722E+03</pdfrwt>
<pdfrwt beam="2">  1       -2 0.33041149E-02 0.10005722E+03</pdfrwt>
<totfact> 0.30691105E+04</totfact>
</mgrwt>
</event>
<event>
 6    1  0.1535970E-002  0.9075227E+02  0.7546771E-02  0.1427038E+00
          1   -1    0    0  501    0  0.00000000000E+00  0.00000000000E+00  0.54951924196E+02  0.54951924196E+02  0.00000000000E+00 0. -1.
         -1   -1    0    0    0  501 -0.00000000000E+00 -0.00000000000E+00 -0.47449957853E+02  0.47449957853E+02  0.00000000000E+00 0.  1.
         23    2    1    2    0    0 -0.35079978584E+01 -0.10435577959E+02  0.93715012247E+01  0.91234854826E+02  0.90081998000E+02 0.  0.
         13    1    3    3    0    0 -0.38856200665E+02 -0.14177311211E+02 -0.19227534463E+02  0.45612482555E+02  0.00000000000E+00 0.  1.
        -13    1    3    3    0    0  0.35348202807E+02  0.37417332521E+01  0.28599035687E+02  0.45622372271E+02  0.00000000000E+00 0. -1.
         22    1    1    2    0    0  0.35079978584E+01  0.10435577959E+02 -0.18695348818E+01  0.11167027222E+02  0.00000000000E+00 0.  1.
<mgrwt>
<rscale>  0 0.53559217E+02</rscale>
<asrwt>0</asrwt>
<pdfrwt beam="1">  1        1 0.84541422E-02 0.90752266E+02</pdfrwt>
<pdfrwt beam="2">  1       -1 0.72999935E-02 0.90752266E+02</pdfrwt>
<totfact> 0.67953480E+04</totfact>
</mgrwt>
</event>
<event>
 6    1  0.1535970E-002  0.9882302E+02  0.7546771E-02  0.1338937E+00
          2   -1    0    0  501    0  0.00000000000E+00  0.00000000000E+00  0.70396448571E+03  0.70396448571E+03  0.00000000000E+00 0. -1.
         -2   -1    0    0    0  501 -0.00000000000E+00 -0.00000000000E+00 -0.12604203052E+03  0.12604203052E+03  0.00000000000E+00 0.  1.
         23    2    1    2    0    0  0.21394246807E+02  0.28584322671E+02  0.69788312384E+03  0.70484526296E+03  0.92147777375E+02 0.  0.
         13    1    3    3    0    0 -0.31710455551E+02  0.18160644272E+02  0.43002210538E+03  0.43157197906E+03  0.00000000000E+00 0. -1.
        -13    1    3    3    0    0  0.53104702358E+02  0.10423678400E+02  0.26786101846E+03  0.27327328390E+03  0.00000000000E+00 0.  1.
         22    1    1    2    0    0 -0.21394246807E+02 -0.28584322671E+02 -0.11996066864E+03  0.12516125327E+03  0.00000000000E+00 0.  1.
<mgrwt>
<rscale>  0 0.76616604E+02</rscale>
<asrwt>0</asrwt>
<pdfrwt beam="1">  1        2 0.10830223E+00 0.98823025E+02</pdfrwt>
<pdfrwt beam="2">  1       -2 0.19391082E-01 0.98823025E+02</pdfrwt>
<totfact> 0.92310161E+02</totfact>
</mgrwt>
</event>
<event>
 6    1  0.1535970E-002  0.9247239E+02  0.7546771E-02  0.1407649E+00
         -2   -1    0    0    0  501 -0.00000000000E+00  0.00000000000E+00  0.29038268010E+02  0.29038268010E+02  0.00000000000E+00 0. -1.
          2   -1    0    0  501    0  0.00000000000E+00 -0.00000000000E+00 -0.11741791266E+03  0.11741791266E+03  0.00000000000E+00 0.  1.
         23    2    1    2    0    0  0.13628101133E+02 -0.33701640377E+01 -0.93508130875E+02  0.13151012710E+03  0.91400546195E+02 0.  0.
         13    1    3    3    0    0  0.40412664364E+01 -0.15197378301E+02  0.15122972367E+02  0.21817342525E+02  0.00000000000E+00 0. -1.
        -13    1    3    3    0    0  0.95868346968E+01  0.11827214263E+02 -0.10863110324E+03  0.10969278458E+03  0.00000000000E+00 0.  1.
         22    1    1    2    0    0 -0.13628101133E+02  0.33701640377E+01  0.51284862286E+01  0.14946053564E+02  0.00000000000E+00 0. -1.
<mgrwt>
<rscale>  0 0.57721851E+02</rscale>
<asrwt>0</asrwt>
<pdfrwt beam="1">  1        2 0.18064295E-01 0.92472390E+02</pdfrwt>
<pdfrwt beam="2">  1       -2 0.44674258E-02 0.92472390E+02</pdfrwt>
<totfact> 0.62641904E+04</totfact>
</mgrwt>
</event>
<event>
 6    1  0.1535970E-002  0.9131528E+02  0.7546771E-02  0.1416268E+00
          2   -1    0    0  501    0  0.00000000000E+00  0.00000000000E+00  0.10819064047E+03  0.10819064047E+03  0.00000000000E+00 0. -1.
         -2   -1    0    0    0  501 -0.00000000000E+00 -0.00000000000E+00 -0.26435482850E+02  0.26435482850E+02  0.00000000000E+00 0.  1.
         23    2    1    2    0    0 -0.91795937584E+01  0.88472962946E+01  0.80646103769E+02  0.12182887386E+03  0.90420909411E+02 0.  0.
         11    1    3    3    0    0 -0.39513702460E+02  0.13064329874E+02  0.71765401437E+01  0.42231648388E+02  0.00000000000E+00 0.  1.
        -11    1    3    3    0    0  0.30334108702E+02 -0.42170335798E+01  0.73469563625E+02  0.79597225468E+02  0.00000000000E+00 0. -1.
         22    1    1    2    0    0  0.91795937584E+01 -0.88472962946E+01  0.11090538481E+01  0.12797249460E+02  0.00000000000E+00 0. -1.
<mgrwt>
<rscale>  0 0.55818414E+02</rscale>
<asrwt>0</asrwt>
<pdfrwt beam="1">  1        2 0.16644714E-01 0.91315280E+02</pdfrwt>
<pdfrwt beam="2">  1       -2 0.40669974E-02 0.91315280E+02</pdfrwt>
<totfact> 0.78821033E+04</totfact>
</mgrwt>
</event>
<event>
 6    1  0.1535970E-002  0.9403470E+02  0.7546771E-02  0.1392231E+00
          2   -1    0    0  501    0  0.00000000000E+00  0.00000000000E+00  0.30112629882E+03  0.30112629882E+03  0.00000000000E+00 0. -1.
         -2   -1    0    0    0  501 -0.00000000000E+00 -0.00000000000E+00 -0.10254550646E+02  0.10254550646E+02  0.00000000000E+00 0.  1.
         23    2    1    2    0    0 -0.16841337760E+02  0.26126118043E+01  0.24242771718E+03  0.26002638971E+03  0.92477396646E+02 0.  0.
         11    1    3    3    0    0 -0.16934835605E+02  0.43058394415E+02  0.17833009584E+03  0.18423473361E+03  0.00000000000E+00 0. -1.
        -11    1    3    3    0    0  0.93497844412E-01 -0.40445782611E+02  0.64097621348E+02  0.75791656106E+02  0.00000000000E+00 0.  1.
         22    1    1    2    0    0  0.16841337760E+02 -0.26126118043E+01  0.48444030994E+02  0.51354459757E+02  0.00000000000E+00 0.  1.
<mgrwt>
<rscale>  0 0.61355180E+02</rscale>
<asrwt>0</asrwt>
<pdfrwt beam="1">  1        2 0.46327116E-01 0.94034703E+02</pdfrwt>
<pdfrwt beam="2">  1       -2 0.15776234E-02 0.94034703E+02</pdfrwt>
<totfact> 0.10290894E+05</totfact>
</mgrwt>
</event>
<event>
 6    1  0.1535970E-002  0.9059564E+02  0.7546771E-02  0.1430521E+00
          2   -1    0    0  501    0  0.00000000000E+00  0.00000000000E+00  0.57564697723E+03  0.57564697723E+03  0.00000000000E+00 0. -1.
         -2   -1    0    0    0  501 -0.00000000000E+00 -0.00000000000E+00 -0.45028838309E+01  0.45028838309E+01  0.00000000000E+00 0.  1.
         23    2    1    2    0    0 -0.10285689006E+02 -0.20929176705E+01  0.53004342321E+03  0.53773004503E+03  0.89985527333E+02 0.  0.
         11    1    3    3    0    0  0.34416775907E+02 -0.17832484385E+02  0.15824457530E+03  0.16292285775E+03  0.00000000000E+00 0. -1.
        -11    1    3    3    0    0 -0.44702464913E+02  0.15739566715E+02  0.37179884791E+03  0.37480718728E+03  0.00000000000E+00 0.  1.
         22    1    1    2    0    0  0.10285689006E+02  0.20929176705E+01  0.41100670181E+02  0.42419816030E+02  0.00000000000E+00 0. -1.
<mgrwt>
<rscale>  0 0.52855626E+02</rscale>
<asrwt>0</asrwt>
<pdfrwt beam="1">  1        2 0.88561015E-01 0.90595645E+02</pdfrwt>
<pdfrwt beam="2">  1       -2 0.69275181E-03 0.90595645E+02</pdfrwt>
<totfact> 0.16488658E+05</totfact>
</mgrwt>
</event>
<event>
 6    1  0.1535970E-002  0.8540227E+02  0.7546771E-02  0.1436524E+00
         -2   -1    0    0    0  501 -0.00000000000E+00  0.00000000000E+00  0.86776544766E+02  0.86776544766E+02  0.00000000000E+00 0. -1.
          2   -1    0    0  501    0  0.00000000000E+00 -0.00000000000E+00 -0.36620271300E+02  0.36620271300E+02  0.00000000000E+00 0.  1.
         23    2    1    2    0    0  0.49629727281E+01 -0.10313312659E+02  0.15367777131E+02  0.86773940789E+02  0.84631865806E+02 0.  0.
         13    1    3    3    0    0  0.25555307750E+02 -0.24740408977E+02 -0.21934820870E+02  0.41788730026E+02  0.00000000000E+00 0.  1.
        -13    1    3    3    0    0 -0.20592335022E+02  0.14427096318E+02  0.37302598001E+02  0.44985210763E+02  0.00000000000E+00 0. -1.
         22    1    1    2    0    0 -0.49629727281E+01  0.10313312659E+02  0.34788496335E+02  0.36622875277E+02  0.00000000000E+00 0. -1.
<mgrwt>
<rscale>  0 0.51672459E+02</rscale>
<asrwt>0</asrwt>
<pdfrwt beam="1">  1        2 0.56338879E-02 0.85402273E+02</pdfrwt>
<pdfrwt beam="2">  1       -2 0.13350238E-01 0.85402273E+02</pdfrwt>
<totfact> 0.47485460E+04</totfact>
</mgrwt>
</event>
<event>
 6    1  0.1535970E-002  0.9797330E+02  0.7546771E-02  0.1389372E+00
          2   -1    0    0  501    0  0.00000000000E+00  0.00000000000E+00  0.47296761551E+03  0.47296761551E+03  0.00000000000E+00 0. -1.
         -2   -1    0    0    0  501 -0.00000000000E+00 -0.00000000000E+00 -0.14459468487E+02  0.14459468487E+02  0.00000000000E+00 0.  1.
         23    2    1    2    0    0 -0.11725996299E+02  0.10554842095E+02  0.46113965568E+03  0.47143244369E+03  0.96694690877E+02 0.  0.
         11    1    3    3    0    0 -0.25389479518E+02  0.34860451199E+02  0.41699645234E+03  0.41922060779E+03  0.00000000000E+00 0. -1.
        -11    1    3    3    0    0  0.13663483219E+02 -0.24305609103E+02  0.44143203337E+02  0.52211835903E+02  0.00000000000E+00 0.  1.
         22    1    1    2    0    0  0.11725996299E+02 -0.10554842095E+02 -0.26315086513E+01  0.15994640310E+02  0.00000000000E+00 0.  1.
<mgrwt>
<rscale>  0 0.62063278E+02</rscale>
<asrwt>0</asrwt>
<pdfrwt beam="1">  1        2 0.72764237E-01 0.97973297E+02</pdfrwt>
<pdfrwt beam="2">  1       -2 0.22245340E-02 0.97973297E+02</pdfrwt>
<totfact> 0.39232038E+04</totfact>
</mgrwt>
</event>
<event>
 6    1  0.1535970E-002  0.8913096E+02  0.7546771E-02  0.1414084E+00
         -3   -1    0    0    0  501 -0.00000000000E+00  0.00000000000E+00  0.90623765598E+01  0.90623765598E+01  0.00000000000E+00 0.  1.
          3   -1    0    0  501    0  0.00000000000E+00 -0.00000000000E+00 -0.30338547197E+03  0.30338547197E+03  0.00000000000E+00 0. -1.
         23    2    1    2    0    0 -0.13607147225E+02  0.39942070178E+01 -0.26953538527E+03  0.28389020999E+03  0.87995563905E+02 0.  0.
         11    1    3    3    0    0  0.24501330323E+01  0.16623517677E+02 -0.36166473241E+01  0.17187921041E+02  0.00000000000E+00 0.  1.
        -11    1    3    3    0    0 -0.16057280257E+02 -0.12629310659E+02 -0.26591873795E+03  0.26670228895E+03  0.00000000000E+00 0. -1.
         22    1    1    2    0    0  0.13607147225E+02 -0.39942070178E+01 -0.24787710140E+02  0.28557638545E+02  0.00000000000E+00 0. -1.
<mgrwt>
<rscale>  0 0.56292448E+02</rscale>
<asrwt>0</asrwt>
<pdfrwt beam="1">  1        3 0.46674692E-01 0.89130957E+02</pdfrwt>
<pdfrwt beam="2">  1       -3 0.13942117E-02 0.89130957E+02</pdfrwt>
<totfact> 0.15500927E+04</totfact>
</mgrwt>
</event>
<event>
 6    1  0.1535970E-002  0.9400537E+02  0.7546771E-02  0.1367462E+00
          2   -1    0    0  501    0  0.00000000000E+00  0.00000000000E+00  0.59098880006E+02  0.59098880006E+02  0.00000000000E+00 0.  1.
         -2   -1    0    0    0  501 -0.00000000000E+00 -0.00000000000E+00 -0.63431269807E+02  0.63431269807E+02  0.00000000000E+00 0. -1.
         23    2    1    2    0    0  0.25245596688E+02 -0.39573220416E+01  0.76308184884E+01  0.94314570739E+02  0.90465508969E+02 0.  0.
         13    1    3    3    0    0 -0.17165046066E+02 -0.34195056629E+02 -0.96084572783E+01  0.39449501335E+02  0.00000000000E+00 0. -1.
        -13    1    3    3    0    0  0.42410642754E+02  0.30237734587E+02  0.17239275767E+02  0.54865069405E+02  0.00000000000E+00 0.  1.
         22    1    1    2    0    0 -0.25245596688E+02  0.39573220416E+01 -0.11963208289E+02  0.28215579073E+02  0.00000000000E+00 0. -1.
<mgrwt>
<rscale>  0 0.67877944E+02</rscale>
<asrwt>0</asrwt>
<pdfrwt beam="1">  1        2 0.90921354E-02 0.94005366E+02</pdfrwt>
<pdfrwt beam="2">  1       -2 0.97586568E-02 0.94005366E+02</pdfrwt>
<totfact> 0.43283659E+04</totfact>
</mgrwt>
</event>
<event>
 6    1  0.1535970E-002  0.9298948E+02  0.7546771E-02  0.1384436E+00
         -2   -1    0    0    0  501 -0.00000000000E+00  0.00000000000E+00  0.26418156613E+03  0.26418156613E+03  0.00000000000E+00 0.  1.
          2   -1    0    0  501    0  0.00000000000E+00 -0.00000000000E+00 -0.12317878328E+02  0.12317878328E+02  0.00000000000E+00 0. -1.
         23    2    1    2    0    0  0.99156013966E+01  0.17348412474E+02  0.19088484660E+03  0.21233009320E+03  0.90817163855E+02 0.  0.
         13    1    3    3    0    0  0.18921240085E+02  0.47140337482E+02  0.16233108778E+03  0.17009293578E+03  0.00000000000E+00 0.  1.
        -13    1    3    3    0    0 -0.90056386888E+01 -0.29791925008E+02  0.28553758827E+02  0.42237157421E+02  0.00000000000E+00 0. -1.
         22    1    1    2    0    0 -0.99156013966E+01 -0.17348412474E+02  0.60978841202E+02  0.64169351257E+02  0.00000000000E+00 0. -1.
<mgrwt>
<rscale>  0 0.63311989E+02</rscale>
<asrwt>0</asrwt>
<pdfrwt beam="1">  1        2 0.18950584E-02 0.92989482E+02</pdfrwt>
<pdfrwt beam="2">  1       -2 0.40643314E-01 0.92989482E+02</pdfrwt>
<totfact> 0.29788715E+04</totfact>
</mgrwt>
</event>
<event>
 6    1  0.1535970E-002  0.9528861E+02  0.7546771E-02  0.1376727E+00
          2   -1    0    0  501    0  0.00000000000E+00  0.00000000000E+00  0.18496012892E+03  0.18496012892E+03  0.00000000000E+00 0. -1.
         -2   -1    0    0    0  501 -0.00000000000E+00 -0.00000000000E+00 -0.47197239654E+02  0.47197239654E+02  0.00000000000E+00 0.  1.
         23    2    1    2    0    0 -0.10835600580E+02  0.18054027401E+02  0.16927829338E+03  0.19425514118E+03  0.92933100248E+02 0.  0.
         13    1    3    3    0    0 -0.20218962195E+02  0.41092581998E+02  0.16198098872E+03  0.16833076793E+03  0.00000000000E+00 0. -1.
        -13    1    3    3    0    0  0.93833616149E+01 -0.23038554597E+02  0.72973046630E+01  0.25924373251E+02  0.00000000000E+00 0.  1.
         22    1    1    2    0    0  0.10835600580E+02 -0.18054027401E+02 -0.31515404109E+02  0.37902227395E+02  0.00000000000E+00 0.  1.
<mgrwt>
<rscale>  0 0.65331869E+02</rscale>
<asrwt>0</asrwt>
<pdfrwt beam="1">  1        2 0.28455404E-01 0.95288610E+02</pdfrwt>
<pdfrwt beam="2">  1       -2 0.72611139E-02 0.95288610E+02</pdfrwt>
<totfact> 0.18403109E+04</totfact>
</mgrwt>
</event>
<event>
 6    1  0.1535970E-002  0.8527372E+02  0.7546771E-02  0.1408579E+00
         -1   -1    0    0    0  501 -0.00000000000E+00  0.00000000000E+00  0.25067281751E+02  0.25067281751E+02  0.00000000000E+00 0.  1.
          1   -1    0    0  501    0  0.00000000000E+00 -0.00000000000E+00 -0.10687140377E+03  0.10687140377E+03  0.00000000000E+00 0. -1.
         23    2    1    2    0    0  0.21965539582E+01  0.17506604294E+02 -0.72838997441E+02  0.11214779110E+03  0.83428421166E+02 0.  0.
         11    1    3    3    0    0  0.42501334108E+01  0.23292856328E+02 -0.90449718268E+02  0.93497445552E+02  0.00000000000E+00 0. -1.
        -11    1    3    3    0    0 -0.20535794526E+01 -0.57862520340E+01  0.17610720828E+02  0.18650345553E+02  0.00000000000E+00 0.  1.
         22    1    1    2    0    0 -0.21965539582E+01 -0.17506604294E+02 -0.89651245820E+01  0.19790894420E+02  0.00000000000E+00 0. -1.
<mgrwt>
<rscale>  0 0.57512183E+02</rscale>
<asrwt>0</asrwt>
<pdfrwt beam="1">  1        1 0.16441754E-01 0.85273721E+02</pdfrwt>
<pdfrwt beam="2">  1       -1 0.38565049E-02 0.85273721E+02</pdfrwt>
<totfact> 0.72434023E+04</totfact>
</mgrwt>
</event>
<event>
 6    1  0.1535970E-002  0.1051357E+03  0.7546771E-02  0.1320713E+00
         -2   -1    0    0    0  501 -0.00000000000E+00  0.00000000000E+00  0.56193580410E+02  0.56193580410E+02  0.00000000000E+00 0.  1.
          2   -1    0    0  501    0  0.00000000000E+00 -0.00000000000E+00 -0.30491651268E+03  0.30491651268E+03  0.00000000000E+00 0. -1.
         23    2    1    2    0    0  0.38716455651E+02  0.13068116064E+02 -0.28667253594E+03  0.30534350798E+03  0.96869889071E+02 0.  0.
         13    1    3    3    0    0  0.90274523576E+01  0.18169181704E+01 -0.26870466725E+03  0.26886240773E+03  0.00000000000E+00 0. -1.
        -13    1    3    3    0    0  0.29689003294E+02  0.11251197894E+02 -0.17967868695E+02  0.36481100258E+02  0.00000000000E+00 0.  1.
         22    1    1    2    0    0 -0.38716455651E+02 -0.13068116064E+02  0.37949603672E+02  0.55766585107E+02  0.00000000000E+00 0.  1.
<mgrwt>
<rscale>  0 0.83012548E+02</rscale>
<asrwt>0</asrwt>
<pdfrwt beam="1">  1        2 0.46910233E-01 0.10513570E+03</pdfrwt>
<pdfrwt beam="2">  1       -2 0.86451662E-02 0.10513570E+03</pdfrwt>
<totfact> 0.83711992E+03</totfact>
</mgrwt>
</event>
<event>
 6    1  0.1535970E-002  0.9045112E+02  0.7546771E-02  0.1417602E+00
          1   -1    0    0  501    0  0.00000000000E+00  0.00000000000E+00  0.39864411471E+03  0.39864411471E+03  0.00000000000E+00 0. -1.
         -1   -1    0    0    0  501 -0.00000000000E+00 -0.00000000000E+00 -0.67595899966E+01  0.67595899966E+01  0.00000000000E+00 0.  1.
         23    2    1    2    0    0 -0.12085530446E+02  0.43672733220E+01  0.35511399006E+03  0.36645238456E+03  0.89533631064E+02 0.  0.
         11    1    3    3    0    0  0.86664899605E+01 -0.27872278933E+02  0.28541604355E+03  0.28690467040E+03  0.00000000000E+00 0. -1.
        -11    1    3    3    0    0 -0.20752020407E+02  0.32239552255E+02  0.69697946508E+02  0.79547714160E+02  0.00000000000E+00 0.  1.
         22    1    1    2    0    0  0.12085530446E+02 -0.43672733220E+01  0.36770534660E+02  0.38951320153E+02  0.00000000000E+00 0. -1.
<mgrwt>
<rscale>  0 0.55531540E+02</rscale>
<asrwt>0</asrwt>
<pdfrwt beam="1">  1        1 0.61329845E-01 0.90451115E+02</pdfrwt>
<pdfrwt beam="2">  1       -1 0.10399372E-02 0.90451115E+02</pdfrwt>
<totfact> 0.93390515E+04</totfact>
</mgrwt>
</event>
<event>
 6    1  0.1535970E-002  0.9423820E+02  0.7546771E-02  0.1376415E+00
          4   -1    0    0  501    0  0.00000000000E+00  0.00000000000E+00  0.22185159895E+03  0.22185159895E+03  0.00000000000E+00 0. -1.
         -4   -1    0    0    0  501 -0.00000000000E+00 -0.00000000000E+00 -0.19934541043E+02  0.19934541043E+02  0.00000000000E+00 0.  1.
         23    2    1    2    0    0 -0.81296449447E+01  0.20313586891E+02  0.19837514211E+03  0.21962134568E+03  0.91662999801E+02 0.  0.
         13    1    3    3    0    0 -0.19251026721E+02 -0.18450625526E+01 -0.36304074143E+00  0.19342649359E+02  0.00000000000E+00 0.  1.
        -13    1    3    3    0    0  0.11121381776E+02  0.22158649443E+02  0.19873818285E+03  0.20027869632E+03  0.00000000000E+00 0. -1.
         22    1    1    2    0    0  0.81296449447E+01 -0.20313586891E+02  0.35419157950E+01  0.22164794310E+02  0.00000000000E+00 0.  1.
<mgrwt>
<rscale>  0 0.65415686E+02</rscale>
<asrwt>0</asrwt>
<pdfrwt beam="1">  1        4 0.34131013E-01 0.94238201E+02</pdfrwt>
<pdfrwt beam="2">  1       -4 0.30668526E-02 0.94238201E+02</pdfrwt>
<totfact> 0.64008983E+03</totfact>
</mgrwt>
</event>
<event>
 6    1  0.1535970E-002  0.9558808E+02  0.7546771E-02  0.1359457E+00
         -2   -1    0    0    0  501 -0.00000000000E+00  0.00000000000E+00  0.86293359655E+01  0.86293359655E+01  0.00000000000E+00 0.  1.
          2   -1    0    0  501    0  0.00000000000E+00 -0.00000000000E+00 -0.90300871412E+03  0.90300871412E+03  0.00000000000E+00 0. -1.
         23    2    1    2    0    0 -0.25800391244E+02  0.10315482020E+02 -0.86825031320E+03  0.87349624372E+03  0.91460439855E+02 0.  0.
         11    1    3    3    0    0 -0.22447571753E+02 -0.10378707396E+02 -0.58988171748E+02  0.63962609788E+02  0.00000000000E+00 0.  1.
        -11    1    3    3    0    0 -0.33528194916E+01  0.20694189415E+02 -0.80926214145E+03  0.80953363393E+03  0.00000000000E+00 0. -1.
         22    1    1    2    0    0  0.25800391244E+02 -0.10315482020E+02 -0.26129064955E+02  0.38141806369E+02  0.00000000000E+00 0.  1.
<mgrwt>
<rscale>  0 0.70187512E+02</rscale>
<asrwt>0</asrwt>
<pdfrwt beam="1">  1        2 0.13892446E+00 0.95588082E+02</pdfrwt>
<pdfrwt beam="2">  1       -2 0.13275897E-02 0.95588082E+02</pdfrwt>
<totfact> 0.38775478E+04</totfact>
</mgrwt>
</event>
<event>
 6    1  0.1535970E-002  0.9113731E+02  0.7546771E-02  0.1422000E+00
         -2   -1    0    0    0  501 -0.00000000000E+00  0.00000000000E+00  0.81215686306E+01  0.81215686306E+01  0.00000000000E+00 0.  1.
          2   -1    0    0  501    0  0.00000000000E+00 -0.00000000000E+00 -0.42925751543E+03  0.42925751543E+03  0.00000000000E+00 0. -1.
         23    2    1    2    0    0  0.98741304906E+01  0.63511793717E+01 -0.41338214395E+03  0.42330935091E+03  0.90377949180E+02 0.  0.
         13    1    3    3    0    0  0.16276281437E+02 -0.22731531719E+02 -0.36780534859E+03  0.36886639088E+03  0.00000000000E+00 0. -1.
        -13    1    3    3    0    0 -0.64021509467E+01  0.29082711091E+02 -0.45576795362E+02  0.54442960028E+02  0.00000000000E+00 0.  1.
         22    1    1    2    0    0 -0.98741304906E+01 -0.63511793717E+01 -0.77538028515E+01  0.14069733154E+02  0.00000000000E+00 0.  1.
<mgrwt>
<rscale>  0 0.54599978E+02</rscale>
<asrwt>0</asrwt>
<pdfrwt beam="1">  1        2 0.66039609E-01 0.91137312E+02</pdfrwt>
<pdfrwt beam="2">  1       -2 0.12494723E-02 0.91137312E+02</pdfrwt>
<totfact> 0.98441778E+04</totfact>
</mgrwt>
</event>
<event>
 6    1  0.1535970E-002  0.9053512E+02  0.7546771E-02  0.1420559E+00
          2   -1    0    0  501    0  0.00000000000E+00  0.00000000000E+00  0.72231118865E+03  0.72231118865E+03  0.00000000000E+00 0. -1.
         -2   -1    0    0    0  501 -0.00000000000E+00 -0.00000000000E+00 -0.45574415620E+01  0.45574415620E+01  0.00000000000E+00 0.  1.
         23    2    1    2    0    0  0.84858845717E+01  0.88264493884E+01  0.69634581686E+03  0.70220659619E+03  0.89703347867E+02 0.  0.
         13    1    3    3    0    0  0.40279327066E+02  0.31197577584E+02  0.43778037290E+03  0.44073503144E+03  0.00000000000E+00 0. -1.
        -13    1    3    3    0    0 -0.31793442495E+02 -0.22371128195E+02  0.25856544396E+03  0.26147156475E+03  0.00000000000E+00 0.  1.
         22    1    1    2    0    0 -0.84858845717E+01 -0.88264493884E+01  0.21407930223E+02  0.24662034024E+02  0.00000000000E+00 0. -1.
<mgrwt>
<rscale>  0 0.54902732E+02</rscale>
<asrwt>0</asrwt>
<pdfrwt beam="1">  1        2 0.11112471E+00 0.90535115E+02</pdfrwt>
<pdfrwt beam="2">  1       -2 0.70114543E-03 0.90535115E+02</pdfrwt>
<totfact> 0.12512786E+05</totfact>
</mgrwt>
</event>
<event>
 6    1  0.1535970E-002  0.1004858E+03  0.7546771E-02  0.1334834E+00
          2   -1    0    0  501    0  0.00000000000E+00  0.00000000000E+00  0.52646713866E+03  0.52646713866E+03  0.00000000000E+00 0. -1.
         -2   -1    0    0    0  501 -0.00000000000E+00 -0.00000000000E+00 -0.10587101461E+02  0.10587101461E+02  0.00000000000E+00 0.  1.
         23    2    1    2    0    0 -0.46050291695E+01  0.36183022977E+02  0.45599453514E+03  0.46693512146E+03  0.93632121230E+02 0.  0.
         13    1    3    3    0    0 -0.44860298877E+02  0.39666691886E+02  0.28646304275E+03  0.29265503195E+03  0.00000000000E+00 0. -1.
        -13    1    3    3    0    0  0.40255269707E+02 -0.34836689093E+01  0.16953149239E+03  0.17428008951E+03  0.00000000000E+00 0.  1.
         22    1    1    2    0    0  0.46050291695E+01 -0.36183022977E+02  0.59885502058E+02  0.70119118663E+02  0.00000000000E+00 0.  1.
<mgrwt>
<rscale>  0 0.77996828E+02</rscale>
<asrwt>0</asrwt>
<pdfrwt beam="1">  1        2 0.80994924E-01 0.10048578E+03</pdfrwt>
<pdfrwt beam="2">  1       -2 0.16287852E-02 0.10048578E+03</pdfrwt>
<totfact> 0.54847890E+04</totfact>
</mgrwt>
</event>
<event>
 6    1  0.1535970E-002  0.9399653E+02  0.7546771E-02  0.1367795E+00
         -2   -1    0    0    0  501 -0.00000000000E+00  0.00000000000E+00  0.31466366409E+02  0.31466366409E+02  0.00000000000E+00 0.  1.
          2   -1    0    0  501    0  0.00000000000E+00 -0.00000000000E+00 -0.12135326476E+03  0.12135326476E+03  0.00000000000E+00 0. -1.
         23    2    1    2    0    0 -0.13532323910E+02 -0.21518500414E+02 -0.85417522913E+02  0.12700984683E+03  0.90494078932E+02 0.  0.
         11    1    3    3    0    0 -0.16823361844E+02  0.52624454653E+01 -0.96311453709E+02  0.97911260596E+02  0.00000000000E+00 0. -1.
        -11    1    3    3    0    0  0.32910379341E+01 -0.26780945879E+02  0.10893930796E+02  0.29098586238E+02  0.00000000000E+00 0.  1.
         22    1    1    2    0    0  0.13532323910E+02  0.21518500414E+02 -0.44693754352E+01  0.25809784332E+02  0.00000000000E+00 0.  1.
<mgrwt>
<rscale>  0 0.67784000E+02</rscale>
<asrwt>0</asrwt>
<pdfrwt beam="1">  1        2 0.18669733E-01 0.93996532E+02</pdfrwt>
<pdfrwt beam="2">  1       -2 0.48409794E-02 0.93996532E+02</pdfrwt>
<totfact> 0.53703244E+04</totfact>
</mgrwt>
</event>
<event>
 6    1  0.1535970E-002  0.9376387E+02  0.7546771E-02  0.1401251E+00
         -2   -1    0    0    0  501 -0.00000000000E+00  0.00000000000E+00  0.11814228325E+02  0.11814228325E+02  0.00000000000E+00 0. -1.
          2   -1    0    0  501    0  0.00000000000E+00 -0.00000000000E+00 -0.30444479618E+03  0.30444479618E+03  0.00000000000E+00 0.  1.
         23    2    1    2    0    0  0.29263921643E+00 -0.14889609679E+02 -0.28392930292E+03  0.29901089053E+03  0.92573632779E+02 0.  0.
         11    1    3    3    0    0  0.16240718705E+02  0.27760677956E+02 -0.42353472663E+02  0.53181132287E+02  0.00000000000E+00 0. -1.
        -11    1    3    3    0    0 -0.15948079488E+02 -0.42650287635E+02 -0.24157583025E+03  0.24582975824E+03  0.00000000000E+00 0.  1.
         22    1    1    2    0    0 -0.29263921643E+00  0.14889609679E+02 -0.87012649360E+01  0.17248133974E+02  0.00000000000E+00 0. -1.
<mgrwt>
<rscale>  0 0.59192740E+02</rscale>
<asrwt>0</asrwt>
<pdfrwt beam="1">  1        2 0.46837657E-01 0.93763872E+02</pdfrwt>
<pdfrwt beam="2">  1       -2 0.18175737E-02 0.93763872E+02</pdfrwt>
<totfact> 0.83034416E+04</totfact>
</mgrwt>
</event>
<event>
 6    1  0.1535970E-002  0.9596727E+02  0.7546771E-02  0.1373450E+00
         -2   -1    0    0    0  501 -0.00000000000E+00  0.00000000000E+00  0.27092031376E+02  0.27092031376E+02  0.00000000000E+00 0.  1.
          2   -1    0    0  501    0  0.00000000000E+00 -0.00000000000E+00 -0.25401159652E+03  0.25401159652E+03  0.00000000000E+00 0. -1.
         23    2    1    2    0    0 -0.17792996565E+02 -0.12513768262E+02 -0.23805174475E+03  0.25666778239E+03  0.93469418602E+02 0.  0.
         11    1    3    3    0    0  0.90538526315E+01 -0.17045488743E+02 -0.24012000078E+01  0.19449593709E+02  0.00000000000E+00 0.  1.
        -11    1    3    3    0    0 -0.26846849197E+02  0.45317204810E+01 -0.23565054474E+03  0.23721818868E+03  0.00000000000E+00 0. -1.
         22    1    1    2    0    0  0.17792996565E+02  0.12513768262E+02  0.11132179607E+02  0.24435845508E+02  0.00000000000E+00 0. -1.
<mgrwt>
<rscale>  0 0.66217266E+02</rscale>
<asrwt>0</asrwt>
<pdfrwt beam="1">  1        2 0.39078709E-01 0.95967272E+02</pdfrwt>
<pdfrwt beam="2">  1       -2 0.41680046E-02 0.95967272E+02</pdfrwt>
<totfact> 0.30158851E+04</totfact>
</mgrwt>
</event>
<event>
 6    1  0.1535970E-002  0.9415411E+02  0.7546771E-02  0.1397315E+00
         -2   -1    0    0    0  501 -0.00000000000E+00  0.00000000000E+00  0.42002353030E+01  0.42002353030E+01  0.00000000000E+00 0. -1.
          2   -1    0    0  501    0  0.00000000000E+00 -0.00000000000E+00 -0.81969260005E+03  0.81969260005E+03  0.00000000000E+00 0.  1.
         23    2    1    2    0    0 -0.51331015614E+01  0.14789573854E+02 -0.77097733762E+03  0.77670525365E+03  0.92843501146E+02 0.  0.
         13    1    3    3    0    0 -0.92745971774E+01  0.28369892775E+02 -0.75392714211E+03  0.75451772980E+03  0.00000000000E+00 0.  1.
        -13    1    3    3    0    0  0.41414956159E+01 -0.13580318921E+02 -0.17050195505E+02  0.22187523852E+02  0.00000000000E+00 0. -1.
         22    1    1    2    0    0  0.51331015614E+01 -0.14789573854E+02 -0.44515027132E+02  0.47187581703E+02  0.00000000000E+00 0.  1.
<mgrwt>
<rscale>  0 0.60123325E+02</rscale>
<asrwt>0</asrwt>
<pdfrwt beam="1">  1        2 0.12610656E+00 0.94154107E+02</pdfrwt>
<pdfrwt beam="2">  1       -2 0.64619000E-03 0.94154107E+02</pdfrwt>
<totfact> 0.12117906E+05</totfact>
</mgrwt>
</event>
<event>
 6    1  0.1535970E-002  0.8171772E+02  0.7546771E-02  0.1441472E+00
         -2   -1    0    0    0  501 -0.00000000000E+00  0.00000000000E+00  0.77523634510E+02  0.77523634510E+02  0.00000000000E+00 0.  1.
          2   -1    0    0  501    0  0.00000000000E+00 -0.00000000000E+00 -0.29576816547E+02  0.29576816547E+02  0.00000000000E+00 0. -1.
         23    2    1    2    0    0  0.88065480553E+01 -0.83441043528E+01  0.48372024085E+02  0.94961251481E+02  0.80812172367E+02 0.  0.
         11    1    3    3    0    0 -0.22179478014E+02  0.22268249041E+02  0.22308111212E+01  0.31508422343E+02  0.00000000000E+00 0. -1.
        -11    1    3    3    0    0  0.30986026069E+02 -0.30612353394E+02  0.46141212963E+02  0.63452829138E+02  0.00000000000E+00 0.  1.
         22    1    1    2    0    0 -0.88065480553E+01  0.83441043528E+01 -0.42520612151E+00  0.12139199576E+02  0.00000000000E+00 0.  1.
<mgrwt>
<rscale>  0 0.50724534E+02</rscale>
<asrwt>0</asrwt>
<pdfrwt beam="1">  1        2 0.45502795E-02 0.81717725E+02</pdfrwt>
<pdfrwt beam="2">  1       -2 0.11926713E-01 0.81717725E+02</pdfrwt>
<totfact> 0.74205048E+04</totfact>
</mgrwt>
</event>
<event>
 6    1  0.1535970E-002  0.9975292E+02  0.7546771E-02  0.1327657E+00
         -1   -1    0    0    0  501 -0.00000000000E+00  0.00000000000E+00  0.30505590936E+02  0.30505590936E+02  0.00000000000E+00 0.  1.
          1   -1    0    0  501    0  0.00000000000E+00 -0.00000000000E+00 -0.17756140176E+03  0.17756140176E+03  0.00000000000E+00 0. -1.
         23    2    1    2    0    0 -0.33779156515E+02 -0.25448950735E+02 -0.12633937819E+03  0.16097292630E+03  0.90343588664E+02 0.  0.
         13    1    3    3    0    0 -0.64305692776E+02 -0.88917570565E+01 -0.78702841097E+02  0.10202167742E+03  0.00000000000E+00 0.  1.
        -13    1    3    3    0    0  0.30526536261E+02 -0.16557193678E+02 -0.47636537088E+02  0.58951248879E+02  0.00000000000E+00 0. -1.
         22    1    1    2    0    0  0.33779156515E+02  0.25448950735E+02 -0.20716432635E+02  0.47094066394E+02  0.00000000000E+00 0. -1.
<mgrwt>
<rscale>  0 0.80493498E+02</rscale>
<asrwt>0</asrwt>
<pdfrwt beam="1">  1        1 0.27317138E-01 0.99752917E+02</pdfrwt>
<pdfrwt beam="2">  1       -1 0.46931679E-02 0.99752917E+02</pdfrwt>
<totfact> 0.29436024E+04</totfact>
</mgrwt>
</event>
<event>
 6    1  0.1535970E-002  0.9281326E+02  0.7546771E-02  0.1400926E+00
          3   -1    0    0  501    0  0.00000000000E+00  0.00000000000E+00  0.13871486317E+02  0.13871486317E+02  0.00000000000E+00 0. -1.
         -3   -1    0    0    0  501 -0.00000000000E+00 -0.00000000000E+00 -0.21162709634E+03  0.21162709634E+03  0.00000000000E+00 0.  1.
         23    2    1    2    0    0 -0.31856143242E+01 -0.15101602535E+02 -0.16577704415E+03  0.18999034117E+03  0.91521007618E+02 0.  0.
         11    1    3    3    0    0 -0.10222492018E+02  0.36776206426E+02 -0.91259958913E+02  0.98921023058E+02  0.00000000000E+00 0. -1.
        -11    1    3    3    0    0  0.70368776937E+01 -0.51877808960E+02 -0.74517085235E+02  0.91069318116E+02  0.00000000000E+00 0.  1.
         22    1    1    2    0    0  0.31856143242E+01  0.15101602535E+02 -0.31978565878E+02  0.35508241485E+02  0.00000000000E+00 0.  1.
<mgrwt>
<rscale>  0 0.59268882E+02</rscale>
<asrwt>0</asrwt>
<pdfrwt beam="1">  1        3 0.21340749E-02 0.92813261E+02</pdfrwt>
<pdfrwt beam="2">  1       -3 0.32558014E-01 0.92813261E+02</pdfrwt>
<totfact> 0.16383020E+04</totfact>
</mgrwt>
</event>
<event>
 6    1  0.1535970E-002  0.9039809E+02  0.7546771E-02  0.1403097E+00
         -2   -1    0    0    0  501 -0.00000000000E+00  0.00000000000E+00  0.84474333100E+01  0.84474333100E+01  0.00000000000E+00 0.  1.
          2   -1    0    0  501    0  0.00000000000E+00 -0.00000000000E+00 -0.35914835109E+03  0.35914835109E+03  0.00000000000E+00 0. -1.
         23    2    1    2    0    0 -0.15304868551E+02  0.51289606104E+01 -0.32418988014E+03  0.33655741532E+03  0.88945321322E+02 0.  0.
         13    1    3    3    0    0 -0.16512988804E+02  0.21909522623E+02 -0.31712613034E+03  0.31831067925E+03  0.00000000000E+00 0. -1.
        -13    1    3    3    0    0  0.12081202537E+01 -0.16780562013E+02 -0.70637497993E+01  0.18246736071E+02  0.00000000000E+00 0.  1.
         22    1    1    2    0    0  0.15304868551E+02 -0.51289606104E+01 -0.26511037645E+02  0.31038369083E+02  0.00000000000E+00 0. -1.
<mgrwt>
<rscale>  0 0.58763120E+02</rscale>
<asrwt>0</asrwt>
<pdfrwt beam="1">  1        2 0.55253602E-01 0.90398094E+02</pdfrwt>
<pdfrwt beam="2">  1       -2 0.12996049E-02 0.90398094E+02</pdfrwt>
<totfact> 0.11216397E+05</totfact>
</mgrwt>
</event>
<event>
 6    1  0.1535970E-002  0.9789492E+02  0.7546771E-02  0.1367237E+00
         -2   -1    0    0    0  501 -0.00000000000E+00  0.00000000000E+00  0.11596608814E+03  0.11596608814E+03  0.00000000000E+00 0.  1.
          2   -1    0    0  501    0  0.00000000000E+00 -0.00000000000E+00 -0.31359188878E+02  0.31359188878E+02  0.00000000000E+00 0. -1.
         23    2    1    2    0    0  0.18192914473E+02 -0.13595822178E+02  0.68981089204E+02  0.11975728004E+03  0.95223877973E+02 0.  0.
         13    1    3    3    0    0 -0.69600537631E+01  0.17331364870E+02 -0.16828470750E+02  0.25139928091E+02  0.00000000000E+00 0. -1.
        -13    1    3    3    0    0  0.25152968237E+02 -0.30927187047E+02  0.85809559954E+02  0.94617351946E+02  0.00000000000E+00 0.  1.
         22    1    1    2    0    0 -0.18192914473E+02  0.13595822178E+02  0.15625810062E+02  0.27567996986E+02  0.00000000000E+00 0. -1.
<mgrwt>
<rscale>  0 0.67941212E+02</rscale>
<asrwt>0</asrwt>
<pdfrwt beam="1">  1        2 0.48244907E-02 0.97894920E+02</pdfrwt>
<pdfrwt beam="2">  1       -2 0.17840936E-01 0.97894920E+02</pdfrwt>
<totfact> 0.36895196E+04</totfact>
</mgrwt>
</event>
<event>
 6    1  0.1535970E-002  0.9154942E+02  0.7546771E-02  0.1394526E+00
         -2   -1    0    0    0  501 -0.00000000000E+00  0.00000000000E+00  0.11989828342E+03  0.11989828342E+03  0.00000000000E+00 0. -1.
          2   -1    0    0  501    0  0.00000000000E+00 -0.00000000000E+00 -0.24936004535E+02  0.24936004535E+02  0.00000000000E+00 0.  1.
         23    2    1    2    0    0  0.49407514577E+01 -0.17103899636E+02  0.78977400502E+02  0.12090792708E+03  0.89801685025E+02 0.  0.
         11    1    3    3    0    0  0.15850130143E+02  0.30694039355E+02  0.58156930172E+02  0.67643027759E+02  0.00000000000E+00 0.  1.
        -11    1    3    3    0    0 -0.10909378685E+02 -0.47797938990E+02  0.20820470331E+02  0.53264899322E+02  0.00000000000E+00 0. -1.
         22    1    1    2    0    0 -0.49407514577E+01  0.17103899636E+02  0.15984878384E+02  0.23926360874E+02  0.00000000000E+00 0. -1.
<mgrwt>
<rscale>  0 0.60794783E+02</rscale>
<asrwt>0</asrwt>
<pdfrwt beam="1">  1        2 0.38363084E-02 0.91549424E+02</pdfrwt>
<pdfrwt beam="2">  1       -2 0.18445889E-01 0.91549424E+02</pdfrwt>
<totfact> 0.46642540E+04</totfact>
</mgrwt>
</event>
<event>
 6    1  0.1535970E-002  0.8666708E+02  0.7546771E-02  0.1405321E+00
          1   -1    0    0  501    0  0.00000000000E+00  0.00000000000E+00  0.41005429542E+03  0.41005429542E+03  0.00000000000E+00 0. -1.
         -1   -1    0    0    0  501 -0.00000000000E+00 -0.00000000000E+00 -0.67643187401E+01  0.67643187401E+01  0.00000000000E+00 0.  1.
         23    2    1    2    0    0 -0.13108772064E+02 -0.11873911303E+02  0.35388987885E+03  0.36434767611E+03  0.84843108482E+02 0.  0.
         11    1    3    3    0    0  0.46176711520E+01  0.33385681628E+02  0.20422749689E+03  0.20698984784E+03  0.00000000000E+00 0. -1.
        -11    1    3    3    0    0 -0.17726443216E+02 -0.45259592932E+02  0.14966238196E+03  0.15735782827E+03  0.00000000000E+00 0.  1.
         22    1    1    2    0    0  0.13108772064E+02  0.11873911303E+02  0.49400097832E+02  0.52470938056E+02  0.00000000000E+00 0. -1.
<mgrwt>
<rscale>  0 0.58251098E+02</rscale>
<asrwt>0</asrwt>
<pdfrwt beam="1">  1        1 0.63085257E-01 0.86667080E+02</pdfrwt>
<pdfrwt beam="2">  1       -1 0.10406647E-02 0.86667080E+02</pdfrwt>
<totfact> 0.89510202E+04</totfact>
</mgrwt>
</event>
<event>
 6    1  0.1535970E-002  0.1028674E+03  0.7546771E-02  0.1319324E+00
          2   -1    0    0  501    0  0.00000000000E+00  0.00000000000E+00  0.16937268902E+04  0.16937268902E+04  0.00000000000E+00 0. -1.
         -2   -1    0    0    0  501 -0.00000000000E+00 -0.00000000000E+00 -0.50359095878E+01  0.50359095878E+01  0.00000000000E+00 0.  1.
         23    2    1    2    0    0  0.10658187208E+02 -0.43433345791E+02  0.15414814173E+04  0.15449099220E+04  0.92637220642E+02 0.  0.
         13    1    3    3    0    0 -0.23096183399E+02  0.31441616841E+01  0.10198746434E+04  0.10201409744E+04  0.00000000000E+00 0. -1.
        -13    1    3    3    0    0  0.33754370606E+02 -0.46577507476E+02  0.52160677392E+03  0.52476894758E+03  0.00000000000E+00 0.  1.
         22    1    1    2    0    0 -0.10658187208E+02  0.43433345791E+02  0.14720956330E+03  0.15385287780E+03  0.00000000000E+00 0.  1.
<mgrwt>
<rscale>  0 0.83529249E+02</rscale>
<asrwt>0</asrwt>
<pdfrwt beam="1">  1        2 0.26057291E+00 0.10286743E+03</pdfrwt>
<pdfrwt beam="2">  1       -2 0.77475667E-03 0.10286743E+03</pdfrwt>
<totfact> 0.31282183E+04</totfact>
</mgrwt>
</event>
<event>
 6    1  0.1535970E-002  0.9449467E+02  0.7546771E-02  0.1393129E+00
          2   -1    0    0  501    0  0.00000000000E+00  0.00000000000E+00  0.75601248923E+02  0.75601248923E+02  0.00000000000E+00 0. -1.
         -2   -1    0    0    0  501 -0.00000000000E+00 -0.00000000000E+00 -0.45278143537E+02  0.45278143537E+02  0.00000000000E+00 0.  1.
         23    2    1    2    0    0  0.11274550499E+02 -0.12123175219E+02  0.38954271766E+02  0.10220899077E+03  0.93033088943E+02 0.  0.
         11    1    3    3    0    0  0.22681925402E+02 -0.46028934009E+02  0.28649767655E+01  0.51393974334E+02  0.00000000000E+00 0. -1.
        -11    1    3    3    0    0 -0.11407374904E+02  0.33905758790E+02  0.36089295000E+02  0.50815016432E+02  0.00000000000E+00 0.  1.
         22    1    1    2    0    0 -0.11274550499E+02  0.12123175219E+02 -0.86311663804E+01  0.18670401694E+02  0.00000000000E+00 0.  1.
<mgrwt>
<rscale>  0 0.61135224E+02</rscale>
<asrwt>0</asrwt>
<pdfrwt beam="1">  1        2 0.11630961E-01 0.94494669E+02</pdfrwt>
<pdfrwt beam="2">  1       -2 0.69658682E-02 0.94494669E+02</pdfrwt>
<totfact> 0.53928351E+04</totfact>
</mgrwt>
</event>
<event>
 6    1  0.1535970E-002  0.9124512E+02  0.7546771E-02  0.1381020E+00
          3   -1    0    0  501    0  0.00000000000E+00  0.00000000000E+00  0.92056191696E+02  0.92056191696E+02  0.00000000000E+00 0. -1.
         -3   -1    0    0    0  501 -0.00000000000E+00 -0.00000000000E+00 -0.38420031861E+02  0.38420031861E+02  0.00000000000E+00 0.  1.
         23    2    1    2    0    0 -0.70937518830E+01 -0.21201731091E+02  0.57409334931E+02  0.10780307716E+03  0.88463760896E+02 0.  0.
         11    1    3    3    0    0 -0.12104565554E+02  0.15269650193E+02  0.66987115001E+02  0.69763574309E+02  0.00000000000E+00 0. -1.
        -11    1    3    3    0    0  0.50108136712E+01 -0.36471381284E+02 -0.95777800704E+01  0.38039502855E+02  0.00000000000E+00 0.  1.
         22    1    1    2    0    0  0.70937518830E+01  0.21201731091E+02 -0.37731750958E+01  0.22673146392E+02  0.00000000000E+00 0. -1.
<mgrwt>
<rscale>  0 0.64196379E+02</rscale>
<asrwt>0</asrwt>
<pdfrwt beam="1">  1        3 0.14162491E-01 0.91245119E+02</pdfrwt>
<pdfrwt beam="2">  1       -3 0.59107742E-02 0.91245119E+02</pdfrwt>
<totfact> 0.14669384E+04</totfact>
</mgrwt>
</event>
<event>
 6    1  0.1535970E-002  0.9593651E+02  0.7546771E-02  0.1377363E+00
         -2   -1    0    0    0  501 -0.00000000000E+00  0.00000000000E+00  0.19711841822E+03  0.19711841822E+03  0.00000000000E+00 0.  1.
          2   -1    0    0  501    0  0.00000000000E+00 -0.00000000000E+00 -0.20907090506E+02  0.20907090506E+02  0.00000000000E+00 0. -1.
         23    2    1    2    0    0 -0.34040462991E+01 -0.20133067589E+02  0.97798209913E+02  0.13699745812E+03  0.93738389827E+02 0.  0.
         13    1    3    3    0    0 -0.19233732864E+02 -0.26967502421E+01 -0.13229556568E+02  0.23499576778E+02  0.00000000000E+00 0. -1.
        -13    1    3    3    0    0  0.15829686565E+02 -0.17436317347E+02  0.11102776648E+03  0.11349788134E+03  0.00000000000E+00 0.  1.
         22    1    1    2    0    0  0.34040462991E+01  0.20133067589E+02  0.78413117800E+02  0.81028050605E+02  0.00000000000E+00 0. -1.
<mgrwt>
<rscale>  0 0.65162173E+02</rscale>
<asrwt>0</asrwt>
<pdfrwt beam="1">  1        2 0.32164756E-02 0.95936509E+02</pdfrwt>
<pdfrwt beam="2">  1       -2 0.30325909E-01 0.95936509E+02</pdfrwt>
<totfact> 0.25191794E+04</totfact>
</mgrwt>
</event>
<event>
 6    1  0.1535970E-002  0.1109000E+03  0.7546771E-02  0.1287295E+00
          2   -1    0    0  501    0  0.00000000000E+00  0.00000000000E+00  0.45477249747E+03  0.45477249747E+03  0.00000000000E+00 0. -1.
         -2   -1    0    0    0  501 -0.00000000000E+00 -0.00000000000E+00 -0.16951766362E+02  0.16951766362E+02  0.00000000000E+00 0.  1.
         23    2    1    2    0    0  0.53418340477E+01  0.64002410369E+02  0.26015318414E+03  0.28280470167E+03  0.90410045578E+02 0.  0.
         13    1    3    3    0    0 -0.39546858929E+02  0.14918076106E+02  0.12901553198E+03  0.13576269937E+03  0.00000000000E+00 0. -1.
        -13    1    3    3    0    0  0.44888692977E+02  0.49084334263E+02  0.13113765216E+03  0.14704200230E+03  0.00000000000E+00 0.  1.
         22    1    1    2    0    0 -0.53418340477E+01 -0.64002410369E+02  0.17766754697E+03  0.18891956217E+03  0.00000000000E+00 0. -1.
<mgrwt>
<rscale>  0 0.96744154E+02</rscale>
<asrwt>0</asrwt>
<pdfrwt beam="1">  1        2 0.69964991E-01 0.11090005E+03</pdfrwt>
<pdfrwt beam="2">  1       -2 0.26079644E-02 0.11090005E+03</pdfrwt>
<totfact> 0.32953041E+04</totfact>
</mgrwt>
</event>
<event>
 6    1  0.1535970E-002  0.9029485E+02  0.7546771E-02  0.1431507E+00
          2   -1    0    0  501    0  0.00000000000E+00  0.00000000000E+00  0.18074507918E+04  0.18074507918E+04  0.00000000000E+00 0.  1.
         -2   -1    0    0    0  501 -0.00000000000E+00 -0.00000000000E+00 -0.71743167558E+01  0.71743167558E+01  0.00000000000E+00 0. -1.
         23    2    1    2    0    0  0.86594787872E+01 -0.58399013921E+01  0.18018077202E+04  0.18040687961E+04  0.89688737800E+02 0.  0.
         13    1    3    3    0    0 -0.45110258173E+01  0.76933682058E+01  0.17232547313E+04  0.17232778088E+04  0.00000000000E+00 0.  1.
        -13    1    3    3    0    0  0.13170504604E+02 -0.13533269598E+02  0.78552988868E+02  0.80790987354E+02  0.00000000000E+00 0. -1.
         22    1    1    2    0    0 -0.86594787872E+01  0.58399013921E+01 -0.15312450943E+01  0.10556312456E+02  0.00000000000E+00 0. -1.
<mgrwt>
<rscale>  0 0.52658790E+02</rscale>
<asrwt>0</asrwt>
<pdfrwt beam="1">  1        2 0.27806899E+00 0.90294854E+02</pdfrwt>
<pdfrwt beam="2">  1       -2 0.11037425E-02 0.90294854E+02</pdfrwt>
<totfact> 0.16466777E+04</totfact>
</mgrwt>
</event>
<event>
 6    1  0.1535970E-002  0.9261746E+02  0.7546771E-02  0.1398918E+00
         -1   -1    0    0    0  501 -0.00000000000E+00  0.00000000000E+00  0.72193093998E+02  0.72193093998E+02  0.00000000000E+00 0.  1.
          1   -1    0    0  501    0  0.00000000000E+00 -0.00000000000E+00 -0.42314499168E+02  0.42314499168E+02  0.00000000000E+00 0. -1.
         23    2    1    2    0    0 -0.15103706974E+01 -0.15962564619E+02  0.32713419455E+02  0.98225058980E+02  0.91219020551E+02 0.  0.
         13    1    3    3    0    0  0.21841255116E+01 -0.52940608563E+02  0.79764368678E+01  0.53582664962E+02  0.00000000000E+00 0.  1.
        -13    1    3    3    0    0 -0.36944962090E+01  0.36978043944E+02  0.24736982587E+02  0.44642394019E+02  0.00000000000E+00 0. -1.
         22    1    1    2    0    0  0.15103706974E+01  0.15962564619E+02 -0.28348246250E+01  0.16282534186E+02  0.00000000000E+00 0.  1.
<mgrwt>
<rscale>  0 0.59741921E+02</rscale>
<asrwt>0</asrwt>
<pdfrwt beam="1">  1        1 0.65099229E-02 0.92617463E+02</pdfrwt>
<pdfrwt beam="2">  1       -1 0.11106630E-01 0.92617463E+02</pdfrwt>
<totfact> 0.51364477E+04</totfact>
</mgrwt>
</event>
<event>
 6    1  0.1535970E-002  0.9617681E+02  0.7546771E-02  0.1373002E+00
          2   -1    0    0  501    0  0.00000000000E+00  0.00000000000E+00  0.99140766892E+03  0.99140766892E+03  0.00000000000E+00 0. -1.
         -2   -1    0    0    0  501 -0.00000000000E+00 -0.00000000000E+00 -0.39931740175E+01  0.39931740175E+01  0.00000000000E+00 0.  1.
         23    2    1    2    0    0 -0.17786147850E+02 -0.12555085543E+02  0.90721894953E+03  0.91230269177E+03  0.93680317106E+02 0.  0.
         11    1    3    3    0    0 -0.20411314976E+02 -0.42273950794E+02  0.78836534608E+03  0.78976175370E+03  0.00000000000E+00 0. -1.
        -11    1    3    3    0    0  0.26251671261E+01  0.29718865250E+02  0.11885360344E+03  0.12254093808E+03  0.00000000000E+00 0.  1.
         22    1    1    2    0    0  0.17786147850E+02  0.12555085543E+02  0.80195545376E+02  0.83098151162E+02  0.00000000000E+00 0.  1.
<mgrwt>
<rscale>  0 0.66339541E+02</rscale>
<asrwt>0</asrwt>
<pdfrwt beam="1">  1        2 0.15252406E+00 0.96176811E+02</pdfrwt>
<pdfrwt beam="2">  1       -2 0.61433525E-03 0.96176811E+02</pdfrwt>
<totfact> 0.10212870E+05</totfact>
</mgrwt>
</event>
<event>
 6    1  0.1535970E-002  0.8529614E+02  0.7546771E-02  0.1442463E+00
         -2   -1    0    0    0  501 -0.00000000000E+00  0.00000000000E+00  0.52163801018E+01  0.52163801018E+01  0.00000000000E+00 0.  1.
          2   -1    0    0  501    0  0.00000000000E+00 -0.00000000000E+00 -0.12225276935E+04  0.12225276935E+04  0.00000000000E+00 0. -1.
         23    2    1    2    0    0 -0.69297084682E+01  0.79040203957E+01 -0.12136041230E+04  0.12165978788E+04  0.84645951458E+02 0.  0.
         11    1    3    3    0    0 -0.76937662086E+01  0.32223925049E+02 -0.10961197613E+04  0.10966203110E+04  0.00000000000E+00 0. -1.
        -11    1    3    3    0    0  0.76405774045E+00 -0.24319904653E+02 -0.11748436163E+03  0.11997756780E+03  0.00000000000E+00 0.  1.
         22    1    1    2    0    0  0.69297084682E+01 -0.79040203957E+01 -0.37071904930E+01  0.11146194831E+02  0.00000000000E+00 0.  1.
<mgrwt>
<rscale>  0 0.50537594E+02</rscale>
<asrwt>0</asrwt>
<pdfrwt beam="1">  1        2 0.18808110E+00 0.85296140E+02</pdfrwt>
<pdfrwt beam="2">  1       -2 0.80252039E-03 0.85296140E+02</pdfrwt>
<totfact> 0.51275889E+04</totfact>
</mgrwt>
</event>
<event>
 6    1  0.1535970E-002  0.1066365E+03  0.7546771E-02  0.1304704E+00
          2   -1    0    0  501    0  0.00000000000E+00  0.00000000000E+00  0.39382208028E+03  0.39382208028E+03  0.00000000000E+00 0.  1.
         -2   -1    0    0    0  501 -0.00000000000E+00 -0.00000000000E+00 -0.19136956418E+02  0.19136956418E+02  0.00000000000E+00 0. -1.
         23    2    1    2    0    0 -0.51441738831E+02  0.94407585073E+01  0.31995414551E+03  0.33725659020E+03  0.92929930519E+02 0.  0.
         13    1    3    3    0    0 -0.10730894801E+02  0.10876639062E+02  0.57497716919E+00  0.15289996052E+02  0.00000000000E+00 0. -1.
        -13    1    3    3    0    0 -0.40710844029E+02 -0.14358805544E+01  0.31937916834E+03  0.32196659415E+03  0.00000000000E+00 0.  1.
         22    1    1    2    0    0  0.51441738831E+02 -0.94407585073E+01  0.54730978349E+02  0.75702446501E+02  0.00000000000E+00 0. -1.
<mgrwt>
<rscale>  0 0.89239425E+02</rscale>
<asrwt>0</asrwt>
<pdfrwt beam="1">  1        2 0.60588006E-01 0.10663654E+03</pdfrwt>
<pdfrwt beam="2">  1       -2 0.29441474E-02 0.10663654E+03</pdfrwt>
<totfact> 0.32055952E+04</totfact>
</mgrwt>
</event>
<event>
 6    1  0.1535970E-002  0.1043753E+03  0.7546771E-02  0.1308461E+00
         -1   -1    0    0    0  501 -0.00000000000E+00  0.00000000000E+00  0.96159427813E+01  0.96159427813E+01  0.00000000000E+00 0.  1.
          1   -1    0    0  501    0  0.00000000000E+00 -0.00000000000E+00 -0.75828345640E+03  0.75828345640E+03  0.00000000000E+00 0. -1.
         23    2    1    2    0    0 -0.46963955207E+02 -0.22508268894E+02 -0.62588811694E+03  0.63453142887E+03  0.90454209598E+02 0.  0.
         11    1    3    3    0    0 -0.91168754372E+01 -0.36739290017E+02 -0.51690627610E+03  0.51829045054E+03  0.00000000000E+00 0. -1.
        -11    1    3    3    0    0 -0.37847079770E+02  0.14231021123E+02 -0.10898184084E+03  0.11624097832E+03  0.00000000000E+00 0.  1.
         22    1    1    2    0    0  0.46963955207E+02  0.22508268894E+02 -0.12277939668E+03  0.13336797031E+03  0.00000000000E+00 0.  1.
<mgrwt>
<rscale>  0 0.87723139E+02</rscale>
<asrwt>0</asrwt>
<pdfrwt beam="1">  1        1 0.11665900E+00 0.10437528E+03</pdfrwt>
<pdfrwt beam="2">  1       -1 0.14793757E-02 0.10437528E+03</pdfrwt>
<totfact> 0.24581505E+04</totfact>
</mgrwt>
</event>
<event>
 6    1  0.1535970E-002  0.9011107E+02  0.7546771E-02  0.1410450E+00
          1   -1    0    0  501    0  0.00000000000E+00  0.00000000000E+00  0.14857915222E+04  0.14857915222E+04  0.00000000000E+00 0. -1.
         -1   -1    0    0    0  501 -0.00000000000E+00 -0.00000000000E+00 -0.24575070744E+01  0.24575070744E+01  0.00000000000E+00 0.  1.
         23    2    1    2    0    0  0.79919473332E+01 -0.12124471717E+02  0.14338379101E+04  0.14366666830E+04  0.88933298064E+02 0.  0.
         11    1    3    3    0    0  0.21545869014E+02  0.26182028886E+02  0.27015760302E+03  0.27227716316E+03  0.00000000000E+00 0.  1.
        -11    1    3    3    0    0 -0.13553921680E+02 -0.38306500603E+02  0.11636803071E+04  0.11643895198E+04  0.00000000000E+00 0. -1.
         22    1    1    2    0    0 -0.79919473332E+01  0.12124471717E+02  0.49496105008E+02  0.51582346278E+02  0.00000000000E+00 0.  1.
<mgrwt>
<rscale>  0 0.57093479E+02</rscale>
<asrwt>0</asrwt>
<pdfrwt beam="1">  1        1 0.22858259E+00 0.90111073E+02</pdfrwt>
<pdfrwt beam="2">  1       -1 0.37807920E-03 0.90111073E+02</pdfrwt>
<totfact> 0.50805378E+04</totfact>
</mgrwt>
</event>
<event>
 6    1  0.1535970E-002  0.9226577E+02  0.7546771E-02  0.1395165E+00
         -4   -1    0    0    0  501 -0.00000000000E+00  0.00000000000E+00  0.18233191175E+03  0.18233191175E+03  0.00000000000E+00 0.  1.
          4   -1    0    0  501    0  0.00000000000E+00 -0.00000000000E+00 -0.16437229152E+02  0.16437229152E+02  0.00000000000E+00 0. -1.
         23    2    1    2    0    0  0.16825974402E+02 -0.36411514193E+01  0.14073160576E+03  0.16828058840E+03  0.90645464152E+02 0.  0.
         13    1    3    3    0    0 -0.20726850818E+02 -0.26841507370E+02  0.19176955770E+02  0.38959267130E+02  0.00000000000E+00 0. -1.
        -13    1    3    3    0    0  0.37552825220E+02  0.23200355951E+02  0.12155465000E+03  0.12932132126E+03  0.00000000000E+00 0.  1.
         22    1    1    2    0    0 -0.16825974402E+02  0.36411514193E+01  0.25163076829E+02  0.30488552503E+02  0.00000000000E+00 0. -1.
<mgrwt>
<rscale>  0 0.60640110E+02</rscale>
<asrwt>0</asrwt>
<pdfrwt beam="1">  1        4 0.25288046E-02 0.92265766E+02</pdfrwt>
<pdfrwt beam="2">  1       -4 0.28051062E-01 0.92265766E+02</pdfrwt>
<totfact> 0.12407874E+04</totfact>
</mgrwt>
</event>
<event>
 6    1  0.1535970E-002  0.9554521E+02  0.7546771E-02  0.1393297E+00
          1   -1    0    0  501    0  0.00000000000E+00  0.00000000000E+00  0.41936823257E+03  0.41936823257E+03  0.00000000000E+00 0. -1.
         -1   -1    0    0    0  501 -0.00000000000E+00 -0.00000000000E+00 -0.11811805060E+02  0.11811805060E+02  0.00000000000E+00 0.  1.
         23    2    1    2    0    0 -0.52442941629E+01 -0.15086782443E+02  0.40355881673E+03  0.41471508948E+03  0.94200707278E+02 0.  0.
         13    1    3    3    0    0 -0.10820156251E+02 -0.29185007979E+02  0.39263884817E+02  0.50104821354E+02  0.00000000000E+00 0.  1.
        -13    1    3    3    0    0  0.55758620884E+01  0.14098225536E+02  0.36429493191E+03  0.36461026812E+03  0.00000000000E+00 0. -1.
         22    1    1    2    0    0  0.52442941629E+01  0.15086782443E+02  0.39976107771E+01  0.16464948152E+02  0.00000000000E+00 0.  1.
<mgrwt>
<rscale>  0 0.61093976E+02</rscale>
<asrwt>0</asrwt>
<pdfrwt beam="1">  1        1 0.64518178E-01 0.95545209E+02</pdfrwt>
<pdfrwt beam="2">  1       -1 0.18172011E-02 0.95545209E+02</pdfrwt>
<totfact> 0.40018364E+04</totfact>
</mgrwt>
</event>
<event>
 6    1  0.1535970E-002  0.9468589E+02  0.7546771E-02  0.1423226E+00
         -2   -1    0    0    0  501 -0.00000000000E+00  0.00000000000E+00  0.54670579355E+01  0.54670579355E+01  0.00000000000E+00 0.  1.
          2   -1    0    0  501    0  0.00000000000E+00 -0.00000000000E+00 -0.53475184390E+03  0.53475184390E+03  0.00000000000E+00 0. -1.
         23    2    1    2    0    0 -0.97708980668E+01  0.31770680895E+01 -0.50577982585E+03  0.51456646802E+03  0.94126795138E+02 0.  0.
         13    1    3    3    0    0 -0.11174929818E+01  0.43072165378E+02 -0.13907601460E+03  0.14559738341E+03  0.00000000000E+00 0. -1.
        -13    1    3    3    0    0 -0.86534050850E+01 -0.39895097288E+02 -0.36670381125E+03  0.36896908460E+03  0.00000000000E+00 0.  1.
         22    1    1    2    0    0  0.97708980668E+01 -0.31770680895E+01 -0.23504960114E+02  0.25652433815E+02  0.00000000000E+00 0.  1.
<mgrwt>
<rscale>  0 0.54344242E+02</rscale>
<asrwt>0</asrwt>
<pdfrwt beam="1">  1        2 0.82269515E-01 0.94685890E+02</pdfrwt>
<pdfrwt beam="2">  1       -2 0.84108583E-03 0.94685890E+02</pdfrwt>
<totfact> 0.13693626E+05</totfact>
</mgrwt>
</event>
<event>
 6    1  0.1535970E-002  0.9236966E+02  0.7546771E-02  0.1392033E+00
          1   -1    0    0  501    0  0.00000000000E+00  0.00000000000E+00  0.46627877295E+03  0.46627877295E+03  0.00000000000E+00 0. -1.
         -1   -1    0    0    0  501 -0.00000000000E+00 -0.00000000000E+00 -0.85388942565E+01  0.85388942565E+01  0.00000000000E+00 0.  1.
         23    2    1    2    0    0  0.11497631887E+02 -0.13898890714E+02  0.43973366258E+03  0.44933044451E+03  0.90591278019E+02 0.  0.
         11    1    3    3    0    0  0.26739778879E+02  0.20504316742E+02  0.70012360189E+02  0.77699249410E+02  0.00000000000E+00 0.  1.
        -11    1    3    3    0    0 -0.15242146992E+02 -0.34403207456E+02  0.36972130239E+03  0.37163119510E+03  0.00000000000E+00 0. -1.
         22    1    1    2    0    0 -0.11497631887E+02  0.13898890714E+02  0.18006216106E+02  0.25487222692E+02  0.00000000000E+00 0. -1.
<mgrwt>
<rscale>  0 0.61403763E+02</rscale>
<asrwt>0</asrwt>
<pdfrwt beam="1">  1        1 0.71735176E-01 0.92369661E+02</pdfrwt>
<pdfrwt beam="2">  1       -1 0.13136764E-02 0.92369661E+02</pdfrwt>
<totfact> 0.55295104E+04</totfact>
</mgrwt>
</event>
<event>
 6    1  0.1535970E-002  0.9260555E+02  0.7546771E-02  0.1398307E+00
         -2   -1    0    0    0  501 -0.00000000000E+00  0.00000000000E+00  0.10795371305E+02  0.10795371305E+02  0.00000000000E+00 0.  1.
          2   -1    0    0  501    0  0.00000000000E+00 -0.00000000000E+00 -0.27441298965E+03  0.27441298965E+03  0.00000000000E+00 0. -1.
         23    2    1    2    0    0  0.67924086402E+01 -0.14703225926E+02 -0.22747628457E+03  0.24560384512E+03  0.91178215748E+02 0.  0.
         13    1    3    3    0    0  0.30384104099E+02 -0.27890182682E+02 -0.20859828643E+03  0.21263654713E+03  0.00000000000E+00 0. -1.
        -13    1    3    3    0    0 -0.23591695458E+02  0.13186956756E+02 -0.18877998139E+02  0.32967297991E+02  0.00000000000E+00 0.  1.
         22    1    1    2    0    0 -0.67924086402E+01  0.14703225926E+02 -0.36141333774E+02  0.39604515837E+02  0.00000000000E+00 0. -1.
<mgrwt>
<rscale>  0 0.59886930E+02</rscale>
<asrwt>0</asrwt>
<pdfrwt beam="1">  1        2 0.42217379E-01 0.92605554E+02</pdfrwt>
<pdfrwt beam="2">  1       -2 0.16608265E-02 0.92605554E+02</pdfrwt>
<totfact> 0.10513589E+05</totfact>
</mgrwt>
</event>
<event>
 6    1  0.1535970E-002  0.1015485E+03  0.7546771E-02  0.1356770E+00
         -2   -1    0    0    0  501 -0.00000000000E+00  0.00000000000E+00  0.24503266842E+02  0.24503266842E+02  0.00000000000E+00 0.  1.
          2   -1    0    0  501    0  0.00000000000E+00 -0.00000000000E+00 -0.22875199731E+03  0.22875199731E+03  0.00000000000E+00 0. -1.
         23    2    1    2    0    0  0.11725690693E+02 -0.21224894620E+02 -0.20523834584E+03  0.22898661539E+03  0.98610868842E+02 0.  0.
         11    1    3    3    0    0 -0.14841470881E+02  0.24984628836E+02 -0.17713075041E+02  0.34033130379E+02  0.00000000000E+00 0.  1.
        -11    1    3    3    0    0  0.26567161574E+02 -0.46209523456E+02 -0.18752527080E+03  0.19495348501E+03  0.00000000000E+00 0. -1.
         22    1    1    2    0    0 -0.11725690693E+02  0.21224894620E+02  0.98961537249E+00  0.24268648755E+02  0.00000000000E+00 0.  1.
<mgrwt>
<rscale>  0 0.70986553E+02</rscale>
<asrwt>0</asrwt>
<pdfrwt beam="1">  1        2 0.35192615E-01 0.10154847E+03</pdfrwt>
<pdfrwt beam="2">  1       -2 0.37697333E-02 0.10154847E+03</pdfrwt>
<totfact> 0.39322143E+04</totfact>
</mgrwt>
</event>
<event>
 6    1  0.1535970E-002  0.9236647E+02  0.7546771E-02  0.1409574E+00
         -1   -1    0    0    0  501 -0.00000000000E+00  0.00000000000E+00  0.10364170454E+03  0.10364170454E+03  0.00000000000E+00 0.  1.
          1   -1    0    0  501    0  0.00000000000E+00 -0.00000000000E+00 -0.30903621155E+02  0.30903621155E+02  0.00000000000E+00 0. -1.
         23    2    1    2    0    0 -0.98234908412E+01  0.95050442996E+01  0.43141941356E+02  0.10194504253E+03  0.91349426672E+02 0.  0.
         11    1    3    3    0    0 -0.12492475947E+01 -0.59155412492E+01  0.69753827567E+02  0.70015360515E+02  0.00000000000E+00 0.  1.
        -11    1    3    3    0    0 -0.85742432465E+01  0.15420585549E+02 -0.26611886211E+02  0.31929682016E+02  0.00000000000E+00 0. -1.
         22    1    1    2    0    0  0.98234908412E+01 -0.95050442996E+01  0.29596142033E+02  0.32600283169E+02  0.00000000000E+00 0. -1.
<mgrwt>
<rscale>  0 0.57289031E+02</rscale>
<asrwt>0</asrwt>
<pdfrwt beam="1">  1        1 0.47544033E-02 0.92366469E+02</pdfrwt>
<pdfrwt beam="2">  1       -1 0.15944877E-01 0.92366469E+02</pdfrwt>
<totfact> 0.44941950E+04</totfact>
</mgrwt>
</event>
<event>
 6    1  0.1535970E-002  0.9150703E+02  0.7546771E-02  0.1386176E+00
          2   -1    0    0  501    0  0.00000000000E+00  0.00000000000E+00  0.47721745966E+02  0.47721745966E+02  0.00000000000E+00 0. -1.
         -2   -1    0    0    0  501 -0.00000000000E+00 -0.00000000000E+00 -0.66192758307E+02  0.66192758307E+02  0.00000000000E+00 0.  1.
         23    2    1    2    0    0 -0.73890986763E+01  0.19000821754E+02 -0.19261174192E+02  0.93512191602E+02  0.89207102522E+02 0.  0.
         13    1    3    3    0    0 -0.19785899416E+02  0.27516827537E+02 -0.49353855254E+02  0.59870365305E+02  0.00000000000E+00 0.  1.
        -13    1    3    3    0    0  0.12396800740E+02 -0.85160057829E+01  0.30092681062E+02  0.33641826297E+02  0.00000000000E+00 0. -1.
         22    1    1    2    0    0  0.73890986763E+01 -0.19000821754E+02  0.79016185021E+00  0.20402312671E+02  0.00000000000E+00 0. -1.
<mgrwt>
<rscale>  0 0.62867938E+02</rscale>
<asrwt>0</asrwt>
<pdfrwt beam="1">  1        2 0.73418070E-02 0.91507033E+02</pdfrwt>
<pdfrwt beam="2">  1       -2 0.10183501E-01 0.91507033E+02</pdfrwt>
<totfact> 0.52591151E+04</totfact>
</mgrwt>
</event>
<event>
 6    1  0.1535970E-002  0.9306432E+02  0.7546771E-02  0.1426244E+00
          2   -1    0    0  501    0  0.00000000000E+00  0.00000000000E+00  0.33263491322E+02  0.33263491322E+02  0.00000000000E+00 0. -1.
         -2   -1    0    0    0  501 -0.00000000000E+00 -0.00000000000E+00 -0.86006641338E+02  0.86006641338E+02  0.00000000000E+00 0.  1.
         23    2    1    2    0    0 -0.91275814032E+01  0.48439275771E+01 -0.36390293200E+02  0.99926081826E+02  0.92488875078E+02 0.  0.
         11    1    3    3    0    0  0.29082314436E+02  0.31670284815E+02 -0.41674875625E+01  0.43199026677E+02  0.00000000000E+00 0.  1.
        -11    1    3    3    0    0 -0.38209895839E+02 -0.26826357238E+02 -0.32222805638E+02  0.56727055149E+02  0.00000000000E+00 0. -1.
         22    1    1    2    0    0  0.91275814032E+01 -0.48439275771E+01 -0.16352856816E+02  0.19344050834E+02  0.00000000000E+00 0.  1.
<mgrwt>
<rscale>  0 0.53721338E+02</rscale>
<asrwt>0</asrwt>
<pdfrwt beam="1">  1        2 0.51174603E-02 0.93064324E+02</pdfrwt>
<pdfrwt beam="2">  1       -2 0.13231791E-01 0.93064324E+02</pdfrwt>
<totfact> 0.55172564E+04</totfact>
</mgrwt>
</event>
<event>
 6    1  0.1535970E-002  0.9704951E+02  0.7546771E-02  0.1368424E+00
          2   -1    0    0  501    0  0.00000000000E+00  0.00000000000E+00  0.49785494669E+03  0.49785494669E+03  0.00000000000E+00 0. -1.
         -2   -1    0    0    0  501 -0.00000000000E+00 -0.00000000000E+00 -0.78804241023E+01  0.78804241023E+01  0.00000000000E+00 0.  1.
         23    2    1    2    0    0 -0.95567882432E+01  0.20761832012E+02  0.44286705572E+03  0.45337604207E+03  0.94319778448E+02 0.  0.
         11    1    3    3    0    0 -0.16320116635E+02  0.57457977084E+02  0.27044715282E+03  0.27696466888E+03  0.00000000000E+00 0. -1.
        -11    1    3    3    0    0  0.67633283917E+01 -0.36696145073E+02  0.17241990290E+03  0.17641137319E+03  0.00000000000E+00 0.  1.
         22    1    1    2    0    0  0.95567882432E+01 -0.20761832012E+02  0.47107466861E+02  0.52359328721E+02  0.00000000000E+00 0.  1.
<mgrwt>
<rscale>  0 0.67607351E+02</rscale>
<asrwt>0</asrwt>
<pdfrwt beam="1">  1        2 0.76593044E-01 0.97049505E+02</pdfrwt>
<pdfrwt beam="2">  1       -2 0.12123733E-02 0.97049505E+02</pdfrwt>
<totfact> 0.88452448E+04</totfact>
</mgrwt>
</event>
<event>
 6    1  0.1535970E-002  0.8966147E+02  0.7546771E-02  0.1410931E+00
         -1   -1    0    0    0  501 -0.00000000000E+00  0.00000000000E+00  0.92026023151E+01  0.92026023151E+01  0.00000000000E+00 0.  1.
          1   -1    0    0  501    0  0.00000000000E+00 -0.00000000000E+00 -0.39911686158E+03  0.39911686158E+03  0.00000000000E+00 0. -1.
         23    2    1    2    0    0 -0.74915014877E+01  0.12567464363E+02 -0.38050037147E+03  0.39092161810E+03  0.88459680365E+02 0.  0.
         11    1    3    3    0    0  0.19407549165E+02  0.38617799176E+02 -0.28642826211E+03  0.28967073845E+03  0.00000000000E+00 0. -1.
        -11    1    3    3    0    0 -0.26899050653E+02 -0.26050334813E+02 -0.94072109365E+02  0.10125087965E+03  0.00000000000E+00 0.  1.
         22    1    1    2    0    0  0.74915014877E+01 -0.12567464363E+02 -0.94138877947E+01  0.17397845800E+02  0.00000000000E+00 0.  1.
<mgrwt>
<rscale>  0 0.56986538E+02</rscale>
<asrwt>0</asrwt>
<pdfrwt beam="1">  1        1 0.61402612E-01 0.89661468E+02</pdfrwt>
<pdfrwt beam="2">  1       -1 0.14157846E-02 0.89661468E+02</pdfrwt>
<totfact> 0.60206482E+04</totfact>
</mgrwt>
</event>
<event>
 6    1  0.1535970E-002  0.9262244E+02  0.7546771E-02  0.1406524E+00
          2   -1    0    0  501    0  0.00000000000E+00  0.00000000000E+00  0.18643728784E+02  0.18643728784E+02  0.00000000000E+00 0. -1.
         -2   -1    0    0    0  501 -0.00000000000E+00 -0.00000000000E+00 -0.16509606073E+03  0.16509606073E+03  0.00000000000E+00 0.  1.
         23    2    1    2    0    0  0.77333838412E+01 -0.11932107482E+02 -0.10550072149E+03  0.14038987817E+03  0.91524506244E+02 0.  0.
         11    1    3    3    0    0 -0.10695558357E+02 -0.27745790991E+02  0.23599321688E+01  0.29829401036E+02  0.00000000000E+00 0. -1.
        -11    1    3    3    0    0  0.18428942198E+02  0.15813683509E+02 -0.10786065366E+03  0.11056047713E+03  0.00000000000E+00 0.  1.
         22    1    1    2    0    0 -0.77333838412E+01  0.11932107482E+02 -0.40951610461E+02  0.43349911349E+02  0.00000000000E+00 0. -1.
<mgrwt>
<rscale>  0 0.57976839E+02</rscale>
<asrwt>0</asrwt>
<pdfrwt beam="1">  1        2 0.28682659E-02 0.92622436E+02</pdfrwt>
<pdfrwt beam="2">  1       -2 0.25399394E-01 0.92622436E+02</pdfrwt>
<totfact> 0.39892863E+04</totfact>
</mgrwt>
</event>
<event>
 6    1  0.1535970E-002  0.9586842E+02  0.7546771E-02  0.1402146E+00
         -2   -1    0    0    0  501 -0.00000000000E+00  0.00000000000E+00  0.25073024536E+02  0.25073024536E+02  0.00000000000E+00 0.  1.
          2   -1    0    0  501    0  0.00000000000E+00 -0.00000000000E+00 -0.10214693369E+04  0.10214693369E+04  0.00000000000E+00 0. -1.
         23    2    1    2    0    0 -0.34489517293E+01  0.13297579062E+02 -0.10171478004E+04  0.10216557158E+04  0.94879043198E+02 0.  0.
         13    1    3    3    0    0 -0.42975443244E+02 -0.61933171435E+01 -0.29657996335E+03  0.29974142283E+03  0.00000000000E+00 0.  1.
        -13    1    3    3    0    0  0.39526491515E+02  0.19490896206E+02 -0.72056783704E+03  0.72191429294E+03  0.00000000000E+00 0. -1.
         22    1    1    2    0    0  0.34489517293E+01 -0.13297579062E+02  0.20751488032E+02  0.24886645666E+02  0.00000000000E+00 0.  1.
<mgrwt>
<rscale>  0 0.58983993E+02</rscale>
<asrwt>0</asrwt>
<pdfrwt beam="1">  1        2 0.15714914E+00 0.95868419E+02</pdfrwt>
<pdfrwt beam="2">  1       -2 0.38573882E-02 0.95868419E+02</pdfrwt>
<totfact> 0.70536637E+03</totfact>
</mgrwt>
</event>
<event>
 6    1  0.1535970E-002  0.9341757E+02  0.7546771E-02  0.1381950E+00
         -2   -1    0    0    0  501 -0.00000000000E+00  0.00000000000E+00  0.32725992955E+01  0.32725992955E+01  0.00000000000E+00 0.  1.
          2   -1    0    0  501    0  0.00000000000E+00 -0.00000000000E+00 -0.11472832555E+04  0.11472832555E+04  0.00000000000E+00 0. -1.
         23    2    1    2    0    0 -0.60202491766E+01  0.19617500980E+02 -0.10586338797E+04  0.10627476336E+04  0.91135896952E+02 0.  0.
         11    1    3    3    0    0  0.43170606692E+01  0.45735329685E+01 -0.10199933145E+04  0.10200127037E+04  0.00000000000E+00 0. -1.
        -11    1    3    3    0    0 -0.10337309846E+02  0.15043968011E+02 -0.38640565192E+02  0.42734929820E+02  0.00000000000E+00 0.  1.
         22    1    1    2    0    0  0.60202491766E+01 -0.19617500980E+02 -0.85376776574E+02  0.87808221272E+02  0.00000000000E+00 0.  1.
<mgrwt>
<rscale>  0 0.63954078E+02</rscale>
<asrwt>0</asrwt>
<pdfrwt beam="1">  1        2 0.17650513E+00 0.93417565E+02</pdfrwt>
<pdfrwt beam="2">  1       -2 0.50347677E-03 0.93417565E+02</pdfrwt>
<totfact> 0.10966158E+05</totfact>
</mgrwt>
</event>
<event>
 6    1  0.1535970E-002  0.9287332E+02  0.7546771E-02  0.1428169E+00
         -4   -1    0    0    0  501 -0.00000000000E+00  0.00000000000E+00  0.17548055542E+02  0.17548055542E+02  0.00000000000E+00 0. -1.
          4   -1    0    0  501    0  0.00000000000E+00 -0.00000000000E+00 -0.94495620375E+03  0.94495620375E+03  0.00000000000E+00 0.  1.
         23    2    1    2    0    0  0.37012563249E+00  0.10090216865E+02 -0.94100020800E+03  0.94557223169E+03  0.92322827184E+02 0.  0.
         13    1    3    3    0    0 -0.48790245644E+01  0.18753636223E+01 -0.93285213928E+03  0.93286678343E+03  0.00000000000E+00 0.  1.
        -13    1    3    3    0    0  0.52491501969E+01  0.82148532430E+01 -0.81480687172E+01  0.12705448257E+02  0.00000000000E+00 0. -1.
         22    1    1    2    0    0 -0.37012563249E+00 -0.10090216865E+02  0.13592059790E+02  0.16932027602E+02  0.00000000000E+00 0. -1.
<mgrwt>
<rscale>  0 0.53329358E+02</rscale>
<asrwt>0</asrwt>
<pdfrwt beam="1">  1        4 0.14537789E+00 0.92873322E+02</pdfrwt>
<pdfrwt beam="2">  1       -4 0.26997005E-02 0.92873322E+02</pdfrwt>
<totfact> 0.34004042E+02</totfact>
</mgrwt>
</event>
<event>
 6    1  0.1535970E-002  0.9192552E+02  0.7546771E-02  0.1402654E+00
          1   -1    0    0  501    0  0.00000000000E+00  0.00000000000E+00  0.65151889011E+02  0.65151889011E+02  0.00000000000E+00 0. -1.
         -1   -1    0    0    0  501 -0.00000000000E+00 -0.00000000000E+00 -0.10807565601E+03  0.10807565601E+03  0.00000000000E+00 0.  1.
         23    2    1    2    0    0 -0.89717002800E+01 -0.12587609305E+02  0.31532737246E+02  0.97183410874E+02  0.90616568667E+02 0.  0.
         11    1    3    3    0    0  0.49263334857E+01  0.16073283133E+02  0.55069318747E+02  0.57578199516E+02  0.00000000000E+00 0. -1.
        -11    1    3    3    0    0 -0.13898033766E+02 -0.28660892438E+02 -0.23536581501E+02  0.39605211357E+02  0.00000000000E+00 0.  1.
         22    1    1    2    0    0  0.89717002800E+01  0.12587609305E+02 -0.74456504247E+02  0.76044134150E+02  0.00000000000E+00 0.  1.
<mgrwt>
<rscale>  0 0.58865798E+02</rscale>
<asrwt>0</asrwt>
<pdfrwt beam="1">  1        1 0.10023368E-01 0.91925523E+02</pdfrwt>
<pdfrwt beam="2">  1       -1 0.16627024E-01 0.91925523E+02</pdfrwt>
<totfact> 0.15561573E+04</totfact>
</mgrwt>
</event>
<event>
 6    1  0.1535970E-002  0.9687826E+02  0.7546771E-02  0.1409955E+00
         -2   -1    0    0    0  501 -0.00000000000E+00  0.00000000000E+00  0.29393448240E+01  0.29393448240E+01  0.00000000000E+00 0.  1.
          2   -1    0    0  501    0  0.00000000000E+00 -0.00000000000E+00 -0.11488181378E+04  0.11488181378E+04  0.00000000000E+00 0. -1.
         23    2    1    2    0    0 -0.10935475995E+02  0.43711134457E+01 -0.11043503682E+04  0.11085915084E+04  0.96159791205E+02 0.  0.
         13    1    3    3    0    0  0.27200056766E+02 -0.30963499954E+02 -0.34279842214E+03  0.34526705553E+03  0.00000000000E+00 0.  1.
        -13    1    3    3    0    0 -0.38135532761E+02  0.35334613400E+02 -0.76155194607E+03  0.76332445286E+03  0.00000000000E+00 0. -1.
         22    1    1    2    0    0  0.10935475995E+02 -0.43711134457E+01 -0.41528424799E+02  0.43165974265E+02  0.00000000000E+00 0. -1.
<mgrwt>
<rscale>  0 0.57203931E+02</rscale>
<asrwt>0</asrwt>
<pdfrwt beam="1">  1        2 0.17674126E+00 0.96878257E+02</pdfrwt>
<pdfrwt beam="2">  1       -2 0.45220689E-03 0.96878257E+02</pdfrwt>
<totfact> 0.12782867E+05</totfact>
</mgrwt>
</event>
<event>
 6    1  0.1535970E-002  0.9273466E+02  0.7546771E-02  0.1424785E+00
         -2   -1    0    0    0  501 -0.00000000000E+00  0.00000000000E+00  0.60557811853E+01  0.60557811853E+01  0.00000000000E+00 0.  1.
          2   -1    0    0  501    0  0.00000000000E+00 -0.00000000000E+00 -0.68143053437E+03  0.68143053437E+03  0.00000000000E+00 0. -1.
         23    2    1    2    0    0 -0.10674916280E+02  0.29552134902E+00 -0.66823832692E+03  0.67464226050E+03  0.92117733990E+02 0.  0.
         13    1    3    3    0    0 -0.27758594287E+02  0.84207180643E+01 -0.63997557392E+03  0.64063264299E+03  0.00000000000E+00 0. -1.
        -13    1    3    3    0    0  0.17083678008E+02 -0.81251967153E+01 -0.28262752996E+02  0.34009617505E+02  0.00000000000E+00 0.  1.
         22    1    1    2    0    0  0.10674916280E+02 -0.29552134902E+00 -0.71364262629E+01  0.12844055055E+02  0.00000000000E+00 0.  1.
<mgrwt>
<rscale>  0 0.54021208E+02</rscale>
<asrwt>0</asrwt>
<pdfrwt beam="1">  1        2 0.10483536E+00 0.92734665E+02</pdfrwt>
<pdfrwt beam="2">  1       -2 0.93165956E-03 0.92734665E+02</pdfrwt>
<totfact> 0.89986358E+04</totfact>
</mgrwt>
</event>
<event>
 6    1  0.1535970E-002  0.8884422E+02  0.7546771E-02  0.1396067E+00
         -2   -1    0    0    0  501 -0.00000000000E+00  0.00000000000E+00  0.12070812672E+03  0.12070812672E+03  0.00000000000E+00 0. -1.
          2   -1    0    0  501    0  0.00000000000E+00 -0.00000000000E+00 -0.24707173499E+02  0.24707173499E+02  0.00000000000E+00 0.  1.
         23    2    1    2    0    0  0.36680605320E+01  0.18649406534E+02  0.69477577660E+02  0.11278487755E+03  0.86787324969E+02 0.  0.
         11    1    3    3    0    0  0.18174948705E+01  0.15328272783E+02 -0.18856758411E+02  0.24368762215E+02  0.00000000000E+00 0.  1.
        -11    1    3    3    0    0  0.18505656615E+01  0.33211337510E+01  0.88334336071E+02  0.88416115340E+02  0.00000000000E+00 0. -1.
         22    1    1    2    0    0 -0.36680605320E+01 -0.18649406534E+02  0.26523375559E+02  0.32630422664E+02  0.00000000000E+00 0. -1.
<mgrwt>
<rscale>  0 0.60422489E+02</rscale>
<asrwt>0</asrwt>
<pdfrwt beam="1">  1        2 0.38011037E-02 0.88844217E+02</pdfrwt>
<pdfrwt beam="2">  1       -2 0.18570481E-01 0.88844217E+02</pdfrwt>
<totfact> 0.46480900E+04</totfact>
</mgrwt>
</event>
<event>
 6    1  0.1535970E-002  0.9620544E+02  0.7546771E-02  0.1412914E+00
         -2   -1    0    0    0  501 -0.00000000000E+00  0.00000000000E+00  0.12454151245E+03  0.12454151245E+03  0.00000000000E+00 0.  1.
          2   -1    0    0  501    0  0.00000000000E+00 -0.00000000000E+00 -0.23291568861E+02  0.23291568861E+02  0.00000000000E+00 0. -1.
         23    2    1    2    0    0  0.95775291568E+01  0.63365875933E+01  0.89388593012E+02  0.13132329498E+03  0.95517568213E+02 0.  0.
         13    1    3    3    0    0  0.13613922852E+02 -0.34204211943E+02  0.44023726461E+01  0.37076244349E+02  0.00000000000E+00 0. -1.
        -13    1    3    3    0    0 -0.40363936950E+01  0.40540799537E+02  0.84986220366E+02  0.94247050634E+02  0.00000000000E+00 0.  1.
         22    1    1    2    0    0 -0.95775291568E+01 -0.63365875933E+01  0.11861350572E+02  0.16509786324E+02  0.00000000000E+00 0.  1.
<mgrwt>
<rscale>  0 0.56548707E+02</rscale>
<asrwt>0</asrwt>
<pdfrwt beam="1">  1        2 0.35833184E-02 0.96205443E+02</pdfrwt>
<pdfrwt beam="2">  1       -2 0.19160232E-01 0.96205443E+02</pdfrwt>
<totfact> 0.48234915E+04</totfact>
</mgrwt>
</event>
<event>
 6    1  0.1535970E-002  0.9300446E+02  0.7546771E-02  0.1405440E+00
          4   -1    0    0  501    0  0.00000000000E+00  0.00000000000E+00  0.65334679379E+02  0.65334679379E+02  0.00000000000E+00 0. -1.
         -4   -1    0    0    0  501 -0.00000000000E+00 -0.00000000000E+00 -0.69064065662E+02  0.69064065662E+02  0.00000000000E+00 0.  1.
         23    2    1    2    0    0 -0.12477627037E+02 -0.69558059439E+01  0.30037187607E+02  0.97734649183E+02  0.91900786715E+02 0.  0.
         13    1    3    3    0    0 -0.31421698920E+02 -0.40749709264E+02  0.28810340677E+02  0.58973703445E+02  0.00000000000E+00 0. -1.
        -13    1    3    3    0    0  0.18944071884E+02  0.33793903320E+02  0.12268469300E+01  0.38760945738E+02  0.00000000000E+00 0.  1.
         22    1    1    2    0    0  0.12477627037E+02  0.69558059439E+01 -0.33766573890E+02  0.36664095857E+02  0.00000000000E+00 0.  1.
<mgrwt>
<rscale>  0 0.58223913E+02</rscale>
<asrwt>0</asrwt>
<pdfrwt beam="1">  1        4 0.10051489E-01 0.93004457E+02</pdfrwt>
<pdfrwt beam="2">  1       -4 0.10625241E-01 0.93004457E+02</pdfrwt>
<totfact> 0.75595328E+03</totfact>
</mgrwt>
</event>
<event>
 6    1  0.1535970E-002  0.9135571E+02  0.7546771E-02  0.1372031E+00
         -2   -1    0    0    0  501 -0.00000000000E+00  0.00000000000E+00  0.25660749992E+03  0.25660749992E+03  0.00000000000E+00 0.  1.
          2   -1    0    0  501    0  0.00000000000E+00 -0.00000000000E+00 -0.13745366127E+02  0.13745366127E+02  0.00000000000E+00 0. -1.
         23    2    1    2    0    0  0.19444892956E+02 -0.16976934600E+02  0.16902373375E+03  0.19213247554E+03  0.87633015554E+02 0.  0.
         11    1    3    3    0    0  0.18667347732E+02 -0.98357850558E+01 -0.17825375846E+01  0.21175220878E+02  0.00000000000E+00 0. -1.
        -11    1    3    3    0    0  0.77754522355E+00 -0.71411495437E+01  0.17080627134E+03  0.17095725466E+03  0.00000000000E+00 0.  1.
         22    1    1    2    0    0 -0.19444892956E+02  0.16976934600E+02  0.73838400039E+02  0.78220390505E+02  0.00000000000E+00 0. -1.
<mgrwt>
<rscale>  0 0.66605814E+02</rscale>
<asrwt>0</asrwt>
<pdfrwt beam="1">  1        2 0.21146719E-02 0.91355709E+02</pdfrwt>
<pdfrwt beam="2">  1       -2 0.39478074E-01 0.91355709E+02</pdfrwt>
<totfact> 0.27069316E+04</totfact>
</mgrwt>
</event>
<event>
 6    1  0.1535970E-002  0.9445483E+02  0.7546771E-02  0.1382916E+00
          1   -1    0    0  501    0  0.00000000000E+00  0.00000000000E+00  0.39817031876E+03  0.39817031876E+03  0.00000000000E+00 0. -1.
         -1   -1    0    0    0  501 -0.00000000000E+00 -0.00000000000E+00 -0.10878481274E+02  0.10878481274E+02  0.00000000000E+00 0.  1.
         23    2    1    2    0    0  0.11908043532E+02  0.15495563364E+02  0.37316846440E+03  0.38493690148E+03  0.92411045395E+02 0.  0.
         11    1    3    3    0    0 -0.28758957419E+01  0.14402827912E+02  0.36933244347E+03  0.36962435800E+03  0.00000000000E+00 0. -1.
        -11    1    3    3    0    0  0.14783939273E+02  0.10927354518E+01  0.38360209342E+01  0.15312543480E+02  0.00000000000E+00 0.  1.
         22    1    1    2    0    0 -0.11908043532E+02 -0.15495563364E+02  0.14123373084E+02  0.24111898557E+02  0.00000000000E+00 0.  1.
<mgrwt>
<rscale>  0 0.63703579E+02</rscale>
<asrwt>0</asrwt>
<pdfrwt beam="1">  1        1 0.61256961E-01 0.94454832E+02</pdfrwt>
<pdfrwt beam="2">  1       -1 0.16736128E-02 0.94454832E+02</pdfrwt>
<totfact> 0.47938575E+04</totfact>
</mgrwt>
</event>
<event>
 6    1  0.1535970E-002  0.6131436E+02  0.7546771E-02  0.1486913E+00
          2   -1    0    0  501    0  0.00000000000E+00  0.00000000000E+00  0.90868327833E+02  0.90868327833E+02  0.00000000000E+00 0. -1.
         -2   -1    0    0    0  501 -0.00000000000E+00 -0.00000000000E+00 -0.18072391342E+02  0.18072391342E+02  0.00000000000E+00 0.  1.
         23    2    1    2    0    0  0.13166930373E+02  0.69679941416E+01  0.71194290803E+02  0.93957853404E+02  0.59477139940E+02 0.  0.
         13    1    3    3    0    0 -0.36243000318E+01 -0.47130869622E+01 -0.92266916604E+01  0.10976364536E+02  0.00000000000E+00 0.  1.
        -13    1    3    3    0    0  0.16791230405E+02  0.11681081104E+02  0.80420982464E+02  0.82981488868E+02  0.00000000000E+00 0. -1.
         22    1    1    2    0    0 -0.13166930373E+02 -0.69679941416E+01  0.16016456874E+01  0.14982865771E+02  0.00000000000E+00 0.  1.
<mgrwt>
<rscale>  0 0.43047355E+02</rscale>
<asrwt>0</asrwt>
<pdfrwt beam="1">  1        2 0.13979742E-01 0.61314364E+02</pdfrwt>
<pdfrwt beam="2">  1       -2 0.27803680E-02 0.61314364E+02</pdfrwt>
<totfact> 0.15633508E+05</totfact>
</mgrwt>
</event>
<event>
 6    1  0.1535970E-002  0.9063220E+02  0.7546771E-02  0.1387323E+00
         -2   -1    0    0    0  501 -0.00000000000E+00  0.00000000000E+00  0.30770955949E+01  0.30770955949E+01  0.00000000000E+00 0.  1.
          2   -1    0    0  501    0  0.00000000000E+00 -0.00000000000E+00 -0.13822319633E+04  0.13822319633E+04  0.00000000000E+00 0. -1.
         23    2    1    2    0    0 -0.99899147710E+01 -0.18013227738E+02 -0.13105149645E+04  0.13136451832E+04  0.88260525363E+02 0.  0.
         13    1    3    3    0    0  0.33434001943E+02 -0.26390005877E+02 -0.83245998327E+03  0.83354897196E+03  0.00000000000E+00 0. -1.
        -13    1    3    3    0    0 -0.43423916714E+02  0.83767781393E+01 -0.47805498122E+03  0.48009621122E+03  0.00000000000E+00 0.  1.
         22    1    1    2    0    0  0.99899147710E+01  0.18013227738E+02 -0.68639903191E+02  0.71663875702E+02  0.00000000000E+00 0.  1.
<mgrwt>
<rscale>  0 0.62577438E+02</rscale>
<asrwt>0</asrwt>
<pdfrwt beam="1">  1        2 0.21265134E+00 0.90632197E+02</pdfrwt>
<pdfrwt beam="2">  1       -2 0.47339872E-03 0.90632197E+02</pdfrwt>
<totfact> 0.89191726E+04</totfact>
</mgrwt>
</event>
<event>
 6    1  0.1535970E-002  0.9479757E+02  0.7546771E-02  0.1368265E+00
          1   -1    0    0  501    0  0.00000000000E+00  0.00000000000E+00  0.28353599434E+04  0.28353599434E+04  0.00000000000E+00 0. -1.
         -1   -1    0    0    0  501 -0.00000000000E+00 -0.00000000000E+00 -0.28530732781E+01  0.28530732781E+01  0.00000000000E+00 0.  1.
         23    2    1    2    0    0  0.17171973357E+02  0.17598285553E+02  0.27604357261E+04  0.27620629929E+04  0.91553276255E+02 0.  0.
         11    1    3    3    0    0  0.17030596581E+02 -0.36701086687E+02  0.12174893590E+04  0.12181614631E+04  0.00000000000E+00 0.  1.
        -11    1    3    3    0    0  0.14137677584E+00  0.54299372240E+02  0.15429463671E+04  0.15439015298E+04  0.00000000000E+00 0. -1.
         22    1    1    2    0    0 -0.17171973357E+02 -0.17598285553E+02  0.72071143998E+02  0.76150023772E+02  0.00000000000E+00 0.  1.
<mgrwt>
<rscale>  0 0.67651789E+02</rscale>
<asrwt>0</asrwt>
<pdfrwt beam="1">  1        1 0.43620697E+00 0.94797567E+02</pdfrwt>
<pdfrwt beam="2">  1       -1 0.43893662E-03 0.94797567E+02</pdfrwt>
<totfact> 0.57083152E+03</totfact>
</mgrwt>
</event>
<event>
 6    1  0.1535970E-002  0.9162692E+02  0.7546771E-02  0.1430855E+00
         -2   -1    0    0    0  501 -0.00000000000E+00  0.00000000000E+00  0.36333310970E+01  0.36333310970E+01  0.00000000000E+00 0.  1.
          2   -1    0    0  501    0  0.00000000000E+00 -0.00000000000E+00 -0.11098470589E+04  0.11098470589E+04  0.00000000000E+00 0. -1.
         23    2    1    2    0    0 -0.50021203901E+01  0.87682998435E+01 -0.10930889527E+04  0.10969224912E+04  0.91069143735E+02 0.  0.
         11    1    3    3    0    0  0.11419972483E+02 -0.20833499040E+02 -0.93258246688E+03  0.93288504543E+03  0.00000000000E+00 0. -1.
        -11    1    3    3    0    0 -0.16422092874E+02  0.29601798884E+02 -0.16050648583E+03  0.16403744580E+03  0.00000000000E+00 0.  1.
         22    1    1    2    0    0  0.50021203901E+01 -0.87682998435E+01 -0.13124775127E+02  0.16557898800E+02  0.00000000000E+00 0.  1.
<mgrwt>
<rscale>  0 0.52788751E+02</rscale>
<asrwt>0</asrwt>
<pdfrwt beam="1">  1        2 0.17074548E+00 0.91626924E+02</pdfrwt>
<pdfrwt beam="2">  1       -2 0.55897474E-03 0.91626924E+02</pdfrwt>
<totfact> 0.99107386E+04</totfact>
</mgrwt>
</event>
<event>
 6    1  0.1535970E-002  0.9446591E+02  0.7546771E-02  0.1411514E+00
         -1   -1    0    0    0  501 -0.00000000000E+00  0.00000000000E+00  0.32213206321E+02  0.32213206321E+02  0.00000000000E+00 0.  1.
          1   -1    0    0  501    0  0.00000000000E+00 -0.00000000000E+00 -0.88701530436E+02  0.88701530436E+02  0.00000000000E+00 0. -1.
         23    2    1    2    0    0 -0.37670075711E+01 -0.11811012905E+02 -0.48786724346E+02  0.10632004557E+03  0.93648904134E+02 0.  0.
         11    1    3    3    0    0 -0.42761739336E+02 -0.10874627362E+02 -0.50769875801E+02  0.67263691247E+02  0.00000000000E+00 0. -1.
        -11    1    3    3    0    0  0.38994731765E+02 -0.93638554284E+00  0.19831514546E+01  0.39056354323E+02  0.00000000000E+00 0.  1.
         22    1    1    2    0    0  0.37670075711E+01  0.11811012905E+02 -0.77015997692E+01  0.14594691188E+02  0.00000000000E+00 0. -1.
<mgrwt>
<rscale>  0 0.56857421E+02</rscale>
<asrwt>0</asrwt>
<pdfrwt beam="1">  1        1 0.13646389E-01 0.94465907E+02</pdfrwt>
<pdfrwt beam="2">  1       -1 0.49558779E-02 0.94465907E+02</pdfrwt>
<totfact> 0.64775661E+04</totfact>
</mgrwt>
</event>
<event>
 6    1  0.1535970E-002  0.9396410E+02  0.7546771E-02  0.1388032E+00
         -1   -1    0    0    0  501 -0.00000000000E+00  0.00000000000E+00  0.51797139173E+02  0.51797139173E+02  0.00000000000E+00 0.  1.
          1   -1    0    0  501    0  0.00000000000E+00 -0.00000000000E+00 -0.96954280815E+02  0.96954280815E+02  0.00000000000E+00 0. -1.
         23    2    1    2    0    0  0.10472764963E+02 -0.14974570557E+02 -0.70525723104E+02  0.11748671953E+03  0.92170142006E+02 0.  0.
         11    1    3    3    0    0 -0.20530737017E+02 -0.97237751784E+01 -0.81170016470E+02  0.84288994181E+02  0.00000000000E+00 0. -1.
        -11    1    3    3    0    0  0.31003501980E+02 -0.52507953787E+01  0.10644293367E+02  0.33197725350E+02  0.00000000000E+00 0.  1.
         22    1    1    2    0    0 -0.10472764963E+02  0.14974570557E+02  0.25368581462E+02  0.31264700458E+02  0.00000000000E+00 0.  1.
<mgrwt>
<rscale>  0 0.62398796E+02</rscale>
<asrwt>0</asrwt>
<pdfrwt beam="1">  1        1 0.14916043E-01 0.93964098E+02</pdfrwt>
<pdfrwt beam="2">  1       -1 0.79687906E-02 0.93964098E+02</pdfrwt>
<totfact> 0.28615099E+04</totfact>
</mgrwt>
</event>
<event>
 6    1  0.1535970E-002  0.9030712E+02  0.7546771E-02  0.1431723E+00
          2   -1    0    0  501    0  0.00000000000E+00  0.00000000000E+00  0.10549540711E+03  0.10549540711E+03  0.00000000000E+00 0. -1.
         -2   -1    0    0    0  501 -0.00000000000E+00 -0.00000000000E+00 -0.35445705379E+02  0.35445705379E+02  0.00000000000E+00 0.  1.
         23    2    1    2    0    0 -0.10158126402E+02  0.22591481898E+01  0.84136507417E+02  0.12342742136E+03  0.89705547095E+02 0.  0.
         13    1    3    3    0    0  0.25580780500E+02 -0.24397088722E+02  0.66826334167E+02  0.75599955075E+02  0.00000000000E+00 0. -1.
        -13    1    3    3    0    0 -0.35738906902E+02  0.26656236912E+02  0.17310173250E+02  0.47827466281E+02  0.00000000000E+00 0.  1.
         22    1    1    2    0    0  0.10158126402E+02 -0.22591481898E+01 -0.14086805688E+02  0.17513691131E+02  0.00000000000E+00 0. -1.
<mgrwt>
<rscale>  0 0.52615741E+02</rscale>
<asrwt>0</asrwt>
<pdfrwt beam="1">  1        2 0.16230063E-01 0.90307123E+02</pdfrwt>
<pdfrwt beam="2">  1       -2 0.54531855E-02 0.90307123E+02</pdfrwt>
<totfact> 0.52453879E+04</totfact>
</mgrwt>
</event>
<event>
 6    1  0.1535970E-002  0.9399023E+02  0.7546771E-02  0.1424218E+00
         -2   -1    0    0    0  501 -0.00000000000E+00  0.00000000000E+00  0.11097036063E+03  0.11097036063E+03  0.00000000000E+00 0.  1.
          2   -1    0    0  501    0  0.00000000000E+00 -0.00000000000E+00 -0.27576480098E+02  0.27576480098E+02  0.00000000000E+00 0. -1.
         23    2    1    2    0    0 -0.10314088920E+02  0.81249081196E+00  0.56341202337E+02  0.10958327794E+03  0.93419072746E+02 0.  0.
         13    1    3    3    0    0 -0.24190221236E+02  0.19577163351E+02  0.74026321584E+02  0.80301484517E+02  0.00000000000E+00 0.  1.
        -13    1    3    3    0    0  0.13876132315E+02 -0.18764672539E+02 -0.17685119248E+02  0.29281793428E+02  0.00000000000E+00 0. -1.
         22    1    1    2    0    0  0.10314088920E+02 -0.81249081196E+00  0.27052678195E+02  0.28963562783E+02  0.00000000000E+00 0.  1.
<mgrwt>
<rscale>  0 0.54138422E+02</rscale>
<asrwt>0</asrwt>
<pdfrwt beam="1">  1        2 0.42425355E-02 0.93990232E+02</pdfrwt>
<pdfrwt beam="2">  1       -2 0.17072363E-01 0.93990232E+02</pdfrwt>
<totfact> 0.46631668E+04</totfact>
</mgrwt>
</event>
<event>
 6    1  0.1535970E-002  0.9899860E+02  0.7546771E-02  0.1387041E+00
          4   -1    0    0  501    0  0.00000000000E+00  0.00000000000E+00  0.14222418253E+04  0.14222418253E+04  0.00000000000E+00 0. -1.
         -4   -1    0    0    0  501 -0.00000000000E+00 -0.00000000000E+00 -0.35170675979E+01  0.35170675979E+01  0.00000000000E+00 0.  1.
         23    2    1    2    0    0 -0.15759351477E+02 -0.19267250359E+01  0.13844550038E+04  0.13879900505E+04  0.97717210024E+02 0.  0.
         13    1    3    3    0    0  0.32916150987E+02  0.12077347333E+02  0.94080974630E+03  0.94146285856E+03  0.00000000000E+00 0. -1.
        -13    1    3    3    0    0 -0.48675502464E+02 -0.14004072369E+02  0.44364525753E+03  0.44652719191E+03  0.00000000000E+00 0.  1.
         22    1    1    2    0    0  0.15759351477E+02  0.19267250359E+01  0.34269753895E+02  0.37768842455E+02  0.00000000000E+00 0.  1.
<mgrwt>
<rscale>  0 0.62648663E+02</rscale>
<asrwt>0</asrwt>
<pdfrwt beam="1">  1        4 0.21880597E+00 0.98998599E+02</pdfrwt>
<pdfrwt beam="2">  1       -4 0.54108846E-03 0.98998599E+02</pdfrwt>
<totfact> 0.12872802E+03</totfact>
</mgrwt>
</event>
<event>
 6    1  0.1535970E-002  0.1065637E+03  0.7546771E-02  0.1303171E+00
          2   -1    0    0  501    0  0.00000000000E+00  0.00000000000E+00  0.99090399437E+03  0.99090399437E+03  0.00000000000E+00 0. -1.
         -2   -1    0    0    0  501 -0.00000000000E+00 -0.00000000000E+00 -0.10350047390E+02  0.10350047390E+02  0.00000000000E+00 0.  1.
         23    2    1    2    0    0 -0.37980470772E+01  0.53766890640E+02  0.88624425382E+03  0.89262797715E+03  0.91926734171E+02 0.  0.
         11    1    3    3    0    0 -0.36956585896E+02 -0.27403844227E+00  0.48491801106E+03  0.48632431750E+03  0.00000000000E+00 0. -1.
        -11    1    3    3    0    0  0.33158538819E+02  0.54040929082E+02  0.40132624276E+03  0.40630365965E+03  0.00000000000E+00 0.  1.
         22    1    1    2    0    0  0.37980470772E+01 -0.53766890640E+02  0.94309693158E+02  0.10862606462E+03  0.00000000000E+00 0.  1.
<mgrwt>
<rscale>  0 0.89868190E+02</rscale>
<asrwt>0</asrwt>
<pdfrwt beam="1">  1        2 0.15244669E+00 0.10656373E+03</pdfrwt>
<pdfrwt beam="2">  1       -2 0.15923158E-02 0.10656373E+03</pdfrwt>
<totfact> 0.26726990E+04</totfact>
</mgrwt>
</event>
<event>
 6    1  0.1535970E-002  0.1033391E+03  0.7546771E-02  0.1307450E+00
         -2   -1    0    0    0  501 -0.00000000000E+00  0.00000000000E+00  0.43531957723E+02  0.43531957723E+02  0.00000000000E+00 0.  1.
          2   -1    0    0  501    0  0.00000000000E+00 -0.00000000000E+00 -0.15604460932E+03  0.15604460932E+03  0.00000000000E+00 0. -1.
         23    2    1    2    0    0  0.38464992774E+02 -0.38832480570E+02 -0.99361418142E+02  0.14335849026E+03  0.87700901349E+02 0.  0.
         13    1    3    3    0    0  0.11963799826E+02 -0.44456353287E+02 -0.10591299873E+03  0.11548620330E+03  0.00000000000E+00 0. -1.
        -13    1    3    3    0    0  0.26501192948E+02  0.56238727168E+01  0.65515805842E+01  0.27872286956E+02  0.00000000000E+00 0.  1.
         22    1    1    2    0    0 -0.38464992774E+02  0.38832480570E+02 -0.13151233456E+02  0.56218076788E+02  0.00000000000E+00 0.  1.
<mgrwt>
<rscale>  0 0.88127661E+02</rscale>
<asrwt>0</asrwt>
<pdfrwt beam="1">  1        2 0.24006863E-01 0.10333908E+03</pdfrwt>
<pdfrwt beam="2">  1       -2 0.66972242E-02 0.10333908E+03</pdfrwt>
<totfact> 0.25249587E+04</totfact>
</mgrwt>
</event>
<event>
 6    1  0.1535970E-002  0.9115117E+02  0.7546771E-02  0.1417942E+00
          1   -1    0    0  501    0  0.00000000000E+00  0.00000000000E+00  0.29342173138E+02  0.29342173138E+02  0.00000000000E+00 0. -1.
         -1   -1    0    0    0  501 -0.00000000000E+00 -0.00000000000E+00 -0.10627075267E+03  0.10627075267E+03  0.00000000000E+00 0.  1.
         23    2    1    2    0    0  0.95063375285E+01 -0.81024871785E+01 -0.45672664721E+02  0.10195355917E+03  0.90291279609E+02 0.  0.
         11    1    3    3    0    0 -0.96896629452E+01  0.22354537803E+02 -0.58788456282E+02  0.63637233758E+02  0.00000000000E+00 0.  1.
        -11    1    3    3    0    0  0.19196000474E+02 -0.30457024981E+02  0.13115791561E+02  0.38316325413E+02  0.00000000000E+00 0. -1.
         22    1    1    2    0    0 -0.95063375285E+01  0.81024871785E+01 -0.31255914807E+02  0.33659366633E+02  0.00000000000E+00 0.  1.
<mgrwt>
<rscale>  0 0.55458674E+02</rscale>
<asrwt>0</asrwt>
<pdfrwt beam="1">  1        1 0.45141805E-02 0.91151171E+02</pdfrwt>
<pdfrwt beam="2">  1       -1 0.16349346E-01 0.91151171E+02</pdfrwt>
<totfact> 0.46278561E+04</totfact>
</mgrwt>
</event>
<event>
 6    1  0.1535970E-002  0.8147771E+02  0.7546771E-02  0.1437733E+00
         -1   -1    0    0    0  501 -0.00000000000E+00  0.00000000000E+00  0.73702254632E+02  0.73702254632E+02  0.00000000000E+00 0.  1.
          1   -1    0    0  501    0  0.00000000000E+00 -0.00000000000E+00 -0.62566561855E+02  0.62566561855E+02  0.00000000000E+00 0. -1.
         23    2    1    2    0    0 -0.19421354780E+01  0.12796644016E+02 -0.34760276438E+02  0.88582697139E+02  0.80443094334E+02 0.  0.
         11    1    3    3    0    0  0.35649053864E+02 -0.40046152671E+01 -0.30684898092E+02  0.47206513913E+02  0.00000000000E+00 0. -1.
        -11    1    3    3    0    0 -0.37591189342E+02  0.16801259283E+02 -0.40753783454E+01  0.41376183226E+02  0.00000000000E+00 0.  1.
         22    1    1    2    0    0  0.19421354780E+01 -0.12796644016E+02  0.45895969215E+02  0.47686119348E+02  0.00000000000E+00 0.  1.
<mgrwt>
<rscale>  0 0.51438629E+02</rscale>
<asrwt>0</asrwt>
<pdfrwt beam="1">  1        1 0.96256249E-02 0.81477711E+02</pdfrwt>
<pdfrwt beam="2">  1       -1 0.11338808E-01 0.81477711E+02</pdfrwt>
<totfact> 0.29146297E+04</totfact>
</mgrwt>
</event>
<event>
 6    1  0.1535970E-002  0.1175236E+03  0.7546771E-02  0.1274588E+00
         -2   -1    0    0    0  501 -0.00000000000E+00  0.00000000000E+00  0.62228406583E+02  0.62228406583E+02  0.00000000000E+00 0. -1.
          2   -1    0    0  501    0  0.00000000000E+00 -0.00000000000E+00 -0.14443583827E+03  0.14443583827E+03  0.00000000000E+00 0.  1.
         23    2    1    2    0    0 -0.68622678421E+02  0.33733413723E+01 -0.70269848920E+02  0.13692933747E+03  0.95348520523E+02 0.  0.
         13    1    3    3    0    0 -0.11633842983E+02  0.37825908518E+02 -0.56412126494E+02  0.68909169733E+02  0.00000000000E+00 0.  1.
        -13    1    3    3    0    0 -0.56988835438E+02 -0.34452567146E+02 -0.13857722426E+02  0.68020167732E+02  0.00000000000E+00 0. -1.
         22    1    1    2    0    0  0.68622678421E+02 -0.33733413723E+01 -0.11937582764E+02  0.69734907384E+02  0.00000000000E+00 0.  1.
<mgrwt>
<rscale>  0 0.10276417E+03</rscale>
<asrwt>0</asrwt>
<pdfrwt beam="1">  1        2 0.22220898E-01 0.11752358E+03</pdfrwt>
<pdfrwt beam="2">  1       -2 0.95736010E-02 0.11752358E+03</pdfrwt>
<totfact> 0.16094350E+04</totfact>
</mgrwt>
</event>
<event>
 6    1  0.1535970E-002  0.9591828E+02  0.7546771E-02  0.1362837E+00
         -2   -1    0    0    0  501 -0.00000000000E+00  0.00000000000E+00  0.46856038151E+02  0.46856038151E+02  0.00000000000E+00 0.  1.
          2   -1    0    0  501    0  0.00000000000E+00 -0.00000000000E+00 -0.82037936668E+02  0.82037936668E+02  0.00000000000E+00 0. -1.
         23    2    1    2    0    0  0.23853142684E+02 -0.10304529919E+02 -0.37091476883E+02  0.10284014128E+03  0.92331799763E+02 0.  0.
         11    1    3    3    0    0 -0.53114229681E+01 -0.18619179507E+02 -0.61141972552E+02  0.64134435891E+02  0.00000000000E+00 0. -1.
        -11    1    3    3    0    0  0.29164565652E+02  0.83146495877E+01  0.24050495669E+02  0.38705705385E+02  0.00000000000E+00 0.  1.
         22    1    1    2    0    0 -0.23853142684E+02  0.10304529919E+02  0.19095783668E+01  0.26053833543E+02  0.00000000000E+00 0. -1.
<mgrwt>
<rscale>  0 0.69199275E+02</rscale>
<asrwt>0</asrwt>
<pdfrwt beam="1">  1        2 0.12621221E-01 0.95918283E+02</pdfrwt>
<pdfrwt beam="2">  1       -2 0.72086213E-02 0.95918283E+02</pdfrwt>
<totfact> 0.46554371E+04</totfact>
</mgrwt>
</event>
<event>
 6    1  0.1535970E-002  0.9183855E+02  0.7546771E-02  0.1430043E+00
          2   -1    0    0  501    0  0.00000000000E+00  0.00000000000E+00  0.16821691991E+04  0.16821691991E+04  0.00000000000E+00 0. -1.
         -2   -1    0    0    0  501 -0.00000000000E+00 -0.00000000000E+00 -0.31930810640E+01  0.31930810640E+01  0.00000000000E+00 0.  1.
         23    2    1    2    0    0  0.77359501560E+01  0.65697896321E+01  0.16675598157E+04  0.16700868418E+04  0.91276025721E+02 0.  0.
         13    1    3    3    0    0  0.26632774049E+02  0.13817734135E+02  0.15773156625E+04  0.15776010058E+04  0.00000000000E+00 0. -1.
        -13    1    3    3    0    0 -0.18896823893E+02 -0.72479445032E+01  0.90244153277E+02  0.92485835961E+02  0.00000000000E+00 0.  1.
         22    1    1    2    0    0 -0.77359501560E+01 -0.65697896321E+01  0.11416302315E+02  0.15275438428E+02  0.00000000000E+00 0. -1.
<mgrwt>
<rscale>  0 0.52951364E+02</rscale>
<asrwt>0</asrwt>
<pdfrwt beam="1">  1        2 0.25879455E+00 0.91838554E+02</pdfrwt>
<pdfrwt beam="2">  1       -2 0.49124459E-03 0.91838554E+02</pdfrwt>
<totfact> 0.59626506E+04</totfact>
</mgrwt>
</event>
<event>
 6    1  0.1535970E-002  0.9077480E+02  0.7546771E-02  0.1399318E+00
          4   -1    0    0  501    0  0.00000000000E+00  0.00000000000E+00  0.65346970024E+02  0.65346970024E+02  0.00000000000E+00 0. -1.
         -4   -1    0    0    0  501 -0.00000000000E+00 -0.00000000000E+00 -0.44419221352E+02  0.44419221352E+02  0.00000000000E+00 0.  1.
         23    2    1    2    0    0 -0.16811155802E+02 -0.19385232490E+01  0.18912788541E+02  0.92724099482E+02  0.89183475053E+02 0.  0.
         13    1    3    3    0    0  0.25834953974E+02  0.10320678404E+02 -0.19549115567E+02  0.34001899491E+02  0.00000000000E+00 0.  1.
        -13    1    3    3    0    0 -0.42646109776E+02 -0.12259201653E+02  0.38461904107E+02  0.58722199991E+02  0.00000000000E+00 0. -1.
         22    1    1    2    0    0  0.16811155802E+02  0.19385232490E+01  0.20149601320E+01  0.17042091894E+02  0.00000000000E+00 0. -1.
<mgrwt>
<rscale>  0 0.59647256E+02</rscale>
<asrwt>0</asrwt>
<pdfrwt beam="1">  1        4 0.10053380E-01 0.90774804E+02</pdfrwt>
<pdfrwt beam="2">  1       -4 0.68337264E-02 0.90774804E+02</pdfrwt>
<totfact> 0.15546145E+04</totfact>
</mgrwt>
</event>
<event>
 6    1  0.1535970E-002  0.7650070E+02  0.7546771E-02  0.1401190E+00
         -2   -1    0    0    0  501 -0.00000000000E+00  0.00000000000E+00  0.13735506317E+02  0.13735506317E+02  0.00000000000E+00 0.  1.
          2   -1    0    0  501    0  0.00000000000E+00 -0.00000000000E+00 -0.33701781902E+03  0.33701781902E+03  0.00000000000E+00 0. -1.
         23    2    1    2    0    0  0.27373556974E+02 -0.20079355195E+01 -0.31172052834E+03  0.32097047315E+03  0.71407376505E+02 0.  0.
         11    1    3    3    0    0 -0.83906902451E+01 -0.17645527785E+02 -0.25624516632E+02  0.32223969126E+02  0.00000000000E+00 0.  1.
        -11    1    3    3    0    0  0.35764247220E+02  0.15637592266E+02 -0.28609601171E+03  0.28874650403E+03  0.00000000000E+00 0. -1.
         22    1    1    2    0    0 -0.27373556974E+02  0.20079355195E+01 -0.11561784355E+02  0.29782852180E+02  0.00000000000E+00 0.  1.
<mgrwt>
<rscale>  0 0.59207016E+02</rscale>
<asrwt>0</asrwt>
<pdfrwt beam="1">  1        2 0.51848890E-01 0.76500698E+02</pdfrwt>
<pdfrwt beam="2">  1       -2 0.21131550E-02 0.76500698E+02</pdfrwt>
<totfact> 0.58467881E+04</totfact>
</mgrwt>
</event>
<event>
 6    1  0.1535970E-002  0.1230111E+03  0.7546771E-02  0.1325445E+00
         -1   -1    0    0    0  501 -0.00000000000E+00  0.00000000000E+00  0.59541129632E+02  0.59541129632E+02  0.00000000000E+00 0.  1.
          1   -1    0    0  501    0  0.00000000000E+00 -0.00000000000E+00 -0.93141772486E+02  0.93141772486E+02  0.00000000000E+00 0. -1.
         23    2    1    2    0    0 -0.19119129962E+02 -0.13583359954E+02 -0.17534499781E+02  0.12425457555E+03  0.12075467720E+03 0.  0.
         11    1    3    3    0    0 -0.51472093439E+02  0.32022955039E+02 -0.28959946081E+02  0.67182769587E+02  0.00000000000E+00 0. -1.
        -11    1    3    3    0    0  0.32352963477E+02 -0.45606314992E+02  0.11425446300E+02  0.57071805965E+02  0.00000000000E+00 0.  1.
         22    1    1    2    0    0  0.19119129962E+02  0.13583359954E+02 -0.16066143073E+02  0.28428326566E+02  0.00000000000E+00 0. -1.
<mgrwt>
<rscale>  0 0.81284640E+02</rscale>
<asrwt>0</asrwt>
<pdfrwt beam="1">  1        1 0.14329503E-01 0.12301114E+03</pdfrwt>
<pdfrwt beam="2">  1       -1 0.91601739E-02 0.12301114E+03</pdfrwt>
<totfact> 0.25205456E+04</totfact>
</mgrwt>
</event>
<event>
 6    1  0.1535970E-002  0.1012750E+03  0.7546771E-02  0.1328527E+00
          1   -1    0    0  501    0  0.00000000000E+00  0.00000000000E+00  0.91271805639E+03  0.91271805639E+03  0.00000000000E+00 0. -1.
         -1   -1    0    0    0  501 -0.00000000000E+00 -0.00000000000E+00 -0.12768271183E+02  0.12768271183E+02  0.00000000000E+00 0.  1.
         23    2    1    2    0    0  0.38965454103E+02  0.81017640510E+01  0.86949216147E+03  0.87537034172E+03  0.93127177083E+02 0.  0.
         11    1    3    3    0    0  0.14636194090E+02  0.48024621334E+02  0.57530004934E+03  0.57748656192E+03  0.00000000000E+00 0. -1.
        -11    1    3    3    0    0  0.24329260014E+02 -0.39922857283E+02  0.29419211213E+03  0.29788377980E+03  0.00000000000E+00 0.  1.
         22    1    1    2    0    0 -0.38965454103E+02 -0.81017640510E+01  0.30457623738E+02  0.50115985853E+02  0.00000000000E+00 0.  1.
<mgrwt>
<rscale>  0 0.80185171E+02</rscale>
<asrwt>0</asrwt>
<pdfrwt beam="1">  1        1 0.14041811E+00 0.10127495E+03</pdfrwt>
<pdfrwt beam="2">  1       -1 0.19643501E-02 0.10127495E+03</pdfrwt>
<totfact> 0.12346105E+04</totfact>
</mgrwt>
</event>
<event>
 6    1  0.1535970E-002  0.9224960E+02  0.7546771E-02  0.1380610E+00
         -2   -1    0    0    0  501 -0.00000000000E+00  0.00000000000E+00  0.76751369484E+01  0.76751369484E+01  0.00000000000E+00 0.  1.
          2   -1    0    0  501    0  0.00000000000E+00 -0.00000000000E+00 -0.44355263089E+03  0.44355263089E+03  0.00000000000E+00 0. -1.
         23    2    1    2    0    0 -0.16453373660E+02 -0.14270281546E+02 -0.38475061136E+03  0.39565517961E+03  0.89641696591E+02 0.  0.
         11    1    3    3    0    0 -0.26972979406E+02  0.58802987235E+01 -0.32375002492E+02  0.42547154047E+02  0.00000000000E+00 0.  1.
        -11    1    3    3    0    0  0.10519605746E+02 -0.20150580269E+02 -0.35237560887E+03  0.35310802556E+03  0.00000000000E+00 0. -1.
         22    1    1    2    0    0  0.16453373660E+02  0.14270281546E+02 -0.51126882580E+02  0.55572588230E+02  0.00000000000E+00 0.  1.
<mgrwt>
<rscale>  0 0.64303740E+02</rscale>
<asrwt>0</asrwt>
<pdfrwt beam="1">  1        2 0.68238856E-01 0.92249597E+02</pdfrwt>
<pdfrwt beam="2">  1       -2 0.11807905E-02 0.92249597E+02</pdfrwt>
<totfact> 0.10320906E+05</totfact>
</mgrwt>
</event>
<event>
 6    1  0.1535970E-002  0.9414550E+02  0.7546771E-02  0.1407301E+00
         -2   -1    0    0    0  501 -0.00000000000E+00  0.00000000000E+00  0.21023585515E+02  0.21023585515E+02  0.00000000000E+00 0.  1.
          2   -1    0    0  501    0  0.00000000000E+00 -0.00000000000E+00 -0.58744866661E+03  0.58744866661E+03  0.00000000000E+00 0. -1.
         23    2    1    2    0    0 -0.51502489988E+01  0.12344674200E+02 -0.58106468736E+03  0.58864212056E+03  0.93190445615E+02 0.  0.
         11    1    3    3    0    0 -0.46253366852E+02  0.21923808862E+02 -0.35505048692E+03  0.35872116693E+03  0.00000000000E+00 0. -1.
        -11    1    3    3    0    0  0.41103117853E+02 -0.95791346616E+01 -0.22601420044E+03  0.22992095363E+03  0.00000000000E+00 0.  1.
         22    1    1    2    0    0  0.51502489988E+01 -0.12344674200E+02  0.14639606272E+02  0.19830131559E+02  0.00000000000E+00 0.  1.
<mgrwt>
<rscale>  0 0.57800399E+02</rscale>
<asrwt>0</asrwt>
<pdfrwt beam="1">  1        2 0.90376724E-01 0.94145500E+02</pdfrwt>
<pdfrwt beam="2">  1       -2 0.32343975E-02 0.94145500E+02</pdfrwt>
<totfact> 0.17907960E+04</totfact>
</mgrwt>
</event>
<event>
 6    1  0.1535970E-002  0.9067095E+02  0.7546771E-02  0.1418550E+00
          1   -1    0    0  501    0  0.00000000000E+00  0.00000000000E+00  0.25638012077E+03  0.25638012077E+03  0.00000000000E+00 0. -1.
         -1   -1    0    0    0  501 -0.00000000000E+00 -0.00000000000E+00 -0.10396493647E+02  0.10396493647E+02  0.00000000000E+00 0.  1.
         23    2    1    2    0    0 -0.12562851283E+02  0.47614142275E+00  0.21740438120E+03  0.23555442294E+03  0.89795151649E+02 0.  0.
         11    1    3    3    0    0  0.23983788348E+02  0.32388517607E+02  0.12262829277E+03  0.12908112319E+03  0.00000000000E+00 0.  1.
        -11    1    3    3    0    0 -0.36546639631E+02 -0.31912376185E+02  0.94776088430E+02  0.10647329975E+03  0.00000000000E+00 0. -1.
         22    1    1    2    0    0  0.12562851283E+02 -0.47614142275E+00  0.28579245926E+02  0.31222191478E+02  0.00000000000E+00 0.  1.
<mgrwt>
<rscale>  0 0.55328781E+02</rscale>
<asrwt>0</asrwt>
<pdfrwt beam="1">  1        1 0.39443091E-01 0.90670950E+02</pdfrwt>
<pdfrwt beam="2">  1       -1 0.15994607E-02 0.90670950E+02</pdfrwt>
<totfact> 0.87257054E+04</totfact>
</mgrwt>
</event>
<event>
 6    1  0.1535970E-002  0.9385900E+02  0.7546771E-02  0.1380121E+00
          4   -1    0    0  501    0  0.00000000000E+00  0.00000000000E+00  0.64213151612E+02  0.64213151612E+02  0.00000000000E+00 0. -1.
         -4   -1    0    0    0  501 -0.00000000000E+00 -0.00000000000E+00 -0.60290859206E+02  0.60290859206E+02  0.00000000000E+00 0.  1.
         23    2    1    2    0    0 -0.71597764673E+01  0.19575735844E+02  0.22571635327E+02  0.96534923877E+02  0.91515249952E+02 0.  0.
         13    1    3    3    0    0  0.37442403967E+02 -0.84224199501E+01 -0.19847117417E+01  0.38429283800E+02  0.00000000000E+00 0.  1.
        -13    1    3    3    0    0 -0.44602180435E+02  0.27998155794E+02  0.24556347069E+02  0.58105640077E+02  0.00000000000E+00 0. -1.
         22    1    1    2    0    0  0.71597764673E+01 -0.19575735844E+02 -0.18649342921E+02  0.27969086940E+02  0.00000000000E+00 0.  1.
<mgrwt>
<rscale>  0 0.64432082E+02</rscale>
<asrwt>0</asrwt>
<pdfrwt beam="1">  1        4 0.98789464E-02 0.93859005E+02</pdfrwt>
<pdfrwt beam="2">  1       -4 0.92755168E-02 0.93859005E+02</pdfrwt>
<totfact> 0.97892472E+03</totfact>
</mgrwt>
</event>
<event>
 6    1  0.1535970E-002  0.9403525E+02  0.7546771E-02  0.1382729E+00
         -2   -1    0    0    0  501 -0.00000000000E+00  0.00000000000E+00  0.68628580508E+01  0.68628580508E+01  0.00000000000E+00 0.  1.
          2   -1    0    0  501    0  0.00000000000E+00 -0.00000000000E+00 -0.89005721359E+03  0.89005721359E+03  0.00000000000E+00 0. -1.
         23    2    1    2    0    0  0.17449451145E+02  0.94949364953E+01 -0.86463643973E+03  0.86973490283E+03  0.91912954027E+02 0.  0.
         11    1    3    3    0    0  0.41290230076E+02 -0.25816886046E+01 -0.18483547741E+03  0.18940882219E+03  0.00000000000E+00 0.  1.
        -11    1    3    3    0    0 -0.23840778932E+02  0.12076625100E+02 -0.67980096233E+03  0.68032608064E+03  0.00000000000E+00 0. -1.
         22    1    1    2    0    0 -0.17449451145E+02 -0.94949364953E+01 -0.18557915804E+02  0.27185168811E+02  0.00000000000E+00 0.  1.
<mgrwt>
<rscale>  0 0.63751845E+02</rscale>
<asrwt>0</asrwt>
<pdfrwt beam="1">  1        2 0.13693184E+00 0.94035250E+02</pdfrwt>
<pdfrwt beam="2">  1       -2 0.10558246E-02 0.94035250E+02</pdfrwt>
<totfact> 0.54604031E+04</totfact>
</mgrwt>
</event>
<event>
 6    1  0.1535970E-002  0.9406845E+02  0.7546771E-02  0.1397459E+00
         -2   -1    0    0    0  501 -0.00000000000E+00  0.00000000000E+00  0.72120277352E+02  0.72120277352E+02  0.00000000000E+00 0.  1.
          2   -1    0    0  501    0  0.00000000000E+00 -0.00000000000E+00 -0.46803760894E+02  0.46803760894E+02  0.00000000000E+00 0. -1.
         23    2    1    2    0    0  0.15635623351E+02  0.90544657936E+00  0.62870918964E+01  0.94278317518E+02  0.92755490826E+02 0.  0.
         11    1    3    3    0    0  0.31888772656E+02  0.14752888978E+01  0.43331679140E+02  0.53821043430E+02  0.00000000000E+00 0.  1.
        -11    1    3    3    0    0 -0.16253149305E+02 -0.56984231847E+00 -0.37044587243E+02  0.40457274088E+02  0.00000000000E+00 0. -1.
         22    1    1    2    0    0 -0.15635623351E+02 -0.90544657936E+00  0.19029424561E+02  0.24645720728E+02  0.00000000000E+00 0. -1.
<mgrwt>
<rscale>  0 0.60088802E+02</rscale>
<asrwt>0</asrwt>
<pdfrwt beam="1">  1        2 0.72005785E-02 0.94068452E+02</pdfrwt>
<pdfrwt beam="2">  1       -2 0.11095427E-01 0.94068452E+02</pdfrwt>
<totfact> 0.47301334E+04</totfact>
</mgrwt>
</event>
<event>
 6    1  0.1535970E-002  0.9235279E+02  0.7546771E-02  0.1422611E+00
          2   -1    0    0  501    0  0.00000000000E+00  0.00000000000E+00  0.62519853028E+03  0.62519853028E+03  0.00000000000E+00 0. -1.
         -2   -1    0    0    0  501 -0.00000000000E+00 -0.00000000000E+00 -0.43830518940E+01  0.43830518940E+01  0.00000000000E+00 0.  1.
         23    2    1    2    0    0  0.99010566172E+01  0.51876285815E+01  0.57797537606E+03  0.58530724673E+03  0.91673852983E+02 0.  0.
         13    1    3    3    0    0 -0.25262443546E+02 -0.31471810158E+02  0.21004621612E+03  0.21388800526E+03  0.00000000000E+00 0. -1.
        -13    1    3    3    0    0  0.35163500163E+02  0.36659438740E+02  0.36792915995E+03  0.37141924147E+03  0.00000000000E+00 0.  1.
         22    1    1    2    0    0 -0.99010566172E+01 -0.51876285815E+01  0.42840102323E+02  0.44274335449E+02  0.00000000000E+00 0. -1.
<mgrwt>
<rscale>  0 0.54472367E+02</rscale>
<asrwt>0</asrwt>
<pdfrwt beam="1">  1        2 0.96184319E-01 0.92352790E+02</pdfrwt>
<pdfrwt beam="2">  1       -2 0.67431617E-03 0.92352790E+02</pdfrwt>
<totfact> 0.15660648E+05</totfact>
</mgrwt>
</event>
<event>
 6    1  0.1535970E-002  0.9312577E+02  0.7546771E-02  0.1373353E+00
          2   -1    0    0  501    0  0.00000000000E+00  0.00000000000E+00  0.31621106727E+03  0.31621106727E+03  0.00000000000E+00 0. -1.
         -2   -1    0    0    0  501 -0.00000000000E+00 -0.00000000000E+00 -0.11401375138E+02  0.11401375138E+02  0.00000000000E+00 0.  1.
         23    2    1    2    0    0  0.80106221954E+01 -0.22457723904E+02  0.26833929056E+03  0.28403940463E+03  0.90021603461E+02 0.  0.
         13    1    3    3    0    0 -0.40871097168E+02 -0.80235288927E+01  0.13553323623E+03  0.14178886318E+03  0.00000000000E+00 0. -1.
        -13    1    3    3    0    0  0.48881719363E+02 -0.14434195011E+02  0.13280605433E+03  0.14225054144E+03  0.00000000000E+00 0.  1.
         22    1    1    2    0    0 -0.80106221954E+01  0.22457723904E+02  0.36470401571E+02  0.43573037783E+02  0.00000000000E+00 0. -1.
<mgrwt>
<rscale>  0 0.66243850E+02</rscale>
<asrwt>0</asrwt>
<pdfrwt beam="1">  1        2 0.48647850E-01 0.93125767E+02</pdfrwt>
<pdfrwt beam="2">  1       -2 0.17540580E-02 0.93125767E+02</pdfrwt>
<totfact> 0.83898984E+04</totfact>
</mgrwt>
</event>
<event>
 6    1  0.1535970E-002  0.1056182E+03  0.7546771E-02  0.1314748E+00
         -2   -1    0    0    0  501 -0.00000000000E+00  0.00000000000E+00  0.24289550540E+02  0.24289550540E+02  0.00000000000E+00 0.  1.
          2   -1    0    0  501    0  0.00000000000E+00 -0.00000000000E+00 -0.41762082539E+03  0.41762082539E+03  0.00000000000E+00 0. -1.
         23    2    1    2    0    0 -0.44333248371E+02  0.68239921104E+01 -0.38103209767E+03  0.39539937144E+03  0.95620080000E+02 0.  0.
         13    1    3    3    0    0 -0.32991372690E+02  0.42622156432E+02 -0.31376172051E+03  0.31835749739E+03  0.00000000000E+00 0. -1.
        -13    1    3    3    0    0 -0.11341875682E+02 -0.35798164321E+02 -0.67270377167E+02  0.77041874049E+02  0.00000000000E+00 0.  1.
         22    1    1    2    0    0  0.44333248371E+02 -0.68239921104E+01 -0.12299177178E+02  0.46511004491E+02  0.00000000000E+00 0.  1.
<mgrwt>
<rscale>  0 0.85262421E+02</rscale>
<asrwt>0</asrwt>
<pdfrwt beam="1">  1        2 0.64249361E-01 0.10561820E+03</pdfrwt>
<pdfrwt beam="2">  1       -2 0.37368538E-02 0.10561820E+03</pdfrwt>
<totfact> 0.21217168E+04</totfact>
</mgrwt>
</event>
<event>
 6    1  0.1535970E-002  0.9549417E+02  0.7546771E-02  0.1370927E+00
          2   -1    0    0  501    0  0.00000000000E+00  0.00000000000E+00  0.85423476150E+02  0.85423476150E+02  0.00000000000E+00 0. -1.
         -2   -1    0    0    0  501 -0.00000000000E+00 -0.00000000000E+00 -0.41173292679E+02  0.41173292679E+02  0.00000000000E+00 0.  1.
         23    2    1    2    0    0  0.22316709692E+02 -0.56322522139E+01  0.37698033739E+02  0.10266585864E+03  0.92678902591E+02 0.  0.
         13    1    3    3    0    0  0.17605372129E+02 -0.38942010636E+02  0.50957000505E+02  0.66505978834E+02  0.00000000000E+00 0. -1.
        -13    1    3    3    0    0  0.47113375623E+01  0.33309758422E+02 -0.13258966765E+02  0.36159879804E+02  0.00000000000E+00 0.  1.
         22    1    1    2    0    0 -0.22316709692E+02  0.56322522139E+01  0.65521497315E+01  0.23930910191E+02  0.00000000000E+00 0.  1.
<mgrwt>
<rscale>  0 0.66910199E+02</rscale>
<asrwt>0</asrwt>
<pdfrwt beam="1">  1        2 0.13142073E-01 0.95494171E+02</pdfrwt>
<pdfrwt beam="2">  1       -2 0.63343527E-02 0.95494171E+02</pdfrwt>
<totfact> 0.53946211E+04</totfact>
</mgrwt>
</event>
<event>
 6    1  0.1535970E-002  0.9351600E+02  0.7546771E-02  0.1366110E+00
          2   -1    0    0  501    0  0.00000000000E+00  0.00000000000E+00  0.83513527078E+03  0.83513527078E+03  0.00000000000E+00 0. -1.
         -2   -1    0    0    0  501 -0.00000000000E+00 -0.00000000000E+00 -0.47007241325E+01  0.47007241325E+01  0.00000000000E+00 0.  1.
         23    2    1    2    0    0 -0.22297212207E+02 -0.14408617278E+02  0.72946004169E+03  0.73542993869E+03  0.89668658840E+02 0.  0.
         13    1    3    3    0    0 -0.28025604725E+02 -0.43898239169E+02  0.26927520684E+03  0.27426561385E+03  0.00000000000E+00 0. -1.
        -13    1    3    3    0    0  0.57283925179E+01  0.29489621891E+02  0.46018483485E+03  0.46116432485E+03  0.00000000000E+00 0.  1.
         22    1    1    2    0    0  0.22297212207E+02  0.14408617278E+02  0.10097450495E+03  0.10440605622E+03  0.00000000000E+00 0.  1.
<mgrwt>
<rscale>  0 0.68260690E+02</rscale>
<asrwt>0</asrwt>
<pdfrwt beam="1">  1        2 0.12848223E+00 0.93516000E+02</pdfrwt>
<pdfrwt beam="2">  1       -2 0.72318899E-03 0.93516000E+02</pdfrwt>
<totfact> 0.10095347E+05</totfact>
</mgrwt>
</event>
<event>
 6    1  0.1535970E-002  0.9184891E+02  0.7546771E-02  0.1396163E+00
          2   -1    0    0  501    0  0.00000000000E+00  0.00000000000E+00  0.46769971895E+02  0.46769971895E+02  0.00000000000E+00 0. -1.
         -2   -1    0    0    0  501 -0.00000000000E+00 -0.00000000000E+00 -0.69039414479E+02  0.69039414479E+02  0.00000000000E+00 0.  1.
         23    2    1    2    0    0 -0.10683972493E+02 -0.13448147976E+02 -0.58291478076E+01  0.92033700378E+02  0.90228726517E+02 0.  0.
         13    1    3    3    0    0  0.27004968543E+02  0.13656526508E+02  0.22445965670E+02  0.37677452371E+02  0.00000000000E+00 0. -1.
        -13    1    3    3    0    0 -0.37688941036E+02 -0.27104674484E+02 -0.28275113478E+02  0.54356248007E+02  0.00000000000E+00 0.  1.
         22    1    1    2    0    0  0.10683972493E+02  0.13448147976E+02 -0.16440294776E+02  0.23775685995E+02  0.00000000000E+00 0. -1.
<mgrwt>
<rscale>  0 0.60399489E+02</rscale>
<asrwt>0</asrwt>
<pdfrwt beam="1">  1        2 0.71953802E-02 0.91848914E+02</pdfrwt>
<pdfrwt beam="2">  1       -2 0.10621448E-01 0.91848914E+02</pdfrwt>
<totfact> 0.50529880E+04</totfact>
</mgrwt>
</event>
<event>
 6    1  0.1535970E-002  0.9071562E+02  0.7546771E-02  0.1425867E+00
          2   -1    0    0  501    0  0.00000000000E+00  0.00000000000E+00  0.11334020740E+04  0.11334020740E+04  0.00000000000E+00 0. -1.
         -2   -1    0    0    0  501 -0.00000000000E+00 -0.00000000000E+00 -0.45414786188E+01  0.45414786188E+01  0.00000000000E+00 0.  1.
         23    2    1    2    0    0 -0.11091536984E+02  0.17010460686E+01  0.11199414371E+04  0.11236094278E+04  0.90018930737E+02 0.  0.
         11    1    3    3    0    0  0.14096607586E+02  0.37547321122E+02  0.32560698540E+03  0.32806771346E+03  0.00000000000E+00 0. -1.
        -11    1    3    3    0    0 -0.25188144571E+02 -0.35846275054E+02  0.79433445168E+03  0.79554171430E+03  0.00000000000E+00 0.  1.
         22    1    1    2    0    0  0.11091536984E+02 -0.17010460686E+01  0.89191582523E+01  0.14334124819E+02  0.00000000000E+00 0.  1.
<mgrwt>
<rscale>  0 0.53798673E+02</rscale>
<asrwt>0</asrwt>
<pdfrwt beam="1">  1        2 0.17436932E+00 0.90715620E+02</pdfrwt>
<pdfrwt beam="2">  1       -2 0.69868992E-03 0.90715620E+02</pdfrwt>
<totfact> 0.70189534E+04</totfact>
</mgrwt>
</event>
<event>
 6    1  0.1535970E-002  0.8738053E+02  0.7546771E-02  0.1428804E+00
          1   -1    0    0  501    0  0.00000000000E+00  0.00000000000E+00  0.54682559672E+03  0.54682559672E+03  0.00000000000E+00 0. -1.
         -1   -1    0    0    0  501 -0.00000000000E+00 -0.00000000000E+00 -0.53310045238E+01  0.53310045238E+01  0.00000000000E+00 0.  1.
         23    2    1    2    0    0 -0.74522720242E+01 -0.94142892562E+01  0.52198560899E+03  0.52924883780E+03  0.86551667303E+02 0.  0.
         11    1    3    3    0    0  0.26232191032E+02 -0.18000274736E+02  0.82988539762E+02  0.88877643245E+02  0.00000000000E+00 0.  1.
        -11    1    3    3    0    0 -0.33684463056E+02  0.85859854793E+01  0.43899706923E+03  0.44037119455E+03  0.00000000000E+00 0. -1.
         22    1    1    2    0    0  0.74522720242E+01  0.94142892562E+01  0.19508983203E+02  0.22907763447E+02  0.00000000000E+00 0. -1.
<mgrwt>
<rscale>  0 0.53200847E+02</rscale>
<asrwt>0</asrwt>
<pdfrwt beam="1">  1        1 0.84126971E-01 0.87380526E+02</pdfrwt>
<pdfrwt beam="2">  1       -1 0.82015497E-03 0.87380526E+02</pdfrwt>
<totfact> 0.86888891E+04</totfact>
</mgrwt>
</event>
<event>
 6    1  0.1535970E-002  0.9052278E+02  0.7546771E-02  0.1432212E+00
         -1   -1    0    0    0  501 -0.00000000000E+00  0.00000000000E+00  0.47371085527E+02  0.47371085527E+02  0.00000000000E+00 0.  1.
          1   -1    0    0  501    0  0.00000000000E+00 -0.00000000000E+00 -0.57948004233E+02  0.57948004233E+02  0.00000000000E+00 0. -1.
         23    2    1    2    0    0  0.75061265358E+01 -0.69888070935E+01 -0.18457146190E+02  0.92385283461E+02  0.89939918804E+02 0.  0.
         11    1    3    3    0    0 -0.16044412761E+02 -0.40726834573E+02  0.65148736785E+01  0.44255415648E+02  0.00000000000E+00 0.  1.
        -11    1    3    3    0    0  0.23550539296E+02  0.33738027479E+02 -0.24972019869E+02  0.48129867813E+02  0.00000000000E+00 0. -1.
         22    1    1    2    0    0 -0.75061265358E+01  0.69888070935E+01  0.78802274847E+01  0.12933806299E+02  0.00000000000E+00 0. -1.
<mgrwt>
<rscale>  0 0.52518563E+02</rscale>
<asrwt>0</asrwt>
<pdfrwt beam="1">  1        1 0.89150776E-02 0.90522784E+02</pdfrwt>
<pdfrwt beam="2">  1       -1 0.72878593E-02 0.90522784E+02</pdfrwt>
<totfact> 0.63488849E+04</totfact>
</mgrwt>
</event>
<event>
 6    1  0.1535970E-002  0.9180093E+02  0.7546771E-02  0.1387984E+00
         -3   -1    0    0    0  501 -0.00000000000E+00  0.00000000000E+00  0.53335287803E+02  0.53335287803E+02  0.00000000000E+00 0.  1.
          3   -1    0    0  501    0  0.00000000000E+00 -0.00000000000E+00 -0.60398841200E+02  0.60398841200E+02  0.00000000000E+00 0. -1.
         23    2    1    2    0    0  0.11241002287E+02 -0.16069496114E+02 -0.14144013825E+02  0.92884146806E+02  0.89681786127E+02 0.  0.
         11    1    3    3    0    0 -0.91563292125E+00 -0.91257037411E+01  0.37897968246E+02  0.38991958781E+02  0.00000000000E+00 0.  1.
        -11    1    3    3    0    0  0.12156635208E+02 -0.69437923727E+01 -0.52041982072E+02  0.53892188024E+02  0.00000000000E+00 0. -1.
         22    1    1    2    0    0 -0.11241002287E+02  0.16069496114E+02  0.70804604285E+01  0.20849982198E+02  0.00000000000E+00 0.  1.
<mgrwt>
<rscale>  0 0.62410823E+02</rscale>
<asrwt>0</asrwt>
<pdfrwt beam="1">  1        3 0.92921294E-02 0.91800935E+02</pdfrwt>
<pdfrwt beam="2">  1       -3 0.82054289E-02 0.91800935E+02</pdfrwt>
<totfact> 0.17479460E+04</totfact>
</mgrwt>
</event>
<event>
 6    1  0.1535970E-002  0.9307883E+02  0.7546771E-02  0.1381528E+00
         -2   -1    0    0    0  501 -0.00000000000E+00  0.00000000000E+00  0.58581646563E+02  0.58581646563E+02  0.00000000000E+00 0.  1.
          2   -1    0    0  501    0  0.00000000000E+00 -0.00000000000E+00 -0.76262393240E+02  0.76262393240E+02  0.00000000000E+00 0. -1.
         23    2    1    2    0    0  0.39925047324E+01  0.20502835180E+02 -0.42569611224E+02  0.10235154955E+03  0.90704804452E+02 0.  0.
         13    1    3    3    0    0 -0.66970131361E+01  0.32890541319E+02 -0.65841340202E+02  0.73903448992E+02  0.00000000000E+00 0. -1.
        -13    1    3    3    0    0  0.10689517868E+02 -0.12387706139E+02  0.23271728978E+02  0.28448100557E+02  0.00000000000E+00 0.  1.
         22    1    1    2    0    0 -0.39925047324E+01 -0.20502835180E+02  0.24888864547E+02  0.32492490254E+02  0.00000000000E+00 0.  1.
<mgrwt>
<rscale>  0 0.64063714E+02</rscale>
<asrwt>0</asrwt>
<pdfrwt beam="1">  1        2 0.11732676E-01 0.93078826E+02</pdfrwt>
<pdfrwt beam="2">  1       -2 0.90125610E-02 0.93078826E+02</pdfrwt>
<totfact> 0.35926230E+04</totfact>
</mgrwt>
</event>
<event>
 6    1  0.1535970E-002  0.1326900E+03  0.7546771E-02  0.1265222E+00
          2   -1    0    0  501    0  0.00000000000E+00  0.00000000000E+00  0.28526278060E+03  0.28526278060E+03  0.00000000000E+00 0. -1.
         -2   -1    0    0    0  501 -0.00000000000E+00 -0.00000000000E+00 -0.90758497659E+02  0.90758497659E+02  0.00000000000E+00 0.  1.
         23    2    1    2    0    0 -0.85329718445E+01 -0.56577951652E+02  0.25826138603E+03  0.29035422266E+03  0.11971948412E+03 0.  0.
         13    1    3    3    0    0  0.37487465001E+02  0.19214279354E+02  0.61584719598E+02  0.74613512525E+02  0.00000000000E+00 0.  1.
        -13    1    3    3    0    0 -0.46020436845E+02 -0.75792231007E+02  0.19667666643E+03  0.21574071013E+03  0.00000000000E+00 0. -1.
         22    1    1    2    0    0  0.85329718445E+01  0.56577951652E+02 -0.63757103089E+02  0.85667055605E+02  0.00000000000E+00 0.  1.
<mgrwt>
<rscale>  0 0.10752548E+03</rscale>
<asrwt>0</asrwt>
<pdfrwt beam="1">  1        2 0.43886581E-01 0.13268998E+03</pdfrwt>
<pdfrwt beam="2">  1       -2 0.13962846E-01 0.13268998E+03</pdfrwt>
<totfact> 0.42765365E+03</totfact>
</mgrwt>
</event>
<event>
 6    1  0.1535970E-002  0.9177810E+02  0.7546771E-02  0.1404056E+00
         -2   -1    0    0    0  501 -0.00000000000E+00  0.00000000000E+00  0.36109849366E+01  0.36109849366E+01  0.00000000000E+00 0.  1.
          2   -1    0    0  501    0  0.00000000000E+00 -0.00000000000E+00 -0.10391119072E+04  0.10391119072E+04  0.00000000000E+00 0. -1.
         23    2    1    2    0    0 -0.99809351462E+01  0.11454534766E+02 -0.99871304955E+03  0.10029212212E+04  0.90511850615E+02 0.  0.
         11    1    3    3    0    0 -0.25768360619E+02  0.32401727924E+02 -0.89451027469E+03  0.89546776151E+03  0.00000000000E+00 0. -1.
        -11    1    3    3    0    0  0.15787425473E+02 -0.20947193159E+02 -0.10420277486E+03  0.10745345966E+03  0.00000000000E+00 0.  1.
         22    1    1    2    0    0  0.99809351462E+01 -0.11454534766E+02 -0.36787872756E+02  0.39801671008E+02  0.00000000000E+00 0.  1.
<mgrwt>
<rscale>  0 0.58541625E+02</rscale>
<asrwt>0</asrwt>
<pdfrwt beam="1">  1        2 0.15986331E+00 0.91778105E+02</pdfrwt>
<pdfrwt beam="2">  1       -2 0.55553634E-03 0.91778105E+02</pdfrwt>
<totfact> 0.10967644E+05</totfact>
</mgrwt>
</event>
<event>
 6    1  0.1535970E-002  0.9408117E+02  0.7546771E-02  0.1392240E+00
          2   -1    0    0  501    0  0.00000000000E+00  0.00000000000E+00  0.47712875407E+02  0.47712875407E+02  0.00000000000E+00 0. -1.
         -2   -1    0    0    0  501 -0.00000000000E+00 -0.00000000000E+00 -0.83842254881E+02  0.83842254881E+02  0.00000000000E+00 0.  1.
         23    2    1    2    0    0  0.53839241624E+00  0.17006581944E+02 -0.27873370476E+01  0.94122450862E+02  0.92529740152E+02 0.  0.
         11    1    3    3    0    0 -0.19675510526E+02 -0.11826651740E+01  0.39328006608E+02  0.43991095862E+02  0.00000000000E+00 0. -1.
        -11    1    3    3    0    0  0.20213902942E+02  0.18189247118E+02 -0.42115343656E+02  0.50131355000E+02  0.00000000000E+00 0.  1.
         22    1    1    2    0    0 -0.53839241624E+00 -0.17006581944E+02 -0.33342042427E+02  0.37432679426E+02  0.00000000000E+00 0. -1.
<mgrwt>
<rscale>  0 0.61352981E+02</rscale>
<asrwt>0</asrwt>
<pdfrwt beam="1">  1        2 0.73404425E-02 0.94081170E+02</pdfrwt>
<pdfrwt beam="2">  1       -2 0.12898808E-01 0.94081170E+02</pdfrwt>
<totfact> 0.36388851E+04</totfact>
</mgrwt>
</event>
<event>
 6    1  0.1535970E-002  0.9268489E+02  0.7546771E-02  0.1399650E+00
         -2   -1    0    0    0  501 -0.00000000000E+00  0.00000000000E+00  0.13835508324E+02  0.13835508324E+02  0.00000000000E+00 0.  1.
          2   -1    0    0  501    0  0.00000000000E+00 -0.00000000000E+00 -0.34597517211E+03  0.34597517211E+03  0.00000000000E+00 0. -1.
         23    2    1    2    0    0  0.14270961613E+02  0.68138943257E+01 -0.33124889779E+03  0.34397139493E+03  0.91325783554E+02 0.  0.
         11    1    3    3    0    0  0.38640965026E+02  0.36365478385E+02 -0.16307865761E+03  0.17149408376E+03  0.00000000000E+00 0. -1.
        -11    1    3    3    0    0 -0.24370003413E+02 -0.29551584059E+02 -0.16817024017E+03  0.17247731116E+03  0.00000000000E+00 0.  1.
         22    1    1    2    0    0 -0.14270961613E+02 -0.68138943257E+01 -0.89076599638E+00  0.15839285505E+02  0.00000000000E+00 0.  1.
<mgrwt>
<rscale>  0 0.59568769E+02</rscale>
<asrwt>0</asrwt>
<pdfrwt beam="1">  1        2 0.53226951E-01 0.92684887E+02</pdfrwt>
<pdfrwt beam="2">  1       -2 0.21285397E-02 0.92684887E+02</pdfrwt>
<totfact> 0.57798536E+04</totfact>
</mgrwt>
</event>
<event>
 6    1  0.1535970E-002  0.9297115E+02  0.7546771E-02  0.1403372E+00
          2   -1    0    0  501    0  0.00000000000E+00  0.00000000000E+00  0.25434798970E+03  0.25434798970E+03  0.00000000000E+00 0. -1.
         -2   -1    0    0    0  501 -0.00000000000E+00 -0.00000000000E+00 -0.12014139535E+02  0.12014139535E+02  0.00000000000E+00 0.  1.
         23    2    1    2    0    0  0.71408431596E+00 -0.14756610626E+02  0.22578998653E+03  0.24418180242E+03  0.91789798686E+02 0.  0.
         13    1    3    3    0    0 -0.26131243801E+02 -0.45276828386E+02  0.13089885160E+03  0.14095156062E+03  0.00000000000E+00 0. -1.
        -13    1    3    3    0    0  0.26845328117E+02  0.30520217760E+02  0.94891134925E+02  0.10323024180E+03  0.00000000000E+00 0.  1.
         22    1    1    2    0    0 -0.71408431596E+00  0.14756610626E+02  0.16543863638E+02  0.22180326816E+02  0.00000000000E+00 0.  1.
<mgrwt>
<rscale>  0 0.58699551E+02</rscale>
<asrwt>0</asrwt>
<pdfrwt beam="1">  1        2 0.39130456E-01 0.92971149E+02</pdfrwt>
<pdfrwt beam="2">  1       -2 0.18483294E-02 0.92971149E+02</pdfrwt>
<totfact> 0.97731505E+04</totfact>
</mgrwt>
</event>
<event>
 6    1  0.1535970E-002  0.1010142E+03  0.7546771E-02  0.1325693E+00
         -2   -1    0    0    0  501 -0.00000000000E+00  0.00000000000E+00  0.12409047690E+02  0.12409047690E+02  0.00000000000E+00 0.  1.
          2   -1    0    0  501    0  0.00000000000E+00 -0.00000000000E+00 -0.41415930186E+03  0.41415930186E+03  0.00000000000E+00 0. -1.
         23    2    1    2    0    0 -0.37140587037E+02 -0.19966771003E+02 -0.29338606411E+03  0.31028897547E+03  0.91791996017E+02 0.  0.
         11    1    3    3    0    0 -0.25099563796E+02 -0.30899989216E+02 -0.29116503141E+03  0.29387390655E+03  0.00000000000E+00 0. -1.
        -11    1    3    3    0    0 -0.12041023241E+02  0.10933218213E+02 -0.22210326980E+01  0.16415068913E+02  0.00000000000E+00 0.  1.
         22    1    1    2    0    0  0.37140587037E+02  0.19966771003E+02 -0.10836419006E+03  0.11627937408E+03  0.00000000000E+00 0.  1.
<mgrwt>
<rscale>  0 0.81195348E+02</rscale>
<asrwt>0</asrwt>
<pdfrwt beam="1">  1        2 0.63716822E-01 0.10101419E+03</pdfrwt>
<pdfrwt beam="2">  1       -2 0.19090841E-02 0.10101419E+03</pdfrwt>
<totfact> 0.56558288E+04</totfact>
</mgrwt>
</event>
<event>
 6    1  0.1535970E-002  0.9537478E+02  0.7546771E-02  0.1367041E+00
         -2   -1    0    0    0  501 -0.00000000000E+00  0.00000000000E+00  0.40055855940E+02  0.40055855940E+02  0.00000000000E+00 0.  1.
          2   -1    0    0  501    0  0.00000000000E+00 -0.00000000000E+00 -0.16422181028E+03  0.16422181028E+03  0.00000000000E+00 0. -1.
         23    2    1    2    0    0  0.21482530316E+02  0.12069075609E+02 -0.14394914514E+03  0.17267804069E+03  0.92136787744E+02 0.  0.
         11    1    3    3    0    0  0.32187369116E+02  0.14006319145E+02 -0.15394979152E+03  0.15790105134E+03  0.00000000000E+00 0. -1.
        -11    1    3    3    0    0 -0.10704838800E+02 -0.19372435360E+01  0.10000646378E+02  0.14776989349E+02  0.00000000000E+00 0.  1.
         22    1    1    2    0    0 -0.21482530316E+02 -0.12069075609E+02  0.19783190805E+02  0.31599625524E+02  0.00000000000E+00 0.  1.
<mgrwt>
<rscale>  0 0.67996760E+02</rscale>
<asrwt>0</asrwt>
<pdfrwt beam="1">  1        2 0.25264894E-01 0.95374784E+02</pdfrwt>
<pdfrwt beam="2">  1       -2 0.61624394E-02 0.95374784E+02</pdfrwt>
<totfact> 0.26829697E+04</totfact>
</mgrwt>
</event>
<event>
 6    1  0.1535970E-002  0.9664490E+02  0.7546771E-02  0.1365387E+00
         -2   -1    0    0    0  501 -0.00000000000E+00  0.00000000000E+00  0.10404316386E+02  0.10404316386E+02  0.00000000000E+00 0.  1.
          2   -1    0    0  501    0  0.00000000000E+00 -0.00000000000E+00 -0.98412284568E+03  0.98412284568E+03  0.00000000000E+00 0. -1.
         23    2    1    2    0    0  0.23139062794E+02 -0.75603253938E+01 -0.96315410612E+03  0.96799073834E+03  0.93528940094E+02 0.  0.
         11    1    3    3    0    0 -0.40090123424E+01  0.92530244399E+01 -0.85882157462E+03  0.85888077617E+03  0.00000000000E+00 0. -1.
        -11    1    3    3    0    0  0.27148075136E+02 -0.16813349834E+02 -0.10433253150E+03  0.10910996217E+03  0.00000000000E+00 0.  1.
         22    1    1    2    0    0 -0.23139062794E+02  0.75603253938E+01 -0.10564423176E+02  0.26536423725E+02  0.00000000000E+00 0.  1.
<mgrwt>
<rscale>  0 0.68466340E+02</rscale>
<asrwt>0</asrwt>
<pdfrwt beam="1">  1        2 0.15140351E+00 0.96644904E+02</pdfrwt>
<pdfrwt beam="2">  1       -2 0.16006641E-02 0.96644904E+02</pdfrwt>
<totfact> 0.26540695E+04</totfact>
</mgrwt>
</event>
<event>
 6    1  0.1535970E-002  0.9109215E+02  0.7546771E-02  0.1419775E+00
         -4   -1    0    0    0  501 -0.00000000000E+00  0.00000000000E+00  0.47561992919E+03  0.47561992919E+03  0.00000000000E+00 0.  1.
          4   -1    0    0  501    0  0.00000000000E+00 -0.00000000000E+00 -0.56375278938E+01  0.56375278938E+01  0.00000000000E+00 0. -1.
         23    2    1    2    0    0  0.38281429342E+01 -0.11548787689E+02  0.40162254637E+03  0.41182332326E+03  0.90275969374E+02 0.  0.
         13    1    3    3    0    0 -0.42862386398E+01 -0.15641457968E+01  0.39857514673E+03  0.39860126189E+03  0.00000000000E+00 0.  1.
        -13    1    3    3    0    0  0.81143815739E+01 -0.99846418925E+01  0.30473996444E+01  0.13222061361E+02  0.00000000000E+00 0. -1.
         22    1    1    2    0    0 -0.38281429342E+01  0.11548787689E+02  0.68359854927E+02  0.69434133832E+02  0.00000000000E+00 0. -1.
<mgrwt>
<rscale>  0 0.55068612E+02</rscale>
<asrwt>0</asrwt>
<pdfrwt beam="1">  1        4 0.86731236E-03 0.91092150E+02</pdfrwt>
<pdfrwt beam="2">  1       -4 0.73172265E-01 0.91092150E+02</pdfrwt>
<totfact> 0.92166632E+03</totfact>
</mgrwt>
</event>
<event>
 6    1  0.1535970E-002  0.9621154E+02  0.7546771E-02  0.1371194E+00
         -1   -1    0    0    0  501 -0.00000000000E+00  0.00000000000E+00  0.46750507103E+02  0.46750507103E+02  0.00000000000E+00 0.  1.
          1   -1    0    0  501    0  0.00000000000E+00 -0.00000000000E+00 -0.76647723355E+02  0.76647723355E+02  0.00000000000E+00 0. -1.
         23    2    1    2    0    0  0.85586817275E+01 -0.20707091299E+02 -0.30661262658E+02  0.10097907727E+03  0.93566160307E+02 0.  0.
         13    1    3    3    0    0 -0.72314176336E+01 -0.44471407204E+02 -0.49386917575E+02  0.66851081421E+02  0.00000000000E+00 0. -1.
        -13    1    3    3    0    0  0.15790099361E+02  0.23764315905E+02  0.18725654917E+02  0.34127995844E+02  0.00000000000E+00 0.  1.
         22    1    1    2    0    0 -0.85586817275E+01  0.20707091299E+02  0.76404640529E+00  0.22419153193E+02  0.00000000000E+00 0. -1.
<mgrwt>
<rscale>  0 0.66836254E+02</rscale>
<asrwt>0</asrwt>
<pdfrwt beam="1">  1        1 0.11791957E-01 0.96211543E+02</pdfrwt>
<pdfrwt beam="2">  1       -1 0.71923858E-02 0.96211543E+02</pdfrwt>
<totfact> 0.45283225E+04</totfact>
</mgrwt>
</event>
<event>
 6    1  0.1535970E-002  0.9260159E+02  0.7546771E-02  0.1411511E+00
          2   -1    0    0  501    0  0.00000000000E+00  0.00000000000E+00  0.17433283680E+03  0.17433283680E+03  0.00000000000E+00 0. -1.
         -2   -1    0    0    0  501 -0.00000000000E+00 -0.00000000000E+00 -0.19914472480E+02  0.19914472480E+02  0.00000000000E+00 0.  1.
         23    2    1    2    0    0 -0.91435440936E+01 -0.94671668626E+01  0.15556033970E+03  0.18103611120E+03  0.91661456593E+02 0.  0.
         11    1    3    3    0    0  0.31297570838E+02  0.22338005768E+02  0.45695217994E+02  0.59720828775E+02  0.00000000000E+00 0.  1.
        -11    1    3    3    0    0 -0.40441114932E+02 -0.31805172631E+02  0.10986512170E+03  0.12131528243E+03  0.00000000000E+00 0. -1.
         22    1    1    2    0    0  0.91435440936E+01  0.94671668626E+01 -0.11419753764E+01  0.13211198082E+02  0.00000000000E+00 0.  1.
<mgrwt>
<rscale>  0 0.56858086E+02</rscale>
<asrwt>0</asrwt>
<pdfrwt beam="1">  1        2 0.26820435E-01 0.92601589E+02</pdfrwt>
<pdfrwt beam="2">  1       -2 0.30637651E-02 0.92601589E+02</pdfrwt>
<totfact> 0.70370015E+04</totfact>
</mgrwt>
</event>
<event>
 6    1  0.1535970E-002  0.9088377E+02  0.7546771E-02  0.1432416E+00
         -3   -1    0    0    0  501 -0.00000000000E+00  0.00000000000E+00  0.13298147498E+02  0.13298147498E+02  0.00000000000E+00 0.  1.
          3   -1    0    0  501    0  0.00000000000E+00 -0.00000000000E+00 -0.19732901112E+03  0.19732901112E+03  0.00000000000E+00 0. -1.
         23    2    1    2    0    0 -0.64669948534E+01  0.77619994690E+01 -0.17444579486E+03  0.19670077354E+03  0.90320475575E+02 0.  0.
         11    1    3    3    0    0 -0.29201057949E+02  0.15561974775E+02 -0.16570076746E+02  0.37006003399E+02  0.00000000000E+00 0.  1.
        -11    1    3    3    0    0  0.22734063095E+02 -0.77999753061E+01 -0.15787571812E+03  0.15969477014E+03  0.00000000000E+00 0. -1.
         22    1    1    2    0    0  0.64669948534E+01 -0.77619994690E+01 -0.95850687583E+01  0.13926385076E+02  0.00000000000E+00 0.  1.
<mgrwt>
<rscale>  0 0.52478009E+02</rscale>
<asrwt>0</asrwt>
<pdfrwt beam="1">  1        3 0.30358305E-01 0.90883766E+02</pdfrwt>
<pdfrwt beam="2">  1       -3 0.20458692E-02 0.90883766E+02</pdfrwt>
<totfact> 0.19764587E+04</totfact>
</mgrwt>
</event>
<event>
 6    1  0.1535970E-002  0.9825340E+02  0.7546771E-02  0.1345758E+00
         -2   -1    0    0    0  501 -0.00000000000E+00  0.00000000000E+00  0.18116921763E+02  0.18116921763E+02  0.00000000000E+00 0.  1.
          2   -1    0    0  501    0  0.00000000000E+00 -0.00000000000E+00 -0.23518143946E+03  0.23518143946E+03  0.00000000000E+00 0. -1.
         23    2    1    2    0    0  0.32141351950E+02 -0.31265994488E+01 -0.16267993286E+03  0.19004865611E+03  0.92794875954E+02 0.  0.
         13    1    3    3    0    0  0.18334498976E+02 -0.37441436058E+02 -0.14130887090E+03  0.14733028196E+03  0.00000000000E+00 0. -1.
        -13    1    3    3    0    0  0.13806852975E+02  0.34314836609E+02 -0.21371061957E+02  0.42718374147E+02  0.00000000000E+00 0.  1.
         22    1    1    2    0    0 -0.32141351950E+02  0.31265994488E+01 -0.54384584834E+02  0.63249705113E+02  0.00000000000E+00 0. -1.
<mgrwt>
<rscale>  0 0.74394019E+02</rscale>
<asrwt>0</asrwt>
<pdfrwt beam="1">  1        2 0.36181757E-01 0.98253403E+02</pdfrwt>
<pdfrwt beam="2">  1       -2 0.27872189E-02 0.98253403E+02</pdfrwt>
<totfact> 0.59127033E+04</totfact>
</mgrwt>
</event>
<event>
 6    1  0.1535970E-002  0.1763253E+03  0.7546771E-02  0.1179075E+00
          2   -1    0    0  501    0  0.00000000000E+00  0.00000000000E+00  0.61028427944E+02  0.61028427944E+02  0.00000000000E+00 0. -1.
         -2   -1    0    0    0  501 -0.00000000000E+00 -0.00000000000E+00 -0.49193505811E+03  0.49193505811E+03  0.00000000000E+00 0.  1.
         23    2    1    2    0    0  0.13954825585E+02  0.14753908932E+03 -0.13517720358E+03  0.22217894321E+03  0.95541019471E+02 0.  0.
         13    1    3    3    0    0  0.34635941540E+02  0.87895153583E+01 -0.22289151809E+02  0.42115440339E+02  0.00000000000E+00 0. -1.
        -13    1    3    3    0    0 -0.20681115955E+02  0.13874957397E+03 -0.11288805177E+03  0.18006350287E+03  0.00000000000E+00 0.  1.
         22    1    1    2    0    0 -0.13954825585E+02 -0.14753908932E+03 -0.29572942659E+03  0.33078454285E+03  0.00000000000E+00 0.  1.
<mgrwt>
<rscale>  0 0.16882868E+03</rscale>
<asrwt>0</asrwt>
<pdfrwt beam="1">  1        2 0.93889886E-02 0.17632529E+03</pdfrwt>
<pdfrwt beam="2">  1       -2 0.75682319E-01 0.17632529E+03</pdfrwt>
<totfact> 0.10994336E+03</totfact>
</mgrwt>
</event>
<event>
 6    1  0.1535970E-002  0.1174201E+03  0.7546771E-02  0.1270764E+00
         -1   -1    0    0    0  501 -0.00000000000E+00  0.00000000000E+00  0.62638841456E+02  0.62638841456E+02  0.00000000000E+00 0.  1.
          1   -1    0    0  501    0  0.00000000000E+00 -0.00000000000E+00 -0.19598690509E+03  0.19598690509E+03  0.00000000000E+00 0. -1.
         23    2    1    2    0    0 -0.62417036869E+02  0.40031279201E+02 -0.14167454920E+03  0.18400858922E+03  0.91044457323E+02 0.  0.
         11    1    3    3    0    0 -0.34670549627E+02  0.38247006820E+02 -0.14203942051E+02  0.53540942389E+02  0.00000000000E+00 0.  1.
        -11    1    3    3    0    0 -0.27746487242E+02  0.17842723804E+01 -0.12747060715E+03  0.13046764683E+03  0.00000000000E+00 0. -1.
         22    1    1    2    0    0  0.62417036869E+02 -0.40031279201E+02  0.83264855642E+01  0.74617157329E+02  0.00000000000E+00 0.  1.
<mgrwt>
<rscale>  0 0.10467340E+03</rscale>
<asrwt>0</asrwt>
<pdfrwt beam="1">  1        1 0.30151831E-01 0.11742011E+03</pdfrwt>
<pdfrwt beam="2">  1       -1 0.96367449E-02 0.11742011E+03</pdfrwt>
<totfact> 0.90711755E+03</totfact>
</mgrwt>
</event>
<event>
 6    1  0.1535970E-002  0.9120147E+02  0.7546771E-02  0.1427459E+00
         -2   -1    0    0    0  501 -0.00000000000E+00  0.00000000000E+00  0.45386344200E+02  0.45386344200E+02  0.00000000000E+00 0.  1.
          2   -1    0    0  501    0  0.00000000000E+00 -0.00000000000E+00 -0.77069611815E+02  0.77069611815E+02  0.00000000000E+00 0. -1.
         23    2    1    2    0    0  0.59156665439E+01 -0.90097012524E+01 -0.47876097273E+02  0.10300402656E+03  0.90562348520E+02 0.  0.
         13    1    3    3    0    0 -0.22095462813E+01 -0.32253168313E+01 -0.74484865873E+02  0.74587398450E+02  0.00000000000E+00 0. -1.
        -13    1    3    3    0    0  0.81252128252E+01 -0.57843844212E+01  0.26608768600E+02  0.28416628107E+02  0.00000000000E+00 0.  1.
         22    1    1    2    0    0 -0.59156665439E+01  0.90097012524E+01  0.16192829658E+02  0.19451929458E+02  0.00000000000E+00 0.  1.
<mgrwt>
<rscale>  0 0.53473432E+02</rscale>
<asrwt>0</asrwt>
<pdfrwt beam="1">  1        2 0.11856863E-01 0.91201474E+02</pdfrwt>
<pdfrwt beam="2">  1       -2 0.69825145E-02 0.91201474E+02</pdfrwt>
<totfact> 0.52261200E+04</totfact>
</mgrwt>
</event>
<event>
 6    1  0.1535970E-002  0.9697992E+02  0.7546771E-02  0.1331729E+00
         -2   -1    0    0    0  501 -0.00000000000E+00  0.00000000000E+00  0.10963542447E+02  0.10963542447E+02  0.00000000000E+00 0.  1.
          2   -1    0    0  501    0  0.00000000000E+00 -0.00000000000E+00 -0.54505226534E+03  0.54505226534E+03  0.00000000000E+00 0. -1.
         23    2    1    2    0    0 -0.32283351876E+02 -0.28164574457E+02 -0.46273524214E+03  0.47278854495E+03  0.87003711766E+02 0.  0.
         13    1    3    3    0    0 -0.30209003875E+02 -0.15115385716E+02 -0.53058824852E+02  0.62899107269E+02  0.00000000000E+00 0.  1.
        -13    1    3    3    0    0 -0.20743480008E+01 -0.13049188741E+02 -0.40967641728E+03  0.40988943768E+03  0.00000000000E+00 0. -1.
         22    1    1    2    0    0  0.32283351876E+02  0.28164574457E+02 -0.71353480755E+02  0.83227262832E+02  0.00000000000E+00 0.  1.
<mgrwt>
<rscale>  0 0.79064114E+02</rscale>
<asrwt>0</asrwt>
<pdfrwt beam="1">  1        2 0.83854181E-01 0.96979915E+02</pdfrwt>
<pdfrwt beam="2">  1       -2 0.16866991E-02 0.96979915E+02</pdfrwt>
<totfact> 0.50004877E+04</totfact>
</mgrwt>
</event>
<event>
 6    1  0.1535970E-002  0.9593962E+02  0.7546771E-02  0.1363142E+00
         -2   -1    0    0    0  501 -0.00000000000E+00  0.00000000000E+00  0.75811180996E+01  0.75811180996E+01  0.00000000000E+00 0.  1.
          2   -1    0    0  501    0  0.00000000000E+00 -0.00000000000E+00 -0.62624016942E+03  0.62624016942E+03  0.00000000000E+00 0. -1.
         23    2    1    2    0    0  0.10426386530E+01  0.25813267574E+02 -0.57610741874E+03  0.58404123817E+03  0.92395876935E+02 0.  0.
         11    1    3    3    0    0  0.23135605985E+02 -0.25760602255E+02 -0.31955411158E+03  0.32142447809E+03  0.00000000000E+00 0. -1.
        -11    1    3    3    0    0 -0.22092967332E+02  0.51573869829E+02 -0.25655330716E+03  0.26261676007E+03  0.00000000000E+00 0.  1.
         22    1    1    2    0    0 -0.10426386530E+01 -0.25813267574E+02 -0.42551632577E+02  0.49780049349E+02  0.00000000000E+00 0. -1.
<mgrwt>
<rscale>  0 0.69111087E+02</rscale>
<asrwt>0</asrwt>
<pdfrwt beam="1">  1        2 0.96344666E-01 0.95939616E+02</pdfrwt>
<pdfrwt beam="2">  1       -2 0.11663256E-02 0.95939616E+02</pdfrwt>
<totfact> 0.72408946E+04</totfact>
</mgrwt>
</event>
<event>
 6    1  0.1535970E-002  0.1022985E+03  0.7546771E-02  0.1320128E+00
          4   -1    0    0  501    0  0.00000000000E+00  0.00000000000E+00  0.35401639219E+02  0.35401639219E+02  0.00000000000E+00 0. -1.
         -4   -1    0    0    0  501 -0.00000000000E+00 -0.00000000000E+00 -0.20478046641E+03  0.20478046641E+03  0.00000000000E+00 0.  1.
         23    2    1    2    0    0 -0.22991510292E+02 -0.38477875394E+02 -0.52459401365E+02  0.11496505976E+03  0.91955531284E+02 0.  0.
         11    1    3    3    0    0  0.10335875987E+02 -0.52927443775E+02 -0.35527954530E+01  0.54044120795E+02  0.00000000000E+00 0. -1.
        -11    1    3    3    0    0 -0.33327386279E+02  0.14449568381E+02 -0.48906605912E+02  0.60920938965E+02  0.00000000000E+00 0.  1.
         22    1    1    2    0    0  0.22991510292E+02  0.38477875394E+02 -0.11691942582E+03  0.12521704586E+03  0.00000000000E+00 0. -1.
<mgrwt>
<rscale>  0 0.83229744E+02</rscale>
<asrwt>0</asrwt>
<pdfrwt beam="1">  1        4 0.54464061E-02 0.10229847E+03</pdfrwt>
<pdfrwt beam="2">  1       -4 0.31504687E-01 0.10229847E+03</pdfrwt>
<totfact> 0.30760555E+03</totfact>
</mgrwt>
</event>
<event>
 6    1  0.1535970E-002  0.9594921E+02  0.7546771E-02  0.1345036E+00
         -2   -1    0    0    0  501 -0.00000000000E+00  0.00000000000E+00  0.11289285379E+02  0.11289285379E+02  0.00000000000E+00 0.  1.
          2   -1    0    0  501    0  0.00000000000E+00 -0.00000000000E+00 -0.39160484249E+03  0.39160484249E+03  0.00000000000E+00 0. -1.
         23    2    1    2    0    0 -0.33402251124E+01  0.34949213808E+02 -0.30624987380E+03  0.32092870776E+03  0.89295272053E+02 0.  0.
         13    1    3    3    0    0  0.10545375967E+01 -0.11309926578E+02 -0.18906525767E+00  0.11360556079E+02  0.00000000000E+00 0.  1.
        -13    1    3    3    0    0 -0.43947627091E+01  0.46259140386E+02 -0.30606080854E+03  0.30956815168E+03  0.00000000000E+00 0. -1.
         22    1    1    2    0    0  0.33402251124E+01 -0.34949213808E+02 -0.74065683312E+02  0.81965420112E+02  0.00000000000E+00 0.  1.
<mgrwt>
<rscale>  0 0.74624944E+02</rscale>
<asrwt>0</asrwt>
<pdfrwt beam="1">  1        2 0.60246900E-01 0.95949207E+02</pdfrwt>
<pdfrwt beam="2">  1       -2 0.17368131E-02 0.95949207E+02</pdfrwt>
<totfact> 0.68276229E+04</totfact>
</mgrwt>
</event>
<event>
 6    1  0.1535970E-002  0.9125953E+02  0.7546771E-02  0.1392805E+00
         -2   -1    0    0    0  501 -0.00000000000E+00  0.00000000000E+00  0.12194503064E+02  0.12194503064E+02  0.00000000000E+00 0.  1.
          2   -1    0    0  501    0  0.00000000000E+00 -0.00000000000E+00 -0.24795144370E+03  0.24795144370E+03  0.00000000000E+00 0. -1.
         23    2    1    2    0    0  0.17909611460E+02  0.45343045940E+01 -0.20217646569E+03  0.22181890150E+03  0.89369948444E+02 0.  0.
         13    1    3    3    0    0 -0.21237962328E+02  0.18767488182E+02 -0.19375077919E+02  0.34331666153E+02  0.00000000000E+00 0.  1.
        -13    1    3    3    0    0  0.39147573788E+02 -0.14233183588E+02 -0.18280138777E+03  0.18748723535E+03  0.00000000000E+00 0. -1.
         22    1    1    2    0    0 -0.17909611460E+02 -0.45343045940E+01 -0.33580474949E+02  0.38327045263E+02  0.00000000000E+00 0. -1.
<mgrwt>
<rscale>  0 0.61214309E+02</rscale>
<asrwt>0</asrwt>
<pdfrwt beam="1">  1        2 0.38146374E-01 0.91259530E+02</pdfrwt>
<pdfrwt beam="2">  1       -2 0.18760775E-02 0.91259530E+02</pdfrwt>
<totfact> 0.97992500E+04</totfact>
</mgrwt>
</event>
<event>
 6    1  0.1535970E-002  0.9869155E+02  0.7546771E-02  0.1331345E+00
          2   -1    0    0  501    0  0.00000000000E+00  0.00000000000E+00  0.42725945890E+02  0.42725945890E+02  0.00000000000E+00 0. -1.
         -2   -1    0    0    0  501 -0.00000000000E+00 -0.00000000000E+00 -0.19489284041E+03  0.19489284041E+03  0.00000000000E+00 0.  1.
         23    2    1    2    0    0 -0.83938398373E+01 -0.40056269471E+02 -0.21924416021E+02  0.10109748951E+03  0.89805685213E+02 0.  0.
         11    1    3    3    0    0  0.33485040661E+01 -0.62380590458E+02  0.68354361731E+01  0.62843247315E+02  0.00000000000E+00 0. -1.
        -11    1    3    3    0    0 -0.11742343903E+02  0.22324320987E+02 -0.28759852194E+02  0.38254242198E+02  0.00000000000E+00 0.  1.
         22    1    1    2    0    0  0.83938398373E+01  0.40056269471E+02 -0.13024247850E+03  0.13652129679E+03  0.00000000000E+00 0.  1.
<mgrwt>
<rscale>  0 0.79197337E+02</rscale>
<asrwt>0</asrwt>
<pdfrwt beam="1">  1        2 0.65732224E-02 0.98691552E+02</pdfrwt>
<pdfrwt beam="2">  1       -2 0.29983514E-01 0.98691552E+02</pdfrwt>
<totfact> 0.10196557E+04</totfact>
</mgrwt>
</event>
<event>
 6    1  0.1535970E-002  0.9177061E+02  0.7546771E-02  0.1430614E+00
         -2   -1    0    0    0  501 -0.00000000000E+00  0.00000000000E+00  0.15109853660E+02  0.15109853660E+02  0.00000000000E+00 0.  1.
          2   -1    0    0  501    0  0.00000000000E+00 -0.00000000000E+00 -0.17168825262E+03  0.17168825262E+03  0.00000000000E+00 0. -1.
         23    2    1    2    0    0 -0.45901478236E+01  0.89789053901E+01 -0.14190086259E+03  0.16899023518E+03  0.91214881381E+02 0.  0.
         11    1    3    3    0    0 -0.57441095387E+01  0.60301332242E+01 -0.15514725974E+03  0.15537061983E+03  0.00000000000E+00 0. -1.
        -11    1    3    3    0    0  0.11539617151E+01  0.29487721659E+01  0.13246397152E+02  0.13619615356E+02  0.00000000000E+00 0.  1.
         22    1    1    2    0    0  0.45901478236E+01 -0.89789053901E+01 -0.14677536376E+02  0.17807871100E+02  0.00000000000E+00 0. -1.
<mgrwt>
<rscale>  0 0.52836933E+02</rscale>
<asrwt>0</asrwt>
<pdfrwt beam="1">  1        2 0.26413577E-01 0.91770610E+02</pdfrwt>
<pdfrwt beam="2">  1       -2 0.23245929E-02 0.91770610E+02</pdfrwt>
<totfact> 0.10659885E+05</totfact>
</mgrwt>
</event>
<event>
 6    1  0.1535970E-002  0.9294518E+02  0.7546771E-02  0.1378327E+00
         -4   -1    0    0    0  501 -0.00000000000E+00  0.00000000000E+00  0.92281283112E+02  0.92281283112E+02  0.00000000000E+00 0.  1.
          4   -1    0    0  501    0  0.00000000000E+00 -0.00000000000E+00 -0.37085817880E+02  0.37085817880E+02  0.00000000000E+00 0. -1.
         23    2    1    2    0    0  0.20177413531E+02  0.90227662924E+01  0.34661616648E+02  0.99197956721E+02  0.90278838166E+02 0.  0.
         13    1    3    3    0    0  0.29898300833E+02  0.40292117724E+02 -0.17807939360E+01  0.50204923767E+02  0.00000000000E+00 0. -1.
        -13    1    3    3    0    0 -0.97208873020E+01 -0.31269351431E+02  0.36442410584E+02  0.48993032954E+02  0.00000000000E+00 0.  1.
         22    1    1    2    0    0 -0.20177413531E+02 -0.90227662924E+01  0.20533848584E+02  0.30169144271E+02  0.00000000000E+00 0. -1.
<mgrwt>
<rscale>  0 0.64905649E+02</rscale>
<asrwt>0</asrwt>
<pdfrwt beam="1">  1        4 0.57055105E-02 0.92945182E+02</pdfrwt>
<pdfrwt beam="2">  1       -4 0.14197120E-01 0.92945182E+02</pdfrwt>
<totfact> 0.11672230E+04</totfact>
</mgrwt>
</event>
<event>
 6    1  0.1535970E-002  0.9083285E+02  0.7546771E-02  0.1416044E+00
         -1   -1    0    0    0  501 -0.00000000000E+00  0.00000000000E+00  0.71327659711E+02  0.71327659711E+02  0.00000000000E+00 0.  1.
          1   -1    0    0  501    0  0.00000000000E+00 -0.00000000000E+00 -0.41083031126E+02  0.41083031126E+02  0.00000000000E+00 0. -1.
         23    2    1    2    0    0 -0.10274772892E+02  0.79611943302E+01  0.14482088106E+02  0.91980094773E+02  0.89898027706E+02 0.  0.
         13    1    3    3    0    0  0.69317400036E+00  0.26100914833E+02 -0.31757608898E+02  0.41113063231E+02  0.00000000000E+00 0. -1.
        -13    1    3    3    0    0 -0.10967946892E+02 -0.18139720502E+02  0.46239697004E+02  0.50867031542E+02  0.00000000000E+00 0.  1.
         22    1    1    2    0    0  0.10274772892E+02 -0.79611943302E+01  0.15762540479E+02  0.20430596064E+02  0.00000000000E+00 0. -1.
<mgrwt>
<rscale>  0 0.55866632E+02</rscale>
<asrwt>0</asrwt>
<pdfrwt beam="1">  1        1 0.63204663E-02 0.90832852E+02</pdfrwt>
<pdfrwt beam="2">  1       -1 0.10973486E-01 0.90832852E+02</pdfrwt>
<totfact> 0.54272861E+04</totfact>
</mgrwt>
</event>
<event>
 6    1  0.1535970E-002  0.9137113E+02  0.7546771E-02  0.1419137E+00
          2   -1    0    0  501    0  0.00000000000E+00  0.00000000000E+00  0.64438953322E+03  0.64438953322E+03  0.00000000000E+00 0. -1.
         -2   -1    0    0    0  501 -0.00000000000E+00 -0.00000000000E+00 -0.41685777351E+01  0.41685777351E+01  0.00000000000E+00 0.  1.
         23    2    1    2    0    0  0.47121495739E+01 -0.11225714641E+02  0.57410738362E+03  0.58133292663E+03  0.90556405815E+02 0.  0.
         11    1    3    3    0    0 -0.25916799721E+02 -0.20882005266E+02  0.86703314576E+02  0.92871973222E+02  0.00000000000E+00 0.  1.
        -11    1    3    3    0    0  0.30628949294E+02  0.96562906244E+01  0.48740406905E+03  0.48846095341E+03  0.00000000000E+00 0. -1.
         22    1    1    2    0    0 -0.47121495739E+01  0.11225714641E+02  0.66113571860E+02  0.67225184321E+02  0.00000000000E+00 0. -1.
<mgrwt>
<rscale>  0 0.55203991E+02</rscale>
<asrwt>0</asrwt>
<pdfrwt beam="1">  1        2 0.99136772E-01 0.91371131E+02</pdfrwt>
<pdfrwt beam="2">  1       -2 0.64132016E-03 0.91371131E+02</pdfrwt>
<totfact> 0.16212530E+05</totfact>
</mgrwt>
</event>
<event>
 6    1  0.1535970E-002  0.1259529E+03  0.7546771E-02  0.1252188E+00
          2   -1    0    0  501    0  0.00000000000E+00  0.00000000000E+00  0.21290468212E+03  0.21290468212E+03  0.00000000000E+00 0.  1.
         -2   -1    0    0    0  501 -0.00000000000E+00 -0.00000000000E+00 -0.53300818255E+02  0.53300818255E+02  0.00000000000E+00 0. -1.
         23    2    1    2    0    0 -0.85261392450E+02  0.14469524232E+02  0.84567766463E+02  0.15170970094E+03  0.91571032877E+02 0.  0.
         13    1    3    3    0    0 -0.98162376861E+02  0.14201882948E+02  0.93266553613E+02  0.13614769823E+03  0.00000000000E+00 0.  1.
        -13    1    3    3    0    0  0.12900984411E+02  0.26764128469E+00 -0.86987871506E+01  0.15562002715E+02  0.00000000000E+00 0. -1.
         22    1    1    2    0    0  0.85261392450E+02 -0.14469524232E+02  0.75036097403E+02  0.11449579943E+03  0.00000000000E+00 0. -1.
<mgrwt>
<rscale>  0 0.11465304E+03</rscale>
<asrwt>0</asrwt>
<pdfrwt beam="1">  1        2 0.32754566E-01 0.12595287E+03</pdfrwt>
<pdfrwt beam="2">  1       -2 0.82001260E-02 0.12595287E+03</pdfrwt>
<totfact> 0.13486801E+04</totfact>
</mgrwt>
</event>
<event>
 6    1  0.1535970E-002  0.8858578E+02  0.7546771E-02  0.1391268E+00
         -4   -1    0    0    0  501 -0.00000000000E+00  0.00000000000E+00  0.18957094641E+03  0.18957094641E+03  0.00000000000E+00 0. -1.
          4   -1    0    0  501    0  0.00000000000E+00 -0.00000000000E+00 -0.19134720151E+02  0.19134720151E+02  0.00000000000E+00 0.  1.
         23    2    1    2    0    0 -0.19211763410E+02  0.77128558319E+01  0.92541556953E+02  0.12810691034E+03  0.86132808584E+02 0.  0.
         13    1    3    3    0    0 -0.53726596196E+02  0.52759374344E+01  0.56376790107E+02  0.78055910202E+02  0.00000000000E+00 0.  1.
        -13    1    3    3    0    0  0.34514832787E+02  0.24369183975E+01  0.36164766846E+02  0.50051000136E+02  0.00000000000E+00 0. -1.
         22    1    1    2    0    0  0.19211763410E+02 -0.77128558319E+01  0.77894669301E+02  0.80598756218E+02  0.00000000000E+00 0. -1.
<mgrwt>
<rscale>  0 0.61592382E+02</rscale>
<asrwt>0</asrwt>
<pdfrwt beam="1">  1        4 0.29438032E-02 0.88585782E+02</pdfrwt>
<pdfrwt beam="2">  1       -4 0.29164760E-01 0.88585782E+02</pdfrwt>
<totfact> 0.90121337E+03</totfact>
</mgrwt>
</event>
<event>
 6    1  0.1535970E-002  0.9058775E+02  0.7546771E-02  0.1429475E+00
          2   -1    0    0  501    0  0.00000000000E+00  0.00000000000E+00  0.58817230183E+03  0.58817230183E+03  0.00000000000E+00 0. -1.
         -2   -1    0    0    0  501 -0.00000000000E+00 -0.00000000000E+00 -0.56388806364E+01  0.56388806364E+01  0.00000000000E+00 0.  1.
         23    2    1    2    0    0 -0.10389509226E+02  0.24169963974E+01  0.57084111650E+03  0.57798418773E+03  0.89957529964E+02 0.  0.
         13    1    3    3    0    0 -0.13127141539E+01 -0.14106860189E+02  0.11291264417E+02  0.18116825742E+02  0.00000000000E+00 0.  1.
        -13    1    3    3    0    0 -0.90767950726E+01  0.16523856586E+02  0.55954985209E+03  0.55986736198E+03  0.00000000000E+00 0. -1.
         22    1    1    2    0    0  0.10389509226E+02 -0.24169963974E+01  0.11692304693E+02  0.15826994742E+02  0.00000000000E+00 0. -1.
<mgrwt>
<rscale>  0 0.53065487E+02</rscale>
<asrwt>0</asrwt>
<pdfrwt beam="1">  1        2 0.90487998E-01 0.90587753E+02</pdfrwt>
<pdfrwt beam="2">  1       -2 0.86752056E-03 0.90587753E+02</pdfrwt>
<totfact> 0.11723891E+05</totfact>
</mgrwt>
</event>
<event>
 6    1  0.1535970E-002  0.9461797E+02  0.7546771E-02  0.1400963E+00
         -1   -1    0    0    0  501 -0.00000000000E+00  0.00000000000E+00  0.50918489831E+02  0.50918489831E+02  0.00000000000E+00 0.  1.
          1   -1    0    0  501    0  0.00000000000E+00 -0.00000000000E+00 -0.10546501216E+03  0.10546501216E+03  0.00000000000E+00 0. -1.
         23    2    1    2    0    0  0.14480430348E+02  0.15112092740E+01 -0.82066522494E+02  0.12524964541E+03  0.93491138327E+02 0.  0.
         13    1    3    3    0    0 -0.35830822807E+02 -0.12523674555E+02 -0.16412238734E+02  0.41352773398E+02  0.00000000000E+00 0.  1.
        -13    1    3    3    0    0  0.50311253156E+02  0.14034883829E+02 -0.65654283760E+02  0.83896872017E+02  0.00000000000E+00 0. -1.
         22    1    1    2    0    0 -0.14480430348E+02 -0.15112092740E+01  0.27520000163E+02  0.31133856579E+02  0.00000000000E+00 0. -1.
<mgrwt>
<rscale>  0 0.59260272E+02</rscale>
<asrwt>0</asrwt>
<pdfrwt beam="1">  1        1 0.16225386E-01 0.94617966E+02</pdfrwt>
<pdfrwt beam="2">  1       -1 0.78336139E-02 0.94617966E+02</pdfrwt>
<totfact> 0.26386155E+04</totfact>
</mgrwt>
</event>
<event>
 6    1  0.1535970E-002  0.9519601E+02  0.7546771E-02  0.1371377E+00
          1   -1    0    0  501    0  0.00000000000E+00  0.00000000000E+00  0.59048231867E+03  0.59048231867E+03  0.00000000000E+00 0. -1.
         -1   -1    0    0    0  501 -0.00000000000E+00 -0.00000000000E+00 -0.64543647469E+01  0.64543647469E+01  0.00000000000E+00 0.  1.
         23    2    1    2    0    0 -0.15445349199E+02  0.17124803127E+02  0.52505513807E+03  0.53361519651E+03  0.92360501527E+02 0.  0.
         11    1    3    3    0    0 -0.19636720086E+02  0.37769881056E+02  0.10886219756E+03  0.11688944669E+03  0.00000000000E+00 0.  1.
        -11    1    3    3    0    0  0.41913708872E+01 -0.20645077929E+02  0.41619294051E+03  0.41672574982E+03  0.00000000000E+00 0. -1.
         22    1    1    2    0    0  0.15445349199E+02 -0.17124803127E+02  0.58972815853E+02  0.63321486903E+02  0.00000000000E+00 0. -1.
<mgrwt>
<rscale>  0 0.66785841E+02</rscale>
<asrwt>0</asrwt>
<pdfrwt beam="1">  1        1 0.90843391E-01 0.95196008E+02</pdfrwt>
<pdfrwt beam="2">  1       -1 0.99297965E-03 0.95196008E+02</pdfrwt>
<totfact> 0.60665188E+04</totfact>
</mgrwt>
</event>
<event>
 6    1  0.1535970E-002  0.9923788E+02  0.7546771E-02  0.1404858E+00
          1   -1    0    0  501    0  0.00000000000E+00  0.00000000000E+00  0.12767320876E+04  0.12767320876E+04  0.00000000000E+00 0. -1.
         -1   -1    0    0    0  501 -0.00000000000E+00 -0.00000000000E+00 -0.26818407295E+01  0.26818407295E+01  0.00000000000E+00 0.  1.
         23    2    1    2    0    0 -0.90339350209E+01 -0.76951036413E+01  0.12222344424E+04  0.12262565752E+04  0.98525780152E+02 0.  0.
         11    1    3    3    0    0  0.25775599214E+02 -0.11731694503E+02  0.11388668475E+03  0.11735497916E+03  0.00000000000E+00 0.  1.
        -11    1    3    3    0    0 -0.34809534234E+02  0.40365908616E+01  0.11083477577E+04  0.11089015960E+04  0.00000000000E+00 0. -1.
         22    1    1    2    0    0  0.90339350209E+01  0.76951036413E+01  0.51815804437E+02  0.53157353127E+02  0.00000000000E+00 0.  1.
<mgrwt>
<rscale>  0 0.58357097E+02</rscale>
<asrwt>0</asrwt>
<pdfrwt beam="1">  1        1 0.19641984E+00 0.99237876E+02</pdfrwt>
<pdfrwt beam="2">  1       -1 0.41259190E-03 0.99237876E+02</pdfrwt>
<totfact> 0.62127432E+04</totfact>
</mgrwt>
</event>
<event>
 6    1  0.1535970E-002  0.9342488E+02  0.7546771E-02  0.1405310E+00
          4   -1    0    0  501    0  0.00000000000E+00  0.00000000000E+00  0.18514788263E+03  0.18514788263E+03  0.00000000000E+00 0. -1.
         -4   -1    0    0    0  501 -0.00000000000E+00 -0.00000000000E+00 -0.16053133451E+02  0.16053133451E+02  0.00000000000E+00 0.  1.
         23    2    1    2    0    0 -0.13539956289E+02  0.40134503494E+01  0.15656997824E+03  0.18232489129E+03  0.92351338365E+02 0.  0.
         13    1    3    3    0    0  0.35144953790E+02  0.19603175134E+02  0.50451703436E+02  0.64535468014E+02  0.00000000000E+00 0.  1.
        -13    1    3    3    0    0 -0.48684910079E+02 -0.15589724784E+02  0.10611827481E+03  0.11778942328E+03  0.00000000000E+00 0. -1.
         22    1    1    2    0    0  0.13539956289E+02 -0.40134503494E+01  0.12524770936E+02  0.18876124788E+02  0.00000000000E+00 0.  1.
<mgrwt>
<rscale>  0 0.58253624E+02</rscale>
<asrwt>0</asrwt>
<pdfrwt beam="1">  1        4 0.28484288E-01 0.93424878E+02</pdfrwt>
<pdfrwt beam="2">  1       -4 0.24697130E-02 0.93424878E+02</pdfrwt>
<totfact> 0.12553430E+04</totfact>
</mgrwt>
</event>
<event>
 6    1  0.1535970E-002  0.9845129E+02  0.7546771E-02  0.1337170E+00
         -1   -1    0    0    0  501 -0.00000000000E+00  0.00000000000E+00  0.12287077878E+02  0.12287077878E+02  0.00000000000E+00 0.  1.
          1   -1    0    0  501    0  0.00000000000E+00 -0.00000000000E+00 -0.66841359856E+03  0.66841359856E+03  0.00000000000E+00 0. -1.
         23    2    1    2    0    0 -0.99682358801E+01 -0.35876538390E+02 -0.62340359623E+03  0.63112970189E+03  0.91138164770E+02 0.  0.
         13    1    3    3    0    0 -0.28793650563E+01  0.15728752190E+02 -0.20590236124E+02  0.26069948451E+02  0.00000000000E+00 0.  1.
        -13    1    3    3    0    0 -0.70888708238E+01 -0.51605290581E+02 -0.60281336011E+03  0.60505975344E+03  0.00000000000E+00 0. -1.
         22    1    1    2    0    0  0.99682358801E+01  0.35876538390E+02 -0.32722924454E+02  0.49570974554E+02  0.00000000000E+00 0.  1.
<mgrwt>
<rscale>  0 0.77206830E+02</rscale>
<asrwt>0</asrwt>
<pdfrwt beam="1">  1        1 0.10283289E+00 0.98451292E+02</pdfrwt>
<pdfrwt beam="2">  1       -1 0.18903191E-02 0.98451292E+02</pdfrwt>
<totfact> 0.20618418E+04</totfact>
</mgrwt>
</event>
<event>
 6    1  0.1535970E-002  0.9819785E+02  0.7546771E-02  0.1333109E+00
          1   -1    0    0  501    0  0.00000000000E+00  0.00000000000E+00  0.71435487776E+02  0.71435487776E+02  0.00000000000E+00 0. -1.
         -1   -1    0    0    0  501 -0.00000000000E+00 -0.00000000000E+00 -0.67276679072E+02  0.67276679072E+02  0.00000000000E+00 0.  1.
         23    2    1    2    0    0  0.39970765324E+02 -0.49931114908E+01  0.60714137510E+01  0.98385360615E+02  0.89555702641E+02 0.  0.
         11    1    3    3    0    0  0.28714907564E+02  0.41441939097E+02  0.31293662631E+01  0.50515078598E+02  0.00000000000E+00 0. -1.
        -11    1    3    3    0    0  0.11255857759E+02 -0.46435050588E+02  0.29420474879E+01  0.47870282017E+02  0.00000000000E+00 0.  1.
         22    1    1    2    0    0 -0.39970765324E+02  0.49931114908E+01 -0.19126050467E+01  0.40326806233E+02  0.00000000000E+00 0. -1.
<mgrwt>
<rscale>  0 0.78587357E+02</rscale>
<asrwt>0</asrwt>
<pdfrwt beam="1">  1        1 0.10990075E-01 0.98197847E+02</pdfrwt>
<pdfrwt beam="2">  1       -1 0.10350258E-01 0.98197847E+02</pdfrwt>
<totfact> 0.28816636E+04</totfact>
</mgrwt>
</event>
<event>
 6    1  0.1535970E-002  0.9702161E+02  0.7546771E-02  0.1346606E+00
          2   -1    0    0  501    0  0.00000000000E+00  0.00000000000E+00  0.82039625881E+03  0.82039625881E+03  0.00000000000E+00 0. -1.
         -2   -1    0    0    0  501 -0.00000000000E+00 -0.00000000000E+00 -0.73714967111E+01  0.73714967111E+01  0.00000000000E+00 0.  1.
         23    2    1    2    0    0  0.32466057640E+02  0.62073473078E+01  0.75316323719E+03  0.75938663076E+03  0.91217416435E+02 0.  0.
         13    1    3    3    0    0 -0.11986418042E+02 -0.83922785421E+01  0.20260119932E+02  0.24991538894E+02  0.00000000000E+00 0.  1.
        -13    1    3    3    0    0  0.44452475682E+02  0.14599625850E+02  0.73290311726E+03  0.73439509187E+03  0.00000000000E+00 0. -1.
         22    1    1    2    0    0 -0.32466057640E+02 -0.62073473078E+01  0.59861524906E+02  0.68381124759E+02  0.00000000000E+00 0.  1.
<mgrwt>
<rscale>  0 0.74123825E+02</rscale>
<asrwt>0</asrwt>
<pdfrwt beam="1">  1        2 0.12621474E+00 0.97021612E+02</pdfrwt>
<pdfrwt beam="2">  1       -2 0.11340771E-02 0.97021612E+02</pdfrwt>
<totfact> 0.54853585E+04</totfact>
</mgrwt>
</event>
<event>
 6    1  0.1535970E-002  0.7696746E+02  0.7546771E-02  0.1436980E+00
         -2   -1    0    0    0  501 -0.00000000000E+00  0.00000000000E+00  0.30493463837E+01  0.30493463837E+01  0.00000000000E+00 0.  1.
          2   -1    0    0  501    0  0.00000000000E+00 -0.00000000000E+00 -0.10711527669E+04  0.10711527669E+04  0.00000000000E+00 0. -1.
         23    2    1    2    0    0 -0.11108675962E+02 -0.10851005732E+02 -0.10324340185E+04  0.10352989869E+04  0.75384630894E+02 0.  0.
         13    1    3    3    0    0  0.12037462936E+01 -0.37751714142E+02 -0.31518892245E+03  0.31744400728E+03  0.00000000000E+00 0.  1.
        -13    1    3    3    0    0 -0.12312422255E+02  0.26900708410E+02 -0.71724509608E+03  0.71785497958E+03  0.00000000000E+00 0. -1.
         22    1    1    2    0    0  0.11108675962E+02  0.10851005732E+02 -0.35669401953E+02  0.38903126388E+02  0.00000000000E+00 0. -1.
<mgrwt>
<rscale>  0 0.51584068E+02</rscale>
<asrwt>0</asrwt>
<pdfrwt beam="1">  1        2 0.16479283E+00 0.76967458E+02</pdfrwt>
<pdfrwt beam="2">  1       -2 0.46912994E-03 0.76967458E+02</pdfrwt>
<totfact> 0.13005101E+05</totfact>
</mgrwt>
</event>
<event>
 6    1  0.1535970E-002  0.9068402E+02  0.7546771E-02  0.1403643E+00
         -2   -1    0    0    0  501 -0.00000000000E+00  0.00000000000E+00  0.45064944370E+02  0.45064944370E+02  0.00000000000E+00 0. -1.
          2   -1    0    0  501    0  0.00000000000E+00 -0.00000000000E+00 -0.70228854120E+02  0.70228854120E+02  0.00000000000E+00 0.  1.
         23    2    1    2    0    0 -0.55752537172E+01 -0.14839530349E+02 -0.34350616145E+02  0.96971934791E+02  0.89287715799E+02 0.  0.
         11    1    3    3    0    0  0.36269089325E+02  0.13336285958E+02 -0.23954407011E+02  0.45465558161E+02  0.00000000000E+00 0.  1.
        -11    1    3    3    0    0 -0.41844343042E+02 -0.28175816308E+02 -0.10396209134E+02  0.51506376630E+02  0.00000000000E+00 0. -1.
         22    1    1    2    0    0  0.55752537172E+01  0.14839530349E+02  0.91867063955E+01  0.18321863699E+02  0.00000000000E+00 0. -1.
<mgrwt>
<rscale>  0 0.58636910E+02</rscale>
<asrwt>0</asrwt>
<pdfrwt beam="1">  1        2 0.10804439E-01 0.90684019E+02</pdfrwt>
<pdfrwt beam="2">  1       -2 0.69330684E-02 0.90684019E+02</pdfrwt>
<totfact> 0.58987265E+04</totfact>
</mgrwt>
</event>
<event>
 6    1  0.1535970E-002  0.9414147E+02  0.7546771E-02  0.1378304E+00
          2   -1    0    0  501    0  0.00000000000E+00  0.00000000000E+00  0.78665890431E+02  0.78665890431E+02  0.00000000000E+00 0. -1.
         -2   -1    0    0    0  501 -0.00000000000E+00 -0.00000000000E+00 -0.12623231606E+03  0.12623231606E+03  0.00000000000E+00 0.  1.
         23    2    1    2    0    0 -0.14096357415E+02 -0.15939969934E+02  0.48919979679E+02  0.10609326561E+03  0.91705107063E+02 0.  0.
         13    1    3    3    0    0 -0.38238972738E+02  0.20412081226E+02  0.41023880387E+01  0.43539656449E+02  0.00000000000E+00 0.  1.
        -13    1    3    3    0    0  0.24142615324E+02 -0.36352051160E+02  0.44817591640E+02  0.62553609158E+02  0.00000000000E+00 0. -1.
         22    1    1    2    0    0  0.14096357415E+02  0.15939969934E+02 -0.96486405309E+02  0.98804940885E+02  0.00000000000E+00 0.  1.
<mgrwt>
<rscale>  0 0.64911677E+02</rscale>
<asrwt>0</asrwt>
<pdfrwt beam="1">  1        2 0.12102445E-01 0.94141471E+02</pdfrwt>
<pdfrwt beam="2">  1       -2 0.19420356E-01 0.94141471E+02</pdfrwt>
<totfact> 0.10146105E+04</totfact>
</mgrwt>
</event>
<event>
 6    1  0.1535970E-002  0.9564892E+02  0.7546771E-02  0.1352731E+00
         -2   -1    0    0    0  501 -0.00000000000E+00  0.00000000000E+00  0.15766247057E+02  0.15766247057E+02  0.00000000000E+00 0.  1.
          2   -1    0    0  501    0  0.00000000000E+00 -0.00000000000E+00 -0.39896977158E+03  0.39896977158E+03  0.00000000000E+00 0. -1.
         23    2    1    2    0    0 -0.22546426759E+02  0.21381718934E+02 -0.36784037559E+03  0.38007270072E+03  0.90461022834E+02 0.  0.
         11    1    3    3    0    0 -0.36305715703E+02  0.47221923650E+02 -0.17122640644E+03  0.18129119484E+03  0.00000000000E+00 0.  1.
        -11    1    3    3    0    0  0.13759288944E+02 -0.25840204716E+02 -0.19661396915E+03  0.19878150588E+03  0.00000000000E+00 0. -1.
         22    1    1    2    0    0  0.22546426759E+02 -0.21381718934E+02 -0.15363148935E+02  0.34663317922E+02  0.00000000000E+00 0.  1.
<mgrwt>
<rscale>  0 0.72211301E+02</rscale>
<asrwt>0</asrwt>
<pdfrwt beam="1">  1        2 0.61379967E-01 0.95648920E+02</pdfrwt>
<pdfrwt beam="2">  1       -2 0.24255764E-02 0.95648920E+02</pdfrwt>
<totfact> 0.41375658E+04</totfact>
</mgrwt>
</event>
<event>
 6    1  0.1535970E-002  0.9505324E+02  0.7546771E-02  0.1374403E+00
          3   -1    0    0  501    0  0.00000000000E+00  0.00000000000E+00  0.40877816337E+03  0.40877816337E+03  0.00000000000E+00 0. -1.
         -3   -1    0    0    0  501 -0.00000000000E+00 -0.00000000000E+00 -0.89337687287E+01  0.89337687287E+01  0.00000000000E+00 0.  1.
         23    2    1    2    0    0 -0.16881731977E+02 -0.14166158348E+02  0.35818202722E+03  0.37057992837E+03  0.92463213042E+02 0.  0.
         13    1    3    3    0    0 -0.10881987547E+02  0.20410775677E+02  0.19988650573E+02  0.30570632451E+02  0.00000000000E+00 0.  1.
        -13    1    3    3    0    0 -0.59997444298E+01 -0.34576934024E+02  0.33819337665E+03  0.34000929592E+03  0.00000000000E+00 0. -1.
         22    1    1    2    0    0  0.16881731977E+02  0.14166158348E+02  0.41662367419E+02  0.47132003732E+02  0.00000000000E+00 0.  1.
<mgrwt>
<rscale>  0 0.65958107E+02</rscale>
<asrwt>0</asrwt>
<pdfrwt beam="1">  1        3 0.62888934E-01 0.95053241E+02</pdfrwt>
<pdfrwt beam="2">  1       -3 0.13744263E-02 0.95053241E+02</pdfrwt>
<totfact> 0.88478224E+03</totfact>
</mgrwt>
</event>
<event>
 6    1  0.1535970E-002  0.9305857E+02  0.7546771E-02  0.1413078E+00
          2   -1    0    0  501    0  0.00000000000E+00  0.00000000000E+00  0.47164575778E+03  0.47164575778E+03  0.00000000000E+00 0.  1.
         -2   -1    0    0    0  501 -0.00000000000E+00 -0.00000000000E+00 -0.61406658363E+01  0.61406658363E+01  0.00000000000E+00 0. -1.
         23    2    1    2    0    0 -0.78704565060E+01  0.99118091159E+01  0.43336961983E+03  0.44324837773E+03  0.92193865980E+02 0.  0.
         11    1    3    3    0    0 -0.41423333351E+02 -0.21640577809E+01  0.35163959970E+03  0.35407765218E+03  0.00000000000E+00 0.  1.
        -11    1    3    3    0    0  0.33552876845E+02  0.12075866897E+02  0.81730020125E+02  0.89170725553E+02  0.00000000000E+00 0. -1.
         22    1    1    2    0    0  0.78704565060E+01 -0.99118091159E+01  0.32135472111E+02  0.34538045882E+02  0.00000000000E+00 0.  1.
<mgrwt>
<rscale>  0 0.56512697E+02</rscale>
<asrwt>0</asrwt>
<pdfrwt beam="1">  1        2 0.72560857E-01 0.93058567E+02</pdfrwt>
<pdfrwt beam="2">  1       -2 0.94471819E-03 0.93058567E+02</pdfrwt>
<totfact> 0.13277407E+05</totfact>
</mgrwt>
</event>
<event>
 6    1  0.1535970E-002  0.8952993E+02  0.7546771E-02  0.1425188E+00
         -2   -1    0    0    0  501 -0.00000000000E+00  0.00000000000E+00  0.20801705149E+02  0.20801705149E+02  0.00000000000E+00 0.  1.
          2   -1    0    0  501    0  0.00000000000E+00 -0.00000000000E+00 -0.19002351043E+03  0.19002351043E+03  0.00000000000E+00 0. -1.
         23    2    1    2    0    0  0.23407034376E+00 -0.11792171943E+02 -0.17582582589E+03  0.19730770116E+03  0.88749635373E+02 0.  0.
         11    1    3    3    0    0  0.27030718778E+02 -0.30106381797E+02 -0.37300501663E+02  0.55030731477E+02  0.00000000000E+00 0.  1.
        -11    1    3    3    0    0 -0.26796648435E+02  0.18314209853E+02 -0.13852532422E+03  0.14227696968E+03  0.00000000000E+00 0. -1.
         22    1    1    2    0    0 -0.23407034376E+00  0.11792171943E+02  0.66040206037E+01  0.13517514424E+02  0.00000000000E+00 0. -1.
<mgrwt>
<rscale>  0 0.53938145E+02</rscale>
<asrwt>0</asrwt>
<pdfrwt beam="1">  1        2 0.29234387E-01 0.89529927E+02</pdfrwt>
<pdfrwt beam="2">  1       -2 0.32002623E-02 0.89529927E+02</pdfrwt>
<totfact> 0.59906076E+04</totfact>
</mgrwt>
</event>
<event>
 6    1  0.1535970E-002  0.9842519E+02  0.7546771E-02  0.1355394E+00
          1   -1    0    0  501    0  0.00000000000E+00  0.00000000000E+00  0.24199043087E+03  0.24199043087E+03  0.00000000000E+00 0. -1.
         -1   -1    0    0    0  501 -0.00000000000E+00 -0.00000000000E+00 -0.27862910418E+02  0.27862910418E+02  0.00000000000E+00 0.  1.
         23    2    1    2    0    0  0.45130119888E+01 -0.26881660833E+02  0.22084053317E+03  0.24178101494E+03  0.94575510192E+02 0.  0.
         11    1    3    3    0    0  0.40275690431E+02 -0.42962897346E+02  0.14202649576E+03  0.15375131637E+03  0.00000000000E+00 0. -1.
        -11    1    3    3    0    0 -0.35762678443E+02  0.16081236513E+02  0.78814037413E+02  0.88029698571E+02  0.00000000000E+00 0.  1.
         22    1    1    2    0    0 -0.45130119888E+01  0.26881660833E+02 -0.67130127252E+01  0.28072326341E+02  0.00000000000E+00 0.  1.
<mgrwt>
<rscale>  0 0.71400728E+02</rscale>
<asrwt>0</asrwt>
<pdfrwt beam="1">  1        1 0.37229296E-01 0.98425190E+02</pdfrwt>
<pdfrwt beam="2">  1       -1 0.42866018E-02 0.98425190E+02</pdfrwt>
<totfact> 0.22931428E+04</totfact>
</mgrwt>
</event>
<event>
 6    1  0.1535970E-002  0.1134356E+03  0.7546771E-02  0.1281362E+00
         -2   -1    0    0    0  501 -0.00000000000E+00  0.00000000000E+00  0.24543999759E+03  0.24543999759E+03  0.00000000000E+00 0.  1.
          2   -1    0    0  501    0  0.00000000000E+00 -0.00000000000E+00 -0.68152247166E+02  0.68152247166E+02  0.00000000000E+00 0. -1.
         23    2    1    2    0    0 -0.57054922299E+02  0.35382181428E+02 -0.10735811526E+02  0.11394249452E+03  0.91435613888E+02 0.  0.
         11    1    3    3    0    0  0.61383873383E+01  0.20035649435E+02  0.30452700299E+02  0.36965849143E+02  0.00000000000E+00 0.  1.
        -11    1    3    3    0    0 -0.63193309637E+02  0.15346531993E+02 -0.41188511825E+02  0.76976645377E+02  0.00000000000E+00 0. -1.
         22    1    1    2    0    0  0.57054922299E+02 -0.35382181428E+02  0.18802356195E+03  0.19964975023E+03  0.00000000000E+00 0.  1.
<mgrwt>
<rscale>  0 0.99494695E+02</rscale>
<asrwt>0</asrwt>
<pdfrwt beam="1">  1        2 0.10484961E-01 0.11343560E+03</pdfrwt>
<pdfrwt beam="2">  1       -2 0.37759999E-01 0.11343560E+03</pdfrwt>
<totfact> 0.37951216E+03</totfact>
</mgrwt>
</event>
<event>
 6    1  0.1535970E-002  0.9546713E+02  0.7546771E-02  0.1355064E+00
         -2   -1    0    0    0  501 -0.00000000000E+00  0.00000000000E+00  0.59520323762E+01  0.59520323762E+01  0.00000000000E+00 0. -1.
          2   -1    0    0  501    0  0.00000000000E+00 -0.00000000000E+00 -0.74727429847E+03  0.74727429847E+03  0.00000000000E+00 0.  1.
         23    2    1    2    0    0 -0.25038248535E+00 -0.30037072081E+02 -0.65286451989E+03  0.65980758940E+03  0.90618349706E+02 0.  0.
         13    1    3    3    0    0  0.21149003592E+02 -0.26685402449E+02 -0.85512742418E+02  0.92042491126E+02  0.00000000000E+00 0. -1.
        -13    1    3    3    0    0 -0.21399386077E+02 -0.33516696325E+01 -0.56735177747E+03  0.56776509827E+03  0.00000000000E+00 0.  1.
         22    1    1    2    0    0  0.25038248535E+00  0.30037072081E+02 -0.88457746205E+02  0.93418741451E+02  0.00000000000E+00 0. -1.
<mgrwt>
<rscale>  0 0.71500419E+02</rscale>
<asrwt>0</asrwt>
<pdfrwt beam="1">  1        2 0.11496531E+00 0.95467134E+02</pdfrwt>
<pdfrwt beam="2">  1       -2 0.91569703E-03 0.95467134E+02</pdfrwt>
<totfact> 0.83052992E+04</totfact>
</mgrwt>
</event>
<event>
 6    1  0.1535970E-002  0.9796433E+02  0.7546771E-02  0.1338139E+00
         -2   -1    0    0    0  501 -0.00000000000E+00  0.00000000000E+00  0.17291832020E+03  0.17291832020E+03  0.00000000000E+00 0.  1.
          2   -1    0    0  501    0  0.00000000000E+00 -0.00000000000E+00 -0.28226722917E+02  0.28226722917E+02  0.00000000000E+00 0. -1.
         23    2    1    2    0    0 -0.35144642686E+02 -0.12078046430E+02  0.79745620258E+02  0.12631854349E+03  0.90642072809E+02 0.  0.
         13    1    3    3    0    0 -0.43819926656E+02  0.27356439753E+02  0.22691731730E+02  0.56422295743E+02  0.00000000000E+00 0. -1.
        -13    1    3    3    0    0  0.86752839693E+01 -0.39434486183E+02  0.57053888528E+02  0.69896247743E+02  0.00000000000E+00 0.  1.
         22    1    1    2    0    0  0.35144642686E+02  0.12078046430E+02  0.64945977028E+02  0.74826499632E+02  0.00000000000E+00 0. -1.
<mgrwt>
<rscale>  0 0.76882268E+02</rscale>
<asrwt>0</asrwt>
<pdfrwt beam="1">  1        2 0.43425729E-02 0.97964333E+02</pdfrwt>
<pdfrwt beam="2">  1       -2 0.26602818E-01 0.97964333E+02</pdfrwt>
<totfact> 0.21452898E+04</totfact>
</mgrwt>
</event>
<event>
 6    1  0.1535970E-002  0.9514044E+02  0.7546771E-02  0.1365223E+00
         -2   -1    0    0    0  501 -0.00000000000E+00  0.00000000000E+00  0.16517536515E+02  0.16517536515E+02  0.00000000000E+00 0.  1.
          2   -1    0    0  501    0  0.00000000000E+00 -0.00000000000E+00 -0.25629863137E+03  0.25629863137E+03  0.00000000000E+00 0. -1.
         23    2    1    2    0    0  0.25089569375E+02  0.50161329698E+01 -0.22236981469E+03  0.24186781157E+03  0.91635450059E+02 0.  0.
         13    1    3    3    0    0  0.37127523537E+02  0.35239975394E+02 -0.74041239384E+02  0.90013410108E+02  0.00000000000E+00 0.  1.
        -13    1    3    3    0    0 -0.12037954162E+02 -0.30223842424E+02 -0.14832857531E+03  0.15185440147E+03  0.00000000000E+00 0. -1.
         22    1    1    2    0    0 -0.25089569375E+02 -0.50161329698E+01 -0.17411280158E+02  0.30948356308E+02  0.00000000000E+00 0. -1.
<mgrwt>
<rscale>  0 0.68513296E+02</rscale>
<asrwt>0</asrwt>
<pdfrwt beam="1">  1        2 0.39430559E-01 0.95140442E+02</pdfrwt>
<pdfrwt beam="2">  1       -2 0.25411595E-02 0.95140442E+02</pdfrwt>
<totfact> 0.61481862E+04</totfact>
</mgrwt>
</event>
<event>
 6    1  0.1535970E-002  0.1021927E+03  0.7546771E-02  0.1314600E+00
          2   -1    0    0  501    0  0.00000000000E+00  0.00000000000E+00  0.53614398236E+03  0.53614398236E+03  0.00000000000E+00 0. -1.
         -2   -1    0    0    0  501 -0.00000000000E+00 -0.00000000000E+00 -0.11636736826E+02  0.11636736826E+02  0.00000000000E+00 0.  1.
         23    2    1    2    0    0  0.39147446662E+02  0.30540456635E+02  0.27483530627E+03  0.29321968657E+03  0.89320193390E+02 0.  0.
         11    1    3    3    0    0  0.42989865669E+02  0.53634247441E+02  0.13556624217E+03  0.15199660215E+03  0.00000000000E+00 0.  1.
        -11    1    3    3    0    0 -0.38424190065E+01 -0.23093790806E+02  0.13926906410E+03  0.14122308442E+03  0.00000000000E+00 0. -1.
         22    1    1    2    0    0 -0.39147446662E+02 -0.30540456635E+02  0.24967193926E+03  0.25456103262E+03  0.00000000000E+00 0. -1.
<mgrwt>
<rscale>  0 0.85319286E+02</rscale>
<asrwt>0</asrwt>
<pdfrwt beam="1">  1        2 0.82483670E-01 0.10219266E+03</pdfrwt>
<pdfrwt beam="2">  1       -2 0.17902676E-02 0.10219266E+03</pdfrwt>
<totfact> 0.47038235E+04</totfact>
</mgrwt>
</event>
<event>
 6    1  0.1535970E-002  0.9207017E+02  0.7546771E-02  0.1415628E+00
         -2   -1    0    0    0  501 -0.00000000000E+00  0.00000000000E+00  0.68438582131E+01  0.68438582131E+01  0.00000000000E+00 0.  1.
          2   -1    0    0  501    0  0.00000000000E+00 -0.00000000000E+00 -0.40103901384E+03  0.40103901384E+03  0.00000000000E+00 0. -1.
         23    2    1    2    0    0  0.55916070255E+01  0.11248663865E+02 -0.35348156571E+03  0.36527542069E+03  0.91209194462E+02 0.  0.
         11    1    3    3    0    0  0.22792497184E+02  0.46643165021E+02 -0.22449040582E+03  0.23041489769E+03  0.00000000000E+00 0.  1.
        -11    1    3    3    0    0 -0.17200890158E+02 -0.35394501156E+02 -0.12899115989E+03  0.13486052300E+03  0.00000000000E+00 0. -1.
         22    1    1    2    0    0 -0.55916070255E+01 -0.11248663865E+02 -0.40713589916E+02  0.42607451364E+02  0.00000000000E+00 0. -1.
<mgrwt>
<rscale>  0 0.55956696E+02</rscale>
<asrwt>0</asrwt>
<pdfrwt beam="1">  1        2 0.61698334E-01 0.92070167E+02</pdfrwt>
<pdfrwt beam="2">  1       -2 0.10529009E-02 0.92070167E+02</pdfrwt>
<totfact> 0.13506432E+05</totfact>
</mgrwt>
</event>
<event>
 6    1  0.1535970E-002  0.1078721E+03  0.7546771E-02  0.1297473E+00
          2   -1    0    0  501    0  0.00000000000E+00  0.00000000000E+00  0.26310224686E+03  0.26310224686E+03  0.00000000000E+00 0. -1.
         -2   -1    0    0    0  501 -0.00000000000E+00 -0.00000000000E+00 -0.29616084048E+02  0.29616084048E+02  0.00000000000E+00 0.  1.
         23    2    1    2    0    0  0.57254539336E+02 -0.72858107404E+01  0.19651773095E+03  0.22417761113E+03  0.91132965724E+02 0.  0.
         11    1    3    3    0    0  0.38850707885E+02 -0.15270469954E+02  0.19582985219E+02  0.46109197194E+02  0.00000000000E+00 0.  1.
        -11    1    3    3    0    0  0.18403831452E+02  0.79846592138E+01  0.17693474573E+03  0.17806841394E+03  0.00000000000E+00 0. -1.
         22    1    1    2    0    0 -0.57254539336E+02  0.72858107404E+01  0.36968431855E+02  0.68540719770E+02  0.00000000000E+00 0.  1.
<mgrwt>
<rscale>  0 0.92258475E+02</rscale>
<asrwt>0</asrwt>
<pdfrwt beam="1">  1        2 0.40477267E-01 0.10787207E+03</pdfrwt>
<pdfrwt beam="2">  1       -2 0.45563208E-02 0.10787207E+03</pdfrwt>
<totfact> 0.25807180E+04</totfact>
</mgrwt>
</event>
<event>
 6    1  0.1535970E-002  0.9172382E+02  0.7546771E-02  0.1417962E+00
         -1   -1    0    0    0  501 -0.00000000000E+00  0.00000000000E+00  0.29468532927E+02  0.29468532927E+02  0.00000000000E+00 0.  1.
          1   -1    0    0  501    0  0.00000000000E+00 -0.00000000000E+00 -0.92528113314E+02  0.92528113314E+02  0.00000000000E+00 0. -1.
         23    2    1    2    0    0  0.41092105894E+01  0.11545000178E+02 -0.59114468814E+02  0.10912277557E+03  0.90901524101E+02 0.  0.
         11    1    3    3    0    0  0.12075279553E+02  0.52395829963E+01 -0.82543168694E+02  0.83586125071E+02  0.00000000000E+00 0. -1.
        -11    1    3    3    0    0 -0.79660689634E+01  0.63054171819E+01  0.23428699880E+02  0.25536650498E+02  0.00000000000E+00 0.  1.
         22    1    1    2    0    0 -0.41092105894E+01 -0.11545000178E+02 -0.39451115731E+01  0.12873870673E+02  0.00000000000E+00 0.  1.
<mgrwt>
<rscale>  0 0.55454330E+02</rscale>
<asrwt>0</asrwt>
<pdfrwt beam="1">  1        1 0.14235094E-01 0.91723823E+02</pdfrwt>
<pdfrwt beam="2">  1       -1 0.45336205E-02 0.91723823E+02</pdfrwt>
<totfact> 0.69584049E+04</totfact>
</mgrwt>
</event>
<event>
 6    1  0.1535970E-002  0.9715461E+02  0.7546771E-02  0.1354518E+00
         -2   -1    0    0    0  501 -0.00000000000E+00  0.00000000000E+00  0.23210105671E+02  0.23210105671E+02  0.00000000000E+00 0.  1.
          2   -1    0    0  501    0  0.00000000000E+00 -0.00000000000E+00 -0.17962490542E+03  0.17962490542E+03  0.00000000000E+00 0. -1.
         23    2    1    2    0    0 -0.17875236503E+02 -0.22536332844E+02 -0.13767840730E+03  0.16850626541E+03  0.92798746045E+02 0.  0.
         11    1    3    3    0    0  0.55984981761E+01  0.34634207993E+02 -0.43938447798E+02  0.56226850703E+02  0.00000000000E+00 0.  1.
        -11    1    3    3    0    0 -0.23473734679E+02 -0.57170540837E+02 -0.93739959498E+02  0.11227941470E+03  0.00000000000E+00 0. -1.
         22    1    1    2    0    0  0.17875236503E+02  0.22536332844E+02 -0.18736392452E+02  0.34328745683E+02  0.00000000000E+00 0.  1.
<mgrwt>
<rscale>  0 0.71665918E+02</rscale>
<asrwt>0</asrwt>
<pdfrwt beam="1">  1        2 0.27634599E-01 0.97154607E+02</pdfrwt>
<pdfrwt beam="2">  1       -2 0.35707857E-02 0.97154607E+02</pdfrwt>
<totfact> 0.54833258E+04</totfact>
</mgrwt>
</event>
<event>
 6    1  0.1535970E-002  0.8879790E+02  0.7546771E-02  0.1422686E+00
         -2   -1    0    0    0  501 -0.00000000000E+00  0.00000000000E+00  0.42760182590E+01  0.42760182590E+01  0.00000000000E+00 0.  1.
          2   -1    0    0  501    0  0.00000000000E+00 -0.00000000000E+00 -0.15261311848E+04  0.15261311848E+04  0.00000000000E+00 0. -1.
         23    2    1    2    0    0 -0.47947743629E+01  0.11609037791E+02 -0.15115622246E+04  0.15141682292E+04  0.87905106455E+02 0.  0.
         13    1    3    3    0    0  0.21556779531E+02  0.29749645034E+02 -0.30837466837E+03  0.31055542535E+03  0.00000000000E+00 0.  1.
        -13    1    3    3    0    0 -0.26351553894E+02 -0.18140607242E+02 -0.12031875562E+04  0.12036128038E+04  0.00000000000E+00 0. -1.
         22    1    1    2    0    0  0.47947743629E+01 -0.11609037791E+02 -0.10292941953E+02  0.16238973910E+02  0.00000000000E+00 0.  1.
<mgrwt>
<rscale>  0 0.54456724E+02</rscale>
<asrwt>0</asrwt>
<pdfrwt beam="1">  1        2 0.23478916E+00 0.88797902E+02</pdfrwt>
<pdfrwt beam="2">  1       -2 0.65784967E-03 0.88797902E+02</pdfrwt>
<totfact> 0.47311876E+04</totfact>
</mgrwt>
</event>
<event>
 6    1  0.1535970E-002  0.9397946E+02  0.7546771E-02  0.1380372E+00
         -2   -1    0    0    0  501 -0.00000000000E+00  0.00000000000E+00  0.13179281725E+02  0.13179281725E+02  0.00000000000E+00 0.  1.
          2   -1    0    0  501    0  0.00000000000E+00 -0.00000000000E+00 -0.32127695583E+03  0.32127695583E+03  0.00000000000E+00 0. -1.
         23    2    1    2    0    0 -0.13633211585E+02  0.15548675295E+02 -0.29585954632E+03  0.31042713992E+03  0.91676127144E+02 0.  0.
         13    1    3    3    0    0 -0.35192124466E+02 -0.11367308314E+02 -0.50161632766E+02  0.62320869093E+02  0.00000000000E+00 0.  1.
        -13    1    3    3    0    0  0.21558912882E+02  0.26915983609E+02 -0.24569791355E+03  0.24810627082E+03  0.00000000000E+00 0. -1.
         22    1    1    2    0    0  0.13633211585E+02 -0.15548675295E+02 -0.12238127784E+02  0.24029097636E+02  0.00000000000E+00 0.  1.
<mgrwt>
<rscale>  0 0.64366171E+02</rscale>
<asrwt>0</asrwt>
<pdfrwt beam="1">  1        2 0.49427226E-01 0.93979455E+02</pdfrwt>
<pdfrwt beam="2">  1       -2 0.20275817E-02 0.93979455E+02</pdfrwt>
<totfact> 0.67105383E+04</totfact>
</mgrwt>
</event>
<event>
 6    1  0.1535970E-002  0.9138255E+02  0.7546771E-02  0.1421365E+00
          2   -1    0    0  501    0  0.00000000000E+00  0.00000000000E+00  0.24499349072E+04  0.24499349072E+04  0.00000000000E+00 0. -1.
         -2   -1    0    0    0  501 -0.00000000000E+00 -0.00000000000E+00 -0.13858578637E+01  0.13858578637E+01  0.00000000000E+00 0.  1.
         23    2    1    2    0    0 -0.62826055678E+01 -0.99413177648E+01  0.23811889483E+04  0.23829417906E+04  0.90622674550E+02 0.  0.
         11    1    3    3    0    0  0.30156055037E+02 -0.77247812590E+01  0.19385729005E+04  0.19388228260E+04  0.00000000000E+00 0. -1.
        -11    1    3    3    0    0 -0.36438660605E+02 -0.22165365058E+01  0.44261604777E+03  0.44411896465E+03  0.00000000000E+00 0.  1.
         22    1    1    2    0    0  0.62826055678E+01  0.99413177648E+01  0.67360101062E+02  0.68378974449E+02  0.00000000000E+00 0.  1.
<mgrwt>
<rscale>  0 0.54733168E+02</rscale>
<asrwt>0</asrwt>
<pdfrwt beam="1">  1        2 0.37690960E+00 0.91382548E+02</pdfrwt>
<pdfrwt beam="2">  1       -2 0.21321086E-03 0.91382548E+02</pdfrwt>
<totfact> 0.77846720E+04</totfact>
</mgrwt>
</event>
<event>
 6    1  0.1535970E-002  0.9537046E+02  0.7546771E-02  0.1356585E+00
          2   -1    0    0  501    0  0.00000000000E+00  0.00000000000E+00  0.25160070301E+02  0.25160070301E+02  0.00000000000E+00 0. -1.
         -2   -1    0    0    0  501 -0.00000000000E+00 -0.00000000000E+00 -0.16777901663E+03  0.16777901663E+03  0.00000000000E+00 0.  1.
         23    2    1    2    0    0 -0.17349421714E+02 -0.23690875622E+02 -0.82788438587E+02  0.12629113364E+03  0.90737339890E+02 0.  0.
         11    1    3    3    0    0 -0.50473020552E+02 -0.17466761233E+02 -0.24060104179E+02  0.58579024955E+02  0.00000000000E+00 0. -1.
        -11    1    3    3    0    0  0.33123598838E+02 -0.62241143886E+01 -0.58728334409E+02  0.67712108683E+02  0.00000000000E+00 0.  1.
         22    1    1    2    0    0  0.17349421714E+02  0.23690875622E+02 -0.59830507736E+02  0.66647953289E+02  0.00000000000E+00 0.  1.
<mgrwt>
<rscale>  0 0.71042002E+02</rscale>
<asrwt>0</asrwt>
<pdfrwt beam="1">  1        2 0.38707801E-02 0.95370461E+02</pdfrwt>
<pdfrwt beam="2">  1       -2 0.25812156E-01 0.95370461E+02</pdfrwt>
<totfact> 0.26198539E+04</totfact>
</mgrwt>
</event>
<event>
 6    1  0.1535970E-002  0.9521347E+02  0.7546771E-02  0.1423414E+00
          1   -1    0    0  501    0  0.00000000000E+00  0.00000000000E+00  0.18695893608E+03  0.18695893608E+03  0.00000000000E+00 0. -1.
         -1   -1    0    0    0  501 -0.00000000000E+00 -0.00000000000E+00 -0.15009645801E+02  0.15009645801E+02  0.00000000000E+00 0.  1.
         23    2    1    2    0    0  0.92902749851E+01  0.38996534107E+01  0.16132181738E+03  0.18732413972E+03  0.94678868038E+02 0.  0.
         11    1    3    3    0    0 -0.25489273945E+02 -0.29726279586E+02  0.11015730980E+03  0.11691016931E+03  0.00000000000E+00 0. -1.
        -11    1    3    3    0    0  0.34779548930E+02  0.33625932997E+02  0.51164507575E+02  0.70413970412E+02  0.00000000000E+00 0.  1.
         22    1    1    2    0    0 -0.92902749851E+01 -0.38996534107E+01  0.10627472904E+02  0.14644442166E+02  0.00000000000E+00 0.  1.
<mgrwt>
<rscale>  0 0.54305132E+02</rscale>
<asrwt>0</asrwt>
<pdfrwt beam="1">  1        1 0.28762912E-01 0.95213468E+02</pdfrwt>
<pdfrwt beam="2">  1       -1 0.23091764E-02 0.95213468E+02</pdfrwt>
<totfact> 0.76626140E+04</totfact>
</mgrwt>
</event>
<event>
 6    1  0.1535970E-002  0.9013039E+02  0.7546771E-02  0.1421826E+00
          2   -1    0    0  501    0  0.00000000000E+00  0.00000000000E+00  0.78067031148E+03  0.78067031148E+03  0.00000000000E+00 0. -1.
         -2   -1    0    0    0  501 -0.00000000000E+00 -0.00000000000E+00 -0.34636333900E+01  0.34636333900E+01  0.00000000000E+00 0.  1.
         23    2    1    2    0    0 -0.89920461217E+01 -0.82017761731E+01  0.72185258068E+03  0.72745765242E+03  0.89304881185E+02 0.  0.
         11    1    3    3    0    0  0.33540370385E+02  0.12093072410E+02  0.17603278585E+03  0.17960718399E+03  0.00000000000E+00 0. -1.
        -11    1    3    3    0    0 -0.42532416506E+02 -0.20294848583E+02  0.54581979483E+03  0.54785046843E+03  0.00000000000E+00 0.  1.
         22    1    1    2    0    0  0.89920461217E+01  0.82017761731E+01  0.55354097404E+02  0.56676292445E+02  0.00000000000E+00 0.  1.
<mgrwt>
<rscale>  0 0.54636437E+02</rscale>
<asrwt>0</asrwt>
<pdfrwt beam="1">  1        2 0.12010299E+00 0.90130393E+02</pdfrwt>
<pdfrwt beam="2">  1       -2 0.53286729E-03 0.90130393E+02</pdfrwt>
<totfact> 0.16757850E+05</totfact>
</mgrwt>
</event>
<event>
 6    1  0.1535970E-002  0.9517170E+02  0.7546771E-02  0.1372826E+00
         -2   -1    0    0    0  501 -0.00000000000E+00  0.00000000000E+00  0.56557725459E+02  0.56557725459E+02  0.00000000000E+00 0.  1.
          2   -1    0    0  501    0  0.00000000000E+00 -0.00000000000E+00 -0.94422659927E+02  0.94422659927E+02  0.00000000000E+00 0. -1.
         23    2    1    2    0    0 -0.66150561302E+01 -0.21540791032E+02 -0.65343134359E+02  0.11544426130E+03  0.92465602325E+02 0.  0.
         13    1    3    3    0    0  0.55035919416E+01 -0.40334738468E+02 -0.79261521369E+02  0.89104261522E+02  0.00000000000E+00 0. -1.
        -13    1    3    3    0    0 -0.12118648072E+02  0.18793947436E+02  0.13918387011E+02  0.26339999778E+02  0.00000000000E+00 0.  1.
         22    1    1    2    0    0  0.66150561302E+01  0.21540791032E+02  0.27478199890E+02  0.35536124086E+02  0.00000000000E+00 0.  1.
<mgrwt>
<rscale>  0 0.66387861E+02</rscale>
<asrwt>0</asrwt>
<pdfrwt beam="1">  1        2 0.14526563E-01 0.95171699E+02</pdfrwt>
<pdfrwt beam="2">  1       -2 0.87011887E-02 0.95171699E+02</pdfrwt>
<totfact> 0.29576750E+04</totfact>
</mgrwt>
</event>
<event>
 6    1  0.1535970E-002  0.8660535E+02  0.7546771E-02  0.1422922E+00
         -2   -1    0    0    0  501 -0.00000000000E+00  0.00000000000E+00  0.20870314659E+03  0.20870314659E+03  0.00000000000E+00 0.  1.
          2   -1    0    0  501    0  0.00000000000E+00 -0.00000000000E+00 -0.14315932733E+02  0.14315932733E+02  0.00000000000E+00 0. -1.
         23    2    1    2    0    0  0.47553955345E+01 -0.12623697441E+02  0.12338004485E+03  0.15074190744E+03  0.85548323595E+02 0.  0.
         11    1    3    3    0    0  0.39976781884E+02 -0.17281858923E+02  0.36311996962E+02  0.56704204967E+02  0.00000000000E+00 0. -1.
        -11    1    3    3    0    0 -0.35221386349E+02  0.46581614820E+01  0.87068047885E+02  0.94037702478E+02  0.00000000000E+00 0.  1.
         22    1    1    2    0    0 -0.47553955345E+01  0.12623697441E+02  0.71007169006E+02  0.72277171873E+02  0.00000000000E+00 0.  1.
<mgrwt>
<rscale>  0 0.54407526E+02</rscale>
<asrwt>0</asrwt>
<pdfrwt beam="1">  1        2 0.22024513E-02 0.86605353E+02</pdfrwt>
<pdfrwt beam="2">  1       -2 0.32108174E-01 0.86605353E+02</pdfrwt>
<totfact> 0.37163313E+04</totfact>
</mgrwt>
</event>
<event>
 6    1  0.1535970E-002  0.9138149E+02  0.7546771E-02  0.1402573E+00
          1   -1    0    0  501    0  0.00000000000E+00  0.00000000000E+00  0.27172910644E+02  0.27172910644E+02  0.00000000000E+00 0. -1.
         -1   -1    0    0    0  501 -0.00000000000E+00 -0.00000000000E+00 -0.14057915304E+03  0.14057915304E+03  0.00000000000E+00 0.  1.
         23    2    1    2    0    0  0.69608628027E+01 -0.14134519251E+02 -0.53677945773E+02  0.10598064907E+03  0.90012987232E+02 0.  0.
         11    1    3    3    0    0  0.76190386259E+01 -0.30349071783E+02  0.15503798243E+02  0.34921106335E+02  0.00000000000E+00 0. -1.
        -11    1    3    3    0    0 -0.65817582320E+00  0.16214552532E+02 -0.69181744017E+02  0.71059542740E+02  0.00000000000E+00 0.  1.
         22    1    1    2    0    0 -0.69608628027E+01  0.14134519251E+02 -0.59728296627E+02  0.61771414614E+02  0.00000000000E+00 0.  1.
<mgrwt>
<rscale>  0 0.58884671E+02</rscale>
<asrwt>0</asrwt>
<pdfrwt beam="1">  1        1 0.41804479E-02 0.91381487E+02</pdfrwt>
<pdfrwt beam="2">  1       -1 0.21627562E-01 0.91381487E+02</pdfrwt>
<totfact> 0.33021862E+04</totfact>
</mgrwt>
</event>
<event>
 6    1  0.1535970E-002  0.1325177E+03  0.7546771E-02  0.1248288E+00
         -4   -1    0    0    0  501 -0.00000000000E+00  0.00000000000E+00  0.35779792696E+02  0.35779792696E+02  0.00000000000E+00 0.  1.
          4   -1    0    0  501    0  0.00000000000E+00 -0.00000000000E+00 -0.31653244509E+03  0.31653244509E+03  0.00000000000E+00 0. -1.
         23    2    1    2    0    0 -0.64125455083E+02 -0.48279433925E+02 -0.17089235088E+03  0.21625245836E+03  0.10544170155E+03 0.  0.
         11    1    3    3    0    0 -0.87787913054E+02 -0.57008266095E+02 -0.11853225614E+03  0.15813461300E+03  0.00000000000E+00 0.  1.
        -11    1    3    3    0    0  0.23662457971E+02  0.87288321695E+01 -0.52360094738E+02  0.58117845360E+02  0.00000000000E+00 0. -1.
         22    1    1    2    0    0  0.64125455083E+02  0.48279433925E+02 -0.10986030151E+03  0.13605977943E+03  0.00000000000E+00 0. -1.
<mgrwt>
<rscale>  0 0.11690717E+03</rscale>
<asrwt>0</asrwt>
<pdfrwt beam="1">  1        4 0.48697297E-01 0.13251766E+03</pdfrwt>
<pdfrwt beam="2">  1       -4 0.55045837E-02 0.13251766E+03</pdfrwt>
<totfact> 0.13724185E+03</totfact>
</mgrwt>
</event>
<event>
 6    1  0.1535970E-002  0.8957599E+02  0.7546771E-02  0.1427584E+00
          2   -1    0    0  501    0  0.00000000000E+00  0.00000000000E+00  0.88483057748E+03  0.88483057748E+03  0.00000000000E+00 0.  1.
         -2   -1    0    0    0  501 -0.00000000000E+00 -0.00000000000E+00 -0.30299303886E+01  0.30299303886E+01  0.00000000000E+00 0. -1.
         23    2    1    2    0    0 -0.73722458669E+01 -0.86351452655E+01  0.83059150635E+03  0.83540774971E+03  0.88853486782E+02 0.  0.
         11    1    3    3    0    0 -0.36698268804E+01 -0.82039845020E+01  0.83151826000E+03  0.83156682817E+03  0.00000000000E+00 0.  1.
        -11    1    3    3    0    0 -0.37024189865E+01 -0.43116076353E+00 -0.92675365402E+00  0.38409215418E+01  0.00000000000E+00 0. -1.
         22    1    1    2    0    0  0.73722458669E+01  0.86351452655E+01  0.51209140741E+02  0.52452758158E+02  0.00000000000E+00 0.  1.
<mgrwt>
<rscale>  0 0.53448061E+02</rscale>
<asrwt>0</asrwt>
<pdfrwt beam="1">  1        2 0.13612758E+00 0.89575989E+02</pdfrwt>
<pdfrwt beam="2">  1       -2 0.46614384E-03 0.89575989E+02</pdfrwt>
<totfact> 0.17288460E+05</totfact>
</mgrwt>
</event>
<event>
 6    1  0.1535970E-002  0.9566717E+02  0.7546771E-02  0.1413719E+00
          2   -1    0    0  501    0  0.00000000000E+00  0.00000000000E+00  0.10594775614E+04  0.10594775614E+04  0.00000000000E+00 0. -1.
         -2   -1    0    0    0  501 -0.00000000000E+00 -0.00000000000E+00 -0.28038111680E+01  0.28038111680E+01  0.00000000000E+00 0.  1.
         23    2    1    2    0    0  0.11260548798E+02 -0.24951165493E+01  0.99057323932E+03  0.99518216908E+03  0.94969372075E+02 0.  0.
         13    1    3    3    0    0  0.36727113075E+02 -0.28099699514E+02  0.28867064259E+03  0.29235118238E+03  0.00000000000E+00 0.  1.
        -13    1    3    3    0    0 -0.25466564277E+02  0.25604582965E+02  0.70190259673E+03  0.70283098670E+03  0.00000000000E+00 0. -1.
         22    1    1    2    0    0 -0.11260548798E+02  0.24951165493E+01  0.66100510886E+02  0.67099203462E+02  0.00000000000E+00 0. -1.
<mgrwt>
<rscale>  0 0.56372083E+02</rscale>
<asrwt>0</asrwt>
<pdfrwt beam="1">  1        2 0.16299623E+00 0.95667169E+02</pdfrwt>
<pdfrwt beam="2">  1       -2 0.43135641E-03 0.95667169E+02</pdfrwt>
<totfact> 0.15306773E+05</totfact>
</mgrwt>
</event>
<event>
 6    1  0.1535970E-002  0.9183981E+02  0.7546771E-02  0.1414495E+00
         -2   -1    0    0    0  501 -0.00000000000E+00  0.00000000000E+00  0.83232183274E+01  0.83232183274E+01  0.00000000000E+00 0. -1.
          2   -1    0    0  501    0  0.00000000000E+00 -0.00000000000E+00 -0.33431071347E+03  0.33431071347E+03  0.00000000000E+00 0.  1.
         23    2    1    2    0    0  0.12716536939E+02  0.20495120214E+01 -0.29786554985E+03  0.31170248149E+03  0.90932064566E+02 0.  0.
         11    1    3    3    0    0  0.11358819701E+02  0.38966891504E+02 -0.70449431190E+02  0.81305373583E+02  0.00000000000E+00 0. -1.
        -11    1    3    3    0    0  0.13577172385E+01 -0.36917379483E+02 -0.22741611866E+03  0.23039710790E+03  0.00000000000E+00 0.  1.
         22    1    1    2    0    0 -0.12716536939E+02 -0.20495120214E+01 -0.28121945286E+02  0.30931450305E+02  0.00000000000E+00 0.  1.
<mgrwt>
<rscale>  0 0.56202751E+02</rscale>
<asrwt>0</asrwt>
<pdfrwt beam="1">  1        2 0.51432427E-01 0.91839813E+02</pdfrwt>
<pdfrwt beam="2">  1       -2 0.12804949E-02 0.91839813E+02</pdfrwt>
<totfact> 0.12377759E+05</totfact>
</mgrwt>
</event>
<event>
 6    1  0.1535970E-002  0.9780879E+02  0.7546771E-02  0.1385225E+00
         -4   -1    0    0    0  501 -0.00000000000E+00  0.00000000000E+00  0.90413847581E+02  0.90413847581E+02  0.00000000000E+00 0.  1.
          4   -1    0    0  501    0  0.00000000000E+00 -0.00000000000E+00 -0.47508885883E+02  0.47508885883E+02  0.00000000000E+00 0. -1.
         23    2    1    2    0    0 -0.18639502062E+01 -0.16850871363E+02  0.68112757671E+01  0.98045668123E+02  0.96328258492E+02 0.  0.
         11    1    3    3    0    0  0.23431726123E+02  0.12249397702E+02 -0.33224877899E+02  0.42461583161E+02  0.00000000000E+00 0. -1.
        -11    1    3    3    0    0 -0.25295676330E+02 -0.29100269066E+02  0.40036153666E+02  0.55584084962E+02  0.00000000000E+00 0.  1.
         22    1    1    2    0    0  0.18639502062E+01  0.16850871363E+02  0.36093685931E+02  0.39877065341E+02  0.00000000000E+00 0.  1.
<mgrwt>
<rscale>  0 0.63110149E+02</rscale>
<asrwt>0</asrwt>
<pdfrwt beam="1">  1        4 0.73090594E-02 0.97808791E+02</pdfrwt>
<pdfrwt beam="2">  1       -4 0.13909823E-01 0.97808791E+02</pdfrwt>
<totfact> 0.82145789E+03</totfact>
</mgrwt>
</event>
<event>
 6    1  0.1535970E-002  0.1032887E+03  0.7546771E-02  0.1363647E+00
         -2   -1    0    0    0  501 -0.00000000000E+00  0.00000000000E+00  0.76178465994E+02  0.76178465994E+02  0.00000000000E+00 0.  1.
          2   -1    0    0  501    0  0.00000000000E+00 -0.00000000000E+00 -0.91894676482E+02  0.91894676482E+02  0.00000000000E+00 0. -1.
         23    2    1    2    0    0 -0.15270211914E+02 -0.13720700809E+02 -0.59866069704E+02  0.11938385134E+03  0.10122806259E+03 0.  0.
         11    1    3    3    0    0 -0.94757254156E+01  0.43355508983E+02 -0.36412833423E+02  0.57405435015E+02  0.00000000000E+00 0.  1.
        -11    1    3    3    0    0 -0.57944864983E+01 -0.57076209792E+02 -0.23453236281E+02  0.61978416324E+02  0.00000000000E+00 0. -1.
         22    1    1    2    0    0  0.15270211914E+02  0.13720700809E+02  0.44149859216E+02  0.48689291137E+02  0.00000000000E+00 0. -1.
<mgrwt>
<rscale>  0 0.68965394E+02</rscale>
<asrwt>0</asrwt>
<pdfrwt beam="1">  1        2 0.14137643E-01 0.10328871E+03</pdfrwt>
<pdfrwt beam="2">  1       -2 0.11719764E-01 0.10328871E+03</pdfrwt>
<totfact> 0.19361181E+04</totfact>
</mgrwt>
</event>
<event>
 6    1  0.1535970E-002  0.9069556E+02  0.7546771E-02  0.1427875E+00
         -2   -1    0    0    0  501 -0.00000000000E+00  0.00000000000E+00  0.10538166816E+02  0.10538166816E+02  0.00000000000E+00 0. -1.
          2   -1    0    0  501    0  0.00000000000E+00 -0.00000000000E+00 -0.38518779357E+03  0.38518779357E+03  0.00000000000E+00 0.  1.
         23    2    1    2    0    0 -0.71490928818E+01  0.82153865053E+01 -0.37397401484E+03  0.38481456469E+03  0.90039343184E+02 0.  0.
         13    1    3    3    0    0 -0.56595089154E+01 -0.77539805541E+01  0.85946978281E+00  0.96380985627E+01  0.00000000000E+00 0. -1.
        -13    1    3    3    0    0 -0.14895839664E+01  0.15969367059E+02 -0.37483348462E+03  0.37517646613E+03  0.00000000000E+00 0.  1.
         22    1    1    2    0    0  0.71490928818E+01 -0.82153865053E+01 -0.67561191265E+00  0.10911395691E+02  0.00000000000E+00 0.  1.
<mgrwt>
<rscale>  0 0.53388914E+02</rscale>
<asrwt>0</asrwt>
<pdfrwt beam="1">  1        2 0.59259660E-01 0.90695565E+02</pdfrwt>
<pdfrwt beam="2">  1       -2 0.16212565E-02 0.90695565E+02</pdfrwt>
<totfact> 0.76081886E+04</totfact>
</mgrwt>
</event>
<event>
 6    1  0.1535970E-002  0.9808108E+02  0.7546771E-02  0.1348200E+00
          2   -1    0    0  501    0  0.00000000000E+00  0.00000000000E+00  0.59005104972E+03  0.59005104972E+03  0.00000000000E+00 0. -1.
         -2   -1    0    0    0  501 -0.00000000000E+00 -0.00000000000E+00 -0.70749017493E+01  0.70749017493E+01  0.00000000000E+00 0.  1.
         23    2    1    2    0    0  0.56213494128E+01 -0.30620904087E+02  0.43967699104E+03  0.45048391209E+03  0.93008920353E+02 0.  0.
         13    1    3    3    0    0  0.14305461630E+02 -0.26166391307E+02  0.43971380395E+03  0.44072389957E+03  0.00000000000E+00 0. -1.
        -13    1    3    3    0    0 -0.86841122176E+01 -0.44545127805E+01 -0.36812915643E-01  0.97600125159E+01  0.00000000000E+00 0.  1.
         22    1    1    2    0    0 -0.56213494128E+01  0.30620904087E+02  0.14329915693E+03  0.14664203938E+03  0.00000000000E+00 0.  1.
<mgrwt>
<rscale>  0 0.73619492E+02</rscale>
<asrwt>0</asrwt>
<pdfrwt beam="1">  1        2 0.90777046E-01 0.98081082E+02</pdfrwt>
<pdfrwt beam="2">  1       -2 0.10884469E-02 0.98081082E+02</pdfrwt>
<totfact> 0.85664059E+04</totfact>
</mgrwt>
</event>
<event>
 6    1  0.1535970E-002  0.9023979E+02  0.7546771E-02  0.1427883E+00
         -1   -1    0    0    0  501 -0.00000000000E+00  0.00000000000E+00  0.11365546548E+02  0.11365546548E+02  0.00000000000E+00 0.  1.
          1   -1    0    0  501    0  0.00000000000E+00 -0.00000000000E+00 -0.24997660300E+03  0.24997660300E+03  0.00000000000E+00 0. -1.
         23    2    1    2    0    0  0.44350023633E+01 -0.10126423321E+02 -0.17624474356E+03  0.19800360932E+03  0.89560069081E+02 0.  0.
         13    1    3    3    0    0  0.11177648046E+02 -0.35246209236E+02 -0.16596940441E+03  0.17003846119E+03  0.00000000000E+00 0. -1.
        -13    1    3    3    0    0 -0.67426456825E+01  0.25119785915E+02 -0.10275339147E+02  0.27965148128E+02  0.00000000000E+00 0.  1.
         22    1    1    2    0    0 -0.44350023633E+01  0.10126423321E+02 -0.62366312893E+02  0.63338540235E+02  0.00000000000E+00 0.  1.
<mgrwt>
<rscale>  0 0.53387372E+02</rscale>
<asrwt>0</asrwt>
<pdfrwt beam="1">  1        1 0.38457938E-01 0.90239790E+02</pdfrwt>
<pdfrwt beam="2">  1       -1 0.17485457E-02 0.90239790E+02</pdfrwt>
<totfact> 0.79226174E+04</totfact>
</mgrwt>
</event>
<event>
 6    1  0.1535970E-002  0.1016216E+03  0.7546771E-02  0.1327857E+00
         -1   -1    0    0    0  501 -0.00000000000E+00  0.00000000000E+00  0.10859648198E+02  0.10859648198E+02  0.00000000000E+00 0.  1.
          1   -1    0    0  501    0  0.00000000000E+00 -0.00000000000E+00 -0.11870593900E+04  0.11870593900E+04  0.00000000000E+00 0. -1.
         23    2    1    2    0    0  0.34214170898E+02  0.20452035763E+02 -0.11385896264E+04  0.11431156073E+04  0.93477585815E+02 0.  0.
         11    1    3    3    0    0 -0.22932899163E+01  0.25351031011E+02 -0.81458965740E+02  0.85343406608E+02  0.00000000000E+00 0.  1.
        -11    1    3    3    0    0  0.36507460814E+02 -0.48989952485E+01 -0.10571306607E+04  0.10577722007E+04  0.00000000000E+00 0. -1.
         22    1    1    2    0    0 -0.34214170898E+02 -0.20452035763E+02 -0.37610115388E+02  0.54803430883E+02  0.00000000000E+00 0.  1.
<mgrwt>
<rscale>  0 0.80422303E+02</rscale>
<asrwt>0</asrwt>
<pdfrwt beam="1">  1        1 0.18262450E+00 0.10162162E+03</pdfrwt>
<pdfrwt beam="2">  1       -1 0.16707153E-02 0.10162162E+03</pdfrwt>
<totfact> 0.99293428E+03</totfact>
</mgrwt>
</event>
<event>
 6    1  0.1535970E-002  0.9273890E+02  0.7546771E-02  0.1404120E+00
          2   -1    0    0  501    0  0.00000000000E+00  0.00000000000E+00  0.31703543294E+02  0.31703543294E+02  0.00000000000E+00 0.  1.
         -2   -1    0    0    0  501 -0.00000000000E+00 -0.00000000000E+00 -0.91413740513E+02  0.91413740513E+02  0.00000000000E+00 0. -1.
         23    2    1    2    0    0  0.12661647440E+02  0.74892712919E+01 -0.48742652820E+02  0.10476807318E+03  0.91564711839E+02 0.  0.
         13    1    3    3    0    0 -0.18161073497E+02 -0.24457238437E+02 -0.51990537738E+02  0.60257755657E+02  0.00000000000E+00 0. -1.
        -13    1    3    3    0    0  0.30822720937E+02  0.31946509729E+02  0.32478849179E+01  0.44510317526E+02  0.00000000000E+00 0.  1.
         22    1    1    2    0    0 -0.12661647440E+02 -0.74892712919E+01 -0.10967544399E+02  0.18349210624E+02  0.00000000000E+00 0.  1.
<mgrwt>
<rscale>  0 0.58526861E+02</rscale>
<asrwt>0</asrwt>
<pdfrwt beam="1">  1        2 0.48774683E-02 0.92738897E+02</pdfrwt>
<pdfrwt beam="2">  1       -2 0.14063652E-01 0.92738897E+02</pdfrwt>
<totfact> 0.53210317E+04</totfact>
</mgrwt>
</event>
<event>
 6    1  0.1535970E-002  0.9662239E+02  0.7546771E-02  0.1348927E+00
         -2   -1    0    0    0  501 -0.00000000000E+00  0.00000000000E+00  0.16903823318E+02  0.16903823318E+02  0.00000000000E+00 0.  1.
          2   -1    0    0  501    0  0.00000000000E+00 -0.00000000000E+00 -0.69261659464E+03  0.69261659464E+03  0.00000000000E+00 0. -1.
         23    2    1    2    0    0 -0.13969400445E+02  0.28969552130E+02 -0.66990657149E+03  0.67683875558E+03  0.91112608515E+02 0.  0.
         11    1    3    3    0    0 -0.45727575002E+02  0.40093652233E+02 -0.35878422471E+03  0.36390195378E+03  0.00000000000E+00 0.  1.
        -11    1    3    3    0    0  0.31758174557E+02 -0.11124100103E+02 -0.31112234677E+03  0.31293680179E+03  0.00000000000E+00 0. -1.
         22    1    1    2    0    0  0.13969400445E+02 -0.28969552130E+02 -0.58061998347E+01  0.32681662380E+02  0.00000000000E+00 0.  1.
<mgrwt>
<rscale>  0 0.73391084E+02</rscale>
<asrwt>0</asrwt>
<pdfrwt beam="1">  1        2 0.10655638E+00 0.96622391E+02</pdfrwt>
<pdfrwt beam="2">  1       -2 0.26005886E-02 0.96622391E+02</pdfrwt>
<totfact> 0.20434073E+04</totfact>
</mgrwt>
</event>
<event>
 6    1  0.1535970E-002  0.9393271E+02  0.7546771E-02  0.1399064E+00
          4   -1    0    0  501    0  0.00000000000E+00  0.00000000000E+00  0.17378023277E+02  0.17378023277E+02  0.00000000000E+00 0. -1.
         -4   -1    0    0    0  501 -0.00000000000E+00 -0.00000000000E+00 -0.17717715368E+03  0.17717715368E+03  0.00000000000E+00 0.  1.
         23    2    1    2    0    0  0.26226812164E+01 -0.15108124311E+02 -0.14762647291E+03  0.17497693732E+03  0.92672645435E+02 0.  0.
         11    1    3    3    0    0  0.97266106203E+01 -0.14909427562E+01  0.11486087930E+02  0.15124816706E+02  0.00000000000E+00 0. -1.
        -11    1    3    3    0    0 -0.71039294039E+01 -0.13617181555E+02 -0.15911256084E+03  0.15985212061E+03  0.00000000000E+00 0.  1.
         22    1    1    2    0    0 -0.26226812164E+01  0.15108124311E+02 -0.12172657492E+02  0.19578239640E+02  0.00000000000E+00 0. -1.
<mgrwt>
<rscale>  0 0.59707244E+02</rscale>
<asrwt>0</asrwt>
<pdfrwt beam="1">  1        4 0.26735419E-02 0.93932705E+02</pdfrwt>
<pdfrwt beam="2">  1       -4 0.27258025E-01 0.93932705E+02</pdfrwt>
<totfact> 0.12072215E+04</totfact>
</mgrwt>
</event>
<event>
 6    1  0.1535970E-002  0.9097191E+02  0.7546771E-02  0.1364743E+00
          2   -1    0    0  501    0  0.00000000000E+00  0.00000000000E+00  0.94914988175E+03  0.94914988175E+03  0.00000000000E+00 0. -1.
         -2   -1    0    0    0  501 -0.00000000000E+00 -0.00000000000E+00 -0.41830689986E+01  0.41830689986E+01  0.00000000000E+00 0.  1.
         23    2    1    2    0    0  0.29411638085E+02 -0.23120300419E+01  0.81490189418E+03  0.81996401516E+03  0.86055209470E+02 0.  0.
         11    1    3    3    0    0 -0.64929209062E+01  0.15051355948E+02  0.65357076244E+03  0.65377629420E+03  0.00000000000E+00 0. -1.
        -11    1    3    3    0    0  0.35904558991E+02 -0.17363385989E+02  0.16133113174E+03  0.16618772096E+03  0.00000000000E+00 0.  1.
         22    1    1    2    0    0 -0.29411638085E+02  0.23120300419E+01  0.13006491856E+03  0.13336893558E+03  0.00000000000E+00 0. -1.
<mgrwt>
<rscale>  0 0.68650662E+02</rscale>
<asrwt>0</asrwt>
<pdfrwt beam="1">  1        2 0.14602289E+00 0.90971913E+02</pdfrwt>
<pdfrwt beam="2">  1       -2 0.64354983E-03 0.90971913E+02</pdfrwt>
<totfact> 0.10065324E+05</totfact>
</mgrwt>
</event>
<event>
 6    1  0.1535970E-002  0.1237435E+03  0.7546771E-02  0.1323414E+00
         -2   -1    0    0    0  501 -0.00000000000E+00  0.00000000000E+00  0.66197620025E+01  0.66197620025E+01  0.00000000000E+00 0.  1.
          2   -1    0    0  501    0  0.00000000000E+00 -0.00000000000E+00 -0.10026882885E+04  0.10026882885E+04  0.00000000000E+00 0. -1.
         23    2    1    2    0    0 -0.13127152942E+00  0.23884276108E+02 -0.94334886924E+03  0.95143026428E+03  0.12141656724E+03 0.  0.
         13    1    3    3    0    0 -0.57020630273E+02 -0.60153412121E+01 -0.53362990366E+03  0.53670141670E+03  0.00000000000E+00 0.  1.
        -13    1    3    3    0    0  0.56889358744E+02  0.29899617320E+02 -0.40971896559E+03  0.41472884758E+03  0.00000000000E+00 0. -1.
         22    1    1    2    0    0  0.13127152942E+00 -0.23884276108E+02 -0.52719657253E+02  0.57877786225E+02  0.00000000000E+00 0.  1.
<mgrwt>
<rscale>  0 0.82020329E+02</rscale>
<asrwt>0</asrwt>
<pdfrwt beam="1">  1        2 0.15425970E+00 0.12374352E+03</pdfrwt>
<pdfrwt beam="2">  1       -2 0.10184252E-02 0.12374352E+03</pdfrwt>
<totfact> 0.50556221E+04</totfact>
</mgrwt>
</event>
<event>
 6    1  0.1535970E-002  0.9249985E+02  0.7546771E-02  0.1417912E+00
          2   -1    0    0  501    0  0.00000000000E+00  0.00000000000E+00  0.21882547289E+03  0.21882547289E+03  0.00000000000E+00 0. -1.
         -2   -1    0    0    0  501 -0.00000000000E+00 -0.00000000000E+00 -0.13107607985E+02  0.13107607985E+02  0.00000000000E+00 0.  1.
         23    2    1    2    0    0 -0.17370790150E+01 -0.11831109645E+02  0.19520056289E+03  0.21600806155E+03  0.91723662716E+02 0.  0.
         13    1    3    3    0    0  0.18604423905E+02 -0.22040306582E+02  0.19062284128E+03  0.19279254996E+03  0.00000000000E+00 0. -1.
        -13    1    3    3    0    0 -0.20341502920E+02  0.10209196937E+02  0.45777216138E+01  0.23215511589E+02  0.00000000000E+00 0.  1.
         22    1    1    2    0    0  0.17370790150E+01  0.11831109645E+02  0.10517302014E+02  0.15925019328E+02  0.00000000000E+00 0. -1.
<mgrwt>
<rscale>  0 0.55465123E+02</rscale>
<asrwt>0</asrwt>
<pdfrwt beam="1">  1        2 0.33665455E-01 0.92499854E+02</pdfrwt>
<pdfrwt beam="2">  1       -2 0.20165552E-02 0.92499854E+02</pdfrwt>
<totfact> 0.10100962E+05</totfact>
</mgrwt>
</event>
<event>
 6    1  0.1535970E-002  0.9237654E+02  0.7546771E-02  0.1414313E+00
          1   -1    0    0  501    0  0.00000000000E+00  0.00000000000E+00  0.49138111442E+03  0.49138111442E+03  0.00000000000E+00 0. -1.
         -1   -1    0    0    0  501 -0.00000000000E+00 -0.00000000000E+00 -0.59750843746E+01  0.59750843746E+01  0.00000000000E+00 0.  1.
         23    2    1    2    0    0 -0.84797118628E+01 -0.94451457740E+01  0.45700470740E+03  0.46624749551E+03  0.91500317992E+02 0.  0.
         13    1    3    3    0    0 -0.47267702059E+02 -0.16702900730E+02  0.31051685315E+03  0.31453765854E+03  0.00000000000E+00 0. -1.
        -13    1    3    3    0    0  0.38787990196E+02  0.72577549560E+01  0.14648785425E+03  0.15170983697E+03  0.00000000000E+00 0.  1.
         22    1    1    2    0    0  0.84797118628E+01  0.94451457740E+01  0.28401322646E+02  0.31108703284E+02  0.00000000000E+00 0. -1.
<mgrwt>
<rscale>  0 0.56242380E+02</rscale>
<asrwt>0</asrwt>
<pdfrwt beam="1">  1        1 0.75597062E-01 0.92376536E+02</pdfrwt>
<pdfrwt beam="2">  1       -1 0.91924414E-03 0.92376536E+02</pdfrwt>
<totfact> 0.85656094E+04</totfact>
</mgrwt>
</event>
<event>
 6    1  0.1535970E-002  0.1017720E+03  0.7546771E-02  0.1321025E+00
          2   -1    0    0  501    0  0.00000000000E+00  0.00000000000E+00  0.48330450587E+03  0.48330450587E+03  0.00000000000E+00 0.  1.
         -2   -1    0    0    0  501 -0.00000000000E+00 -0.00000000000E+00 -0.11368237637E+02  0.11368237637E+02  0.00000000000E+00 0. -1.
         23    2    1    2    0    0 -0.38834601675E+02  0.22335962541E+02  0.29139252043E+03  0.30865374883E+03  0.91381147914E+02 0.  0.
         11    1    3    3    0    0 -0.13284332391E+02  0.56086573473E+02  0.19581021630E+03  0.20411716738E+03  0.00000000000E+00 0. -1.
        -11    1    3    3    0    0 -0.25550269283E+02 -0.33750610932E+02  0.95582304126E+02  0.10453658145E+03  0.00000000000E+00 0.  1.
         22    1    1    2    0    0  0.38834601675E+02 -0.22335962541E+02  0.18054374781E+03  0.18601899469E+03  0.00000000000E+00 0.  1.
<mgrwt>
<rscale>  0 0.82897258E+02</rscale>
<asrwt>0</asrwt>
<pdfrwt beam="1">  1        2 0.74354524E-01 0.10177198E+03</pdfrwt>
<pdfrwt beam="2">  1       -2 0.17489600E-02 0.10177198E+03</pdfrwt>
<totfact> 0.54434939E+04</totfact>
</mgrwt>
</event>
<event>
 6    1  0.1535970E-002  0.1367639E+03  0.7546771E-02  0.1238484E+00
         -2   -1    0    0    0  501 -0.00000000000E+00  0.00000000000E+00  0.21967326890E+02  0.21967326890E+02  0.00000000000E+00 0.  1.
          2   -1    0    0  501    0  0.00000000000E+00 -0.00000000000E+00 -0.71857601873E+03  0.71857601873E+03  0.00000000000E+00 0. -1.
         23    2    1    2    0    0  0.35092763563E+02  0.81800901050E+02 -0.56735278987E+03  0.58360393801E+03  0.10383390015E+03 0.  0.
         13    1    3    3    0    0  0.13062316646E+02 -0.24592799942E+02 -0.10170258282E+03  0.10544593533E+03  0.00000000000E+00 0.  1.
        -13    1    3    3    0    0  0.22030446917E+02  0.10639370099E+03 -0.46565020705E+03  0.47815800268E+03  0.00000000000E+00 0. -1.
         22    1    1    2    0    0 -0.35092763563E+02 -0.81800901050E+02 -0.12925590197E+03  0.15693940761E+03  0.00000000000E+00 0.  1.
<mgrwt>
<rscale>  0 0.12283980E+03</rscale>
<asrwt>0</asrwt>
<pdfrwt beam="1">  1        2 0.11055018E+00 0.13676391E+03</pdfrwt>
<pdfrwt beam="2">  1       -2 0.33795881E-02 0.13676391E+03</pdfrwt>
<totfact> 0.13717099E+04</totfact>
</mgrwt>
</event>
<event>
 6    1  0.1535970E-002  0.9068097E+02  0.7546771E-02  0.1428201E+00
          4   -1    0    0  501    0  0.00000000000E+00  0.00000000000E+00  0.12344700160E+03  0.12344700160E+03  0.00000000000E+00 0. -1.
         -4   -1    0    0    0  501 -0.00000000000E+00 -0.00000000000E+00 -0.20959174236E+02  0.20959174236E+02  0.00000000000E+00 0.  1.
         23    2    1    2    0    0  0.94491411850E+01  0.53158815209E+01  0.94245403016E+02  0.13078698259E+03  0.90030516831E+02 0.  0.
         13    1    3    3    0    0 -0.88311782577E+01  0.35162787520E+02  0.88077775460E+02  0.95247602939E+02  0.00000000000E+00 0. -1.
        -13    1    3    3    0    0  0.18280319443E+02 -0.29846905999E+02  0.61676275564E+01  0.35539379656E+02  0.00000000000E+00 0.  1.
         22    1    1    2    0    0 -0.94491411850E+01 -0.53158815209E+01  0.82424243499E+01  0.13619193245E+02  0.00000000000E+00 0.  1.
<mgrwt>
<rscale>  0 0.53322756E+02</rscale>
<asrwt>0</asrwt>
<pdfrwt beam="1">  1        4 0.18991846E-01 0.90680973E+02</pdfrwt>
<pdfrwt beam="2">  1       -4 0.32244884E-02 0.90680973E+02</pdfrwt>
<totfact> 0.17180043E+04</totfact>
</mgrwt>
</event>
<event>
 6    1  0.1535970E-002  0.9483110E+02  0.7546771E-02  0.1377116E+00
          2   -1    0    0  501    0  0.00000000000E+00  0.00000000000E+00  0.35567628522E+03  0.35567628522E+03  0.00000000000E+00 0. -1.
         -2   -1    0    0    0  501 -0.00000000000E+00 -0.00000000000E+00 -0.11368553822E+02  0.11368553822E+02  0.00000000000E+00 0.  1.
         23    2    1    2    0    0 -0.20659952097E+02  0.48725380402E+01  0.32427852865E+03  0.33786018193E+03  0.92424905445E+02 0.  0.
         13    1    3    3    0    0  0.13872417537E+02  0.23268862251E+02  0.26771816784E+03  0.26908530490E+03  0.00000000000E+00 0.  1.
        -13    1    3    3    0    0 -0.34532369634E+02 -0.18396324210E+02  0.56560360808E+02  0.68774877039E+02  0.00000000000E+00 0. -1.
         22    1    1    2    0    0  0.20659952097E+02 -0.48725380402E+01  0.20029202746E+02  0.29184657103E+02  0.00000000000E+00 0.  1.
<mgrwt>
<rscale>  0 0.65227994E+02</rscale>
<asrwt>0</asrwt>
<pdfrwt beam="1">  1        2 0.54719420E-01 0.94831105E+02</pdfrwt>
<pdfrwt beam="2">  1       -2 0.17490086E-02 0.94831105E+02</pdfrwt>
<totfact> 0.74671547E+04</totfact>
</mgrwt>
</event>
<event>
 6    1  0.1535970E-002  0.9187774E+02  0.7546771E-02  0.1419324E+00
         -2   -1    0    0    0  501 -0.00000000000E+00  0.00000000000E+00  0.40636380709E+02  0.40636380709E+02  0.00000000000E+00 0.  1.
          2   -1    0    0  501    0  0.00000000000E+00 -0.00000000000E+00 -0.66340749137E+02  0.66340749137E+02  0.00000000000E+00 0. -1.
         23    2    1    2    0    0 -0.11467925299E+02  0.33234863973E+01 -0.23500921867E+02  0.94835711097E+02  0.91098627312E+02 0.  0.
         13    1    3    3    0    0  0.10723861943E+02 -0.23934704962E+02 -0.46106830358E+02  0.53044425930E+02  0.00000000000E+00 0. -1.
        -13    1    3    3    0    0 -0.22191787242E+02  0.27258191360E+02  0.22605908491E+02  0.41791285167E+02  0.00000000000E+00 0.  1.
         22    1    1    2    0    0  0.11467925299E+02 -0.33234863973E+01 -0.22034465601E+01  0.12141418749E+02  0.00000000000E+00 0.  1.
<mgrwt>
<rscale>  0 0.55164159E+02</rscale>
<asrwt>0</asrwt>
<pdfrwt beam="1">  1        2 0.10206269E-01 0.91877738E+02</pdfrwt>
<pdfrwt beam="2">  1       -2 0.62517510E-02 0.91877738E+02</pdfrwt>
<totfact> 0.73994009E+04</totfact>
</mgrwt>
</event>
<event>
 6    1  0.1535970E-002  0.1050568E+03  0.7546771E-02  0.1390237E+00
          2   -1    0    0  501    0  0.00000000000E+00  0.00000000000E+00  0.91801173478E+03  0.91801173478E+03  0.00000000000E+00 0. -1.
         -2   -1    0    0    0  501 -0.00000000000E+00 -0.00000000000E+00 -0.41232389691E+02  0.41232389691E+02  0.00000000000E+00 0.  1.
         23    2    1    2    0    0  0.24634639407E+01 -0.12376135146E+02  0.91396116647E+03  0.91997931558E+03  0.10429616443E+03 0.  0.
         11    1    3    3    0    0 -0.42790932488E+02 -0.33612913846E+02  0.42494121491E+03  0.42841093358E+03  0.00000000000E+00 0. -1.
        -11    1    3    3    0    0  0.45254396429E+02  0.21236778699E+02  0.48901995156E+03  0.49156838200E+03  0.00000000000E+00 0.  1.
         22    1    1    2    0    0 -0.24634639407E+01  0.12376135146E+02 -0.37181821380E+02  0.39264808886E+02  0.00000000000E+00 0.  1.
<mgrwt>
<rscale>  0 0.61847720E+02</rscale>
<asrwt>0</asrwt>
<pdfrwt beam="1">  1        2 0.14123256E+00 0.10505678E+03</pdfrwt>
<pdfrwt beam="2">  1       -2 0.63434452E-02 0.10505678E+03</pdfrwt>
<totfact> 0.38940118E+03</totfact>
</mgrwt>
</event>
<event>
 6    1  0.1535970E-002  0.9335713E+02  0.7546771E-02  0.1371585E+00
         -2   -1    0    0    0  501 -0.00000000000E+00  0.00000000000E+00  0.83777009411E+01  0.83777009411E+01  0.00000000000E+00 0.  1.
          2   -1    0    0  501    0  0.00000000000E+00 -0.00000000000E+00 -0.43264427144E+03  0.43264427144E+03  0.00000000000E+00 0. -1.
         23    2    1    2    0    0 -0.79108136624E+01 -0.23047003722E+02 -0.36891932241E+03  0.38054831511E+03  0.90121075940E+02 0.  0.
         13    1    3    3    0    0  0.67299953974E+01  0.28434148731E+02 -0.22698133925E+03  0.22885436858E+03  0.00000000000E+00 0. -1.
        -13    1    3    3    0    0 -0.14640809060E+02 -0.51481152453E+02 -0.14193798317E+03  0.15169394653E+03  0.00000000000E+00 0.  1.
         22    1    1    2    0    0  0.79108136624E+01  0.23047003722E+02 -0.55347248091E+02  0.60473657278E+02  0.00000000000E+00 0.  1.
<mgrwt>
<rscale>  0 0.66728390E+02</rscale>
<asrwt>0</asrwt>
<pdfrwt beam="1">  1        2 0.66560642E-01 0.93357130E+02</pdfrwt>
<pdfrwt beam="2">  1       -2 0.12888774E-02 0.93357130E+02</pdfrwt>
<totfact> 0.93729477E+04</totfact>
</mgrwt>
</event>
<event>
 6    1  0.1535970E-002  0.9381645E+02  0.7546771E-02  0.1364036E+00
          2   -1    0    0  501    0  0.00000000000E+00  0.00000000000E+00  0.43595725786E+03  0.43595725786E+03  0.00000000000E+00 0. -1.
         -2   -1    0    0    0  501 -0.00000000000E+00 -0.00000000000E+00 -0.84217722491E+01  0.84217722491E+01  0.00000000000E+00 0.  1.
         23    2    1    2    0    0  0.42366909740E+01  0.26886802117E+02  0.34037132184E+03  0.35306396496E+03  0.89781272765E+02 0.  0.
         11    1    3    3    0    0  0.27320245120E+02  0.51977616222E+02  0.18954903919E+03  0.19843615255E+03  0.00000000000E+00 0. -1.
        -11    1    3    3    0    0 -0.23083554146E+02 -0.25090814106E+02  0.15082228266E+03  0.15462781241E+03  0.00000000000E+00 0.  1.
         22    1    1    2    0    0 -0.42366909740E+01 -0.26886802117E+02  0.87164163770E+02  0.91315065155E+02  0.00000000000E+00 0.  1.
<mgrwt>
<rscale>  0 0.68853420E+02</rscale>
<asrwt>0</asrwt>
<pdfrwt beam="1">  1        2 0.67070330E-01 0.93816452E+02</pdfrwt>
<pdfrwt beam="2">  1       -2 0.12956576E-02 0.93816452E+02</pdfrwt>
<totfact> 0.92345623E+04</totfact>
</mgrwt>
</event>
<event>
 6    1  0.1535970E-002  0.9297563E+02  0.7546771E-02  0.1398571E+00
         -2   -1    0    0    0  501 -0.00000000000E+00  0.00000000000E+00  0.33646398973E+01  0.33646398973E+01  0.00000000000E+00 0.  1.
          2   -1    0    0  501    0  0.00000000000E+00 -0.00000000000E+00 -0.10305099923E+04  0.10305099923E+04  0.00000000000E+00 0. -1.
         23    2    1    2    0    0  0.16374083183E+01  0.15852298126E+02 -0.97301621727E+03  0.97744822231E+03  0.91599627585E+02 0.  0.
         13    1    3    3    0    0  0.37468253236E+02  0.35770501345E+02 -0.51282556804E+03  0.51543521610E+03  0.00000000000E+00 0. -1.
        -13    1    3    3    0    0 -0.35830844917E+02 -0.19918203219E+02 -0.46019064923E+03  0.46201300621E+03  0.00000000000E+00 0.  1.
         22    1    1    2    0    0 -0.16374083183E+01 -0.15852298126E+02 -0.54129135101E+02  0.56426409851E+02  0.00000000000E+00 0.  1.
<mgrwt>
<rscale>  0 0.59824082E+02</rscale>
<asrwt>0</asrwt>
<pdfrwt beam="1">  1        2 0.15853994E+00 0.92975632E+02</pdfrwt>
<pdfrwt beam="2">  1       -2 0.51763709E-03 0.92975632E+02</pdfrwt>
<totfact> 0.12270979E+05</totfact>
</mgrwt>
</event>
<event>
 6    1  0.1535970E-002  0.9165699E+02  0.7546771E-02  0.1431393E+00
          2   -1    0    0  501    0  0.00000000000E+00  0.00000000000E+00  0.65389449202E+03  0.65389449202E+03  0.00000000000E+00 0. -1.
         -2   -1    0    0    0  501 -0.00000000000E+00 -0.00000000000E+00 -0.40819648210E+01  0.40819648210E+01  0.00000000000E+00 0.  1.
         23    2    1    2    0    0  0.86000013933E+01 -0.51088525669E+01  0.61359410690E+03  0.62040207238E+03  0.91109511002E+02 0.  0.
         11    1    3    3    0    0  0.36561718518E+01  0.33110285310E+02  0.48537461694E+03  0.48651636905E+03  0.00000000000E+00 0.  1.
        -11    1    3    3    0    0  0.49438295414E+01 -0.38219137877E+02  0.12821948996E+03  0.13388570333E+03  0.00000000000E+00 0. -1.
         22    1    1    2    0    0 -0.86000013933E+01  0.51088525669E+01  0.36218420297E+02  0.37574384457E+02  0.00000000000E+00 0.  1.
<mgrwt>
<rscale>  0 0.52681358E+02</rscale>
<asrwt>0</asrwt>
<pdfrwt beam="1">  1        2 0.10059907E+00 0.91656988E+02</pdfrwt>
<pdfrwt beam="2">  1       -2 0.62799511E-03 0.91656988E+02</pdfrwt>
<totfact> 0.16429158E+05</totfact>
</mgrwt>
</event>
<event>
 6    1  0.1535970E-002  0.1020440E+03  0.7546771E-02  0.1367259E+00
         -3   -1    0    0    0  501 -0.00000000000E+00  0.00000000000E+00  0.20402105416E+02  0.20402105416E+02  0.00000000000E+00 0.  1.
          3   -1    0    0  501    0  0.00000000000E+00 -0.00000000000E+00 -0.20690186719E+03  0.20690186719E+03  0.00000000000E+00 0. -1.
         23    2    1    2    0    0  0.19780505670E+02 -0.32489506300E+01 -0.17872249835E+03  0.20580257937E+03  0.10005571535E+03 0.  0.
         11    1    3    3    0    0 -0.26934249773E+02 -0.28999641326E+02 -0.36244121496E+02  0.53666277594E+02  0.00000000000E+00 0.  1.
        -11    1    3    3    0    0  0.46714755443E+02  0.25750690696E+02 -0.14247837686E+03  0.15213630178E+03  0.00000000000E+00 0. -1.
         22    1    1    2    0    0 -0.19780505670E+02  0.32489506300E+01 -0.77772634265E+01  0.21501393238E+02  0.00000000000E+00 0.  1.
<mgrwt>
<rscale>  0 0.67935219E+02</rscale>
<asrwt>0</asrwt>
<pdfrwt beam="1">  1        3 0.31831055E-01 0.10204396E+03</pdfrwt>
<pdfrwt beam="2">  1       -3 0.31387856E-02 0.10204396E+03</pdfrwt>
<totfact> 0.97020142E+03</totfact>
</mgrwt>
</event>
<event>
 6    1  0.1535970E-002  0.9073094E+02  0.7546771E-02  0.1413666E+00
          1   -1    0    0  501    0  0.00000000000E+00  0.00000000000E+00  0.76368032661E+03  0.76368032661E+03  0.00000000000E+00 0. -1.
         -1   -1    0    0    0  501 -0.00000000000E+00 -0.00000000000E+00 -0.40839989988E+01  0.40839989988E+01  0.00000000000E+00 0.  1.
         23    2    1    2    0    0 -0.13251875309E+02 -0.27377262361E+01  0.72434009851E+03  0.73000046677E+03  0.89716196015E+02 0.  0.
         13    1    3    3    0    0  0.15171576977E+02 -0.30926900205E+01  0.65331266701E+03  0.65349612268E+03  0.00000000000E+00 0. -1.
        -13    1    3    3    0    0 -0.28423452286E+02  0.35496378442E+00  0.71027431503E+02  0.76504344092E+02  0.00000000000E+00 0.  1.
         22    1    1    2    0    0  0.13251875309E+02  0.27377262361E+01  0.35256229102E+02  0.37763858842E+02  0.00000000000E+00 0.  1.
<mgrwt>
<rscale>  0 0.56383856E+02</rscale>
<asrwt>0</asrwt>
<pdfrwt beam="1">  1        1 0.11748917E+00 0.90730938E+02</pdfrwt>
<pdfrwt beam="2">  1       -1 0.62830815E-03 0.90730938E+02</pdfrwt>
<totfact> 0.80283097E+04</totfact>
</mgrwt>
</event>
<event>
 6    1  0.1535970E-002  0.9253655E+02  0.7546771E-02  0.1408030E+00
         -2   -1    0    0    0  501 -0.00000000000E+00  0.00000000000E+00  0.80807394482E+01  0.80807394482E+01  0.00000000000E+00 0.  1.
          2   -1    0    0  501    0  0.00000000000E+00 -0.00000000000E+00 -0.36165108954E+03  0.36165108954E+03  0.00000000000E+00 0. -1.
         23    2    1    2    0    0  0.78363879026E+01  0.11511851986E+02 -0.32548241553E+03  0.33838117063E+03  0.91482687468E+02 0.  0.
         11    1    3    3    0    0 -0.16322734498E+02  0.40145234691E+02 -0.89461082898E+02  0.99405014376E+02  0.00000000000E+00 0. -1.
        -11    1    3    3    0    0  0.24159122401E+02 -0.28633382705E+02 -0.23602133264E+03  0.23897615626E+03  0.00000000000E+00 0.  1.
         22    1    1    2    0    0 -0.78363879026E+01 -0.11511851986E+02 -0.28087934554E+02  0.31350658350E+02  0.00000000000E+00 0.  1.
<mgrwt>
<rscale>  0 0.57635637E+02</rscale>
<asrwt>0</asrwt>
<pdfrwt beam="1">  1        2 0.55638635E-01 0.92536554E+02</pdfrwt>
<pdfrwt beam="2">  1       -2 0.12431905E-02 0.92536554E+02</pdfrwt>
<totfact> 0.11902331E+05</totfact>
</mgrwt>
</event>
<event>
 6    1  0.1535970E-002  0.1127507E+03  0.7546771E-02  0.1284053E+00
         -3   -1    0    0    0  501 -0.00000000000E+00  0.00000000000E+00  0.15884404092E+03  0.15884404092E+03  0.00000000000E+00 0.  1.
          3   -1    0    0  501    0  0.00000000000E+00 -0.00000000000E+00 -0.50045228911E+02  0.50045228911E+02  0.00000000000E+00 0. -1.
         23    2    1    2    0    0 -0.63894023423E+02 -0.11762049757E+02  0.60677271666E+02  0.12804080238E+03  0.92151634464E+02 0.  0.
         13    1    3    3    0    0 -0.42089207857E+02  0.14457711106E+02 -0.13411931265E+02  0.46480175653E+02  0.00000000000E+00 0. -1.
        -13    1    3    3    0    0 -0.21804815566E+02 -0.26219760863E+02  0.74089202931E+02  0.81560626730E+02  0.00000000000E+00 0.  1.
         22    1    1    2    0    0  0.63894023423E+02  0.11762049757E+02  0.48121540345E+02  0.80848467449E+02  0.00000000000E+00 0. -1.
<mgrwt>
<rscale>  0 0.98234405E+02</rscale>
<asrwt>0</asrwt>
<pdfrwt beam="1">  1        3 0.76992661E-02 0.11275068E+03</pdfrwt>
<pdfrwt beam="2">  1       -3 0.24437545E-01 0.11275068E+03</pdfrwt>
<totfact> 0.39097073E+03</totfact>
</mgrwt>
</event>
<event>
 6    1  0.1535970E-002  0.9188565E+02  0.7546771E-02  0.1399875E+00
          1   -1    0    0  501    0  0.00000000000E+00  0.00000000000E+00  0.66835689470E+03  0.66835689470E+03  0.00000000000E+00 0. -1.
         -1   -1    0    0    0  501 -0.00000000000E+00 -0.00000000000E+00 -0.45661270288E+01  0.45661270288E+01  0.00000000000E+00 0.  1.
         23    2    1    2    0    0  0.86602253549E+01 -0.13658756631E+02  0.60542157280E+03  0.61235467978E+03  0.90451157577E+02 0.  0.
         13    1    3    3    0    0  0.33199122394E+02 -0.16160189406E+02  0.10459216970E+03  0.11091823751E+03  0.00000000000E+00 0.  1.
        -13    1    3    3    0    0 -0.24538897039E+02  0.25014327753E+01  0.50082940309E+03  0.50143644227E+03  0.00000000000E+00 0. -1.
         22    1    1    2    0    0 -0.86602253549E+01  0.13658756631E+02  0.58369194873E+02  0.60568341946E+02  0.00000000000E+00 0. -1.
<mgrwt>
<rscale>  0 0.59515821E+02</rscale>
<asrwt>0</asrwt>
<pdfrwt beam="1">  1        1 0.10282406E+00 0.91885652E+02</pdfrwt>
<pdfrwt beam="2">  1       -1 0.70248161E-03 0.91885652E+02</pdfrwt>
<totfact> 0.83068425E+04</totfact>
</mgrwt>
</event>
<event>
 6    1  0.1535970E-002  0.9387595E+02  0.7546771E-02  0.1364664E+00
          2   -1    0    0  501    0  0.00000000000E+00  0.00000000000E+00  0.31294572295E+03  0.31294572295E+03  0.00000000000E+00 0. -1.
         -2   -1    0    0    0  501 -0.00000000000E+00 -0.00000000000E+00 -0.12182831503E+02  0.12182831503E+02  0.00000000000E+00 0.  1.
         23    2    1    2    0    0  0.22241391027E+02  0.15101388576E+02  0.25872420644E+03  0.27522883052E+03  0.89944220151E+02 0.  0.
         11    1    3    3    0    0  0.29461168926E+02 -0.31719041383E+02  0.88273106194E+02  0.98316831406E+02  0.00000000000E+00 0.  1.
        -11    1    3    3    0    0 -0.72197778984E+01  0.46820429959E+02  0.17045110024E+03  0.17691199911E+03  0.00000000000E+00 0. -1.
         22    1    1    2    0    0 -0.22241391027E+02 -0.15101388576E+02  0.42038685007E+02  0.49899723936E+02  0.00000000000E+00 0.  1.
<mgrwt>
<rscale>  0 0.68673294E+02</rscale>
<asrwt>0</asrwt>
<pdfrwt beam="1">  1        2 0.48145490E-01 0.93875951E+02</pdfrwt>
<pdfrwt beam="2">  1       -2 0.18742820E-02 0.93875951E+02</pdfrwt>
<totfact> 0.77211180E+04</totfact>
</mgrwt>
</event>
<event>
 6    1  0.1535970E-002  0.9918418E+02  0.7546771E-02  0.1407019E+00
          2   -1    0    0  501    0  0.00000000000E+00  0.00000000000E+00  0.81621348170E+03  0.81621348170E+03  0.00000000000E+00 0. -1.
         -2   -1    0    0    0  501 -0.00000000000E+00 -0.00000000000E+00 -0.39221992585E+01  0.39221992585E+01  0.00000000000E+00 0.  1.
         23    2    1    2    0    0 -0.64843038025E+01 -0.94852746169E+01  0.76800844184E+03  0.77438651045E+03  0.98516415896E+02 0.  0.
         11    1    3    3    0    0 -0.18344038962E+02  0.40161445352E+02  0.46682504674E+03  0.46890838095E+03  0.00000000000E+00 0. -1.
        -11    1    3    3    0    0  0.11859735159E+02 -0.49646719968E+02  0.30118339510E+03  0.30547812950E+03  0.00000000000E+00 0.  1.
         22    1    1    2    0    0  0.64843038025E+01  0.94852746169E+01  0.44282840600E+02  0.45749170506E+02  0.00000000000E+00 0.  1.
<mgrwt>
<rscale>  0 0.57864256E+02</rscale>
<asrwt>0</asrwt>
<pdfrwt beam="1">  1        2 0.12557117E+00 0.99184176E+02</pdfrwt>
<pdfrwt beam="2">  1       -2 0.60341592E-03 0.99184176E+02</pdfrwt>
<totfact> 0.13511800E+05</totfact>
</mgrwt>
</event>
<event>
 6    1  0.1535970E-002  0.9702709E+02  0.7546771E-02  0.1347211E+00
          2   -1    0    0  501    0  0.00000000000E+00  0.00000000000E+00  0.18240344072E+04  0.18240344072E+04  0.00000000000E+00 0. -1.
         -2   -1    0    0    0  501 -0.00000000000E+00 -0.00000000000E+00 -0.43731475112E+01  0.43731475112E+01  0.00000000000E+00 0.  1.
         23    2    1    2    0    0  0.14378066315E+02  0.29377506170E+02  0.17340312091E+04  0.17367436457E+04  0.91348179730E+02 0.  0.
         13    1    3    3    0    0 -0.18582101449E+02  0.14829696348E+02  0.14778748545E+04  0.14780660675E+04  0.00000000000E+00 0. -1.
        -13    1    3    3    0    0  0.32960167764E+02  0.14547809822E+02  0.25615635458E+03  0.25867757812E+03  0.00000000000E+00 0.  1.
         22    1    1    2    0    0 -0.14378066315E+02 -0.29377506170E+02  0.85630050637E+02  0.91663909102E+02  0.00000000000E+00 0.  1.
<mgrwt>
<rscale>  0 0.73931734E+02</rscale>
<asrwt>0</asrwt>
<pdfrwt beam="1">  1        2 0.28062007E+00 0.97027092E+02</pdfrwt>
<pdfrwt beam="2">  1       -2 0.67279338E-03 0.97027092E+02</pdfrwt>
<totfact> 0.32675847E+04</totfact>
</mgrwt>
</event>
<event>
 6    1  0.1535970E-002  0.9203451E+02  0.7546771E-02  0.1411296E+00
         -3   -1    0    0    0  501 -0.00000000000E+00  0.00000000000E+00  0.16890172267E+03  0.16890172267E+03  0.00000000000E+00 0.  1.
          3   -1    0    0  501    0  0.00000000000E+00 -0.00000000000E+00 -0.20100222106E+02  0.20100222106E+02  0.00000000000E+00 0. -1.
         23    2    1    2    0    0  0.44970004103E+01  0.12677424299E+02  0.90161218692E+02  0.12883864402E+03  0.91046201118E+02 0.  0.
         13    1    3    3    0    0 -0.25681493222E+02  0.29630628371E+02  0.84685171883E+01  0.40115196810E+02  0.00000000000E+00 0. -1.
        -13    1    3    3    0    0  0.30178493632E+02 -0.16953204072E+02  0.81692701504E+02  0.88723447212E+02  0.00000000000E+00 0.  1.
         22    1    1    2    0    0 -0.44970004103E+01 -0.12677424299E+02  0.58640281872E+02  0.60163300754E+02  0.00000000000E+00 0.  1.
<mgrwt>
<rscale>  0 0.56905583E+02</rscale>
<asrwt>0</asrwt>
<pdfrwt beam="1">  1        3 0.30923420E-02 0.92034509E+02</pdfrwt>
<pdfrwt beam="2">  1       -3 0.25984880E-01 0.92034509E+02</pdfrwt>
<totfact> 0.14026146E+04</totfact>
</mgrwt>
</event>
<event>
 6    1  0.1535970E-002  0.1192739E+03  0.7546771E-02  0.1379766E+00
          2   -1    0    0  501    0  0.00000000000E+00  0.00000000000E+00  0.17365142671E+03  0.17365142671E+03  0.00000000000E+00 0. -1.
         -2   -1    0    0    0  501 -0.00000000000E+00 -0.00000000000E+00 -0.30522448396E+02  0.30522448396E+02  0.00000000000E+00 0.  1.
         23    2    1    2    0    0  0.91892978889E+01 -0.44637213654E+01  0.15016435429E+03  0.19176966134E+03  0.11883560791E+03 0.  0.
         13    1    3    3    0    0 -0.33735478337E+02 -0.18517732572E+02  0.14037431880E+03  0.14555390169E+03  0.00000000000E+00 0. -1.
        -13    1    3    3    0    0  0.42924776226E+02  0.14054011206E+02  0.97900354905E+01  0.46215759649E+02  0.00000000000E+00 0.  1.
         22    1    1    2    0    0 -0.91892978889E+01  0.44637213654E+01 -0.70353759755E+01  0.12404213769E+02  0.00000000000E+00 0.  1.
<mgrwt>
<rscale>  0 0.64525304E+02</rscale>
<asrwt>0</asrwt>
<pdfrwt beam="1">  1        2 0.26715604E-01 0.11927393E+03</pdfrwt>
<pdfrwt beam="2">  1       -2 0.46957614E-02 0.11927393E+03</pdfrwt>
<totfact> 0.38929314E+04</totfact>
</mgrwt>
</event>
<event>
 6    1  0.1535970E-002  0.1699421E+03  0.7546771E-02  0.1185348E+00
         -2   -1    0    0    0  501 -0.00000000000E+00  0.00000000000E+00  0.50847235215E+02  0.50847235215E+02  0.00000000000E+00 0.  1.
          2   -1    0    0  501    0  0.00000000000E+00 -0.00000000000E+00 -0.48425729515E+03  0.48425729515E+03  0.00000000000E+00 0. -1.
         23    2    1    2    0    0 -0.14369210021E+03  0.64531484469E+01 -0.22967900143E+03  0.28571446042E+03  0.90505504859E+02 0.  0.
         11    1    3    3    0    0 -0.64934995532E+02  0.47881854346E+02 -0.11732451724E+03  0.14238773812E+03  0.00000000000E+00 0. -1.
        -11    1    3    3    0    0 -0.78757104674E+02 -0.41428705899E+02 -0.11235448418E+03  0.14332672230E+03  0.00000000000E+00 0.  1.
         22    1    1    2    0    0  0.14369210021E+03 -0.64531484469E+01 -0.20373105851E+03  0.24939006995E+03  0.00000000000E+00 0.  1.
<mgrwt>
<rscale>  0 0.16300213E+03</rscale>
<asrwt>0</asrwt>
<pdfrwt beam="1">  1        2 0.74501124E-01 0.16994208E+03</pdfrwt>
<pdfrwt beam="2">  1       -2 0.78226514E-02 0.16994208E+03</pdfrwt>
<totfact> 0.61455098E+03</totfact>
</mgrwt>
</event>
<event>
 6    1  0.1535970E-002  0.9350315E+02  0.7546771E-02  0.1396028E+00
         -2   -1    0    0    0  501 -0.00000000000E+00  0.00000000000E+00  0.66439660980E+01  0.66439660980E+01  0.00000000000E+00 0.  1.
          2   -1    0    0  501    0  0.00000000000E+00 -0.00000000000E+00 -0.62030759918E+03  0.62030759918E+03  0.00000000000E+00 0. -1.
         23    2    1    2    0    0 -0.26113926272E+01 -0.16104624820E+02 -0.59439128966E+03  0.60170079236E+03  0.92068778579E+02 0.  0.
         11    1    3    3    0    0  0.14917223198E+02 -0.17548467065E+02 -0.34193804184E+02  0.41227278455E+02  0.00000000000E+00 0.  1.
        -11    1    3    3    0    0 -0.17528615825E+02  0.14438422449E+01 -0.56019748548E+03  0.56047351391E+03  0.00000000000E+00 0. -1.
         22    1    1    2    0    0  0.26113926272E+01  0.16104624820E+02 -0.19272343421E+02  0.25250772918E+02  0.00000000000E+00 0.  1.
<mgrwt>
<rscale>  0 0.60431900E+02</rscale>
<asrwt>0</asrwt>
<pdfrwt beam="1">  1        2 0.95431955E-01 0.93503146E+02</pdfrwt>
<pdfrwt beam="2">  1       -2 0.10221485E-02 0.93503146E+02</pdfrwt>
<totfact> 0.87969175E+04</totfact>
</mgrwt>
</event>
<event>
 6    1  0.1535970E-002  0.9131772E+02  0.7546771E-02  0.1413266E+00
         -2   -1    0    0    0  501 -0.00000000000E+00  0.00000000000E+00  0.94653369040E+01  0.94653369040E+01  0.00000000000E+00 0.  1.
          2   -1    0    0  501    0  0.00000000000E+00 -0.00000000000E+00 -0.29103242056E+03  0.29103242056E+03  0.00000000000E+00 0. -1.
         23    2    1    2    0    0 -0.12973277101E+02 -0.31708023443E+01 -0.25262302335E+03  0.26862114326E+03  0.90335855408E+02 0.  0.
         11    1    3    3    0    0 -0.38871048282E+02 -0.17842289346E+02 -0.22136310836E+03  0.22545716095E+03  0.00000000000E+00 0. -1.
        -11    1    3    3    0    0  0.25897771181E+02  0.14671487002E+02 -0.31259914992E+02  0.43163982304E+02  0.00000000000E+00 0.  1.
         22    1    1    2    0    0  0.12973277101E+02  0.31708023443E+01 -0.28944060304E+02  0.31876614204E+02  0.00000000000E+00 0.  1.
<mgrwt>
<rscale>  0 0.56471388E+02</rscale>
<asrwt>0</asrwt>
<pdfrwt beam="1">  1        2 0.44774215E-01 0.91317724E+02</pdfrwt>
<pdfrwt beam="2">  1       -2 0.14562058E-02 0.91317724E+02</pdfrwt>
<totfact> 0.11903451E+05</totfact>
</mgrwt>
</event>
<event>
 6    1  0.1535970E-002  0.9222890E+02  0.7546771E-02  0.1403863E+00
         -3   -1    0    0    0  501 -0.00000000000E+00  0.00000000000E+00  0.10005286321E+03  0.10005286321E+03  0.00000000000E+00 0.  1.
          3   -1    0    0  501    0  0.00000000000E+00 -0.00000000000E+00 -0.29692802840E+02  0.29692802840E+02  0.00000000000E+00 0. -1.
         23    2    1    2    0    0 -0.11074246166E+01  0.14975834149E+02  0.51486180518E+02  0.10562668310E+03  0.90998172515E+02 0.  0.
         13    1    3    3    0    0 -0.38845889218E+01  0.52706321729E+02  0.39368474404E+02  0.65900858554E+02  0.00000000000E+00 0.  1.
        -13    1    3    3    0    0  0.27771643052E+01 -0.37730487579E+02  0.12117706114E+02  0.39725824548E+02  0.00000000000E+00 0. -1.
         22    1    1    2    0    0  0.11074246166E+01 -0.14975834149E+02  0.18873879853E+02  0.24118982948E+02  0.00000000000E+00 0.  1.
<mgrwt>
<rscale>  0 0.58586029E+02</rscale>
<asrwt>0</asrwt>
<pdfrwt beam="1">  1        3 0.45681236E-02 0.92228897E+02</pdfrwt>
<pdfrwt beam="2">  1       -3 0.15392748E-01 0.92228897E+02</pdfrwt>
<totfact> 0.19149602E+04</totfact>
</mgrwt>
</event>
<event>
 6    1  0.1535970E-002  0.9345263E+02  0.7546771E-02  0.1370944E+00
         -2   -1    0    0    0  501 -0.00000000000E+00  0.00000000000E+00  0.11698921210E+03  0.11698921210E+03  0.00000000000E+00 0.  1.
          2   -1    0    0  501    0  0.00000000000E+00 -0.00000000000E+00 -0.16540180523E+03  0.16540180523E+03  0.00000000000E+00 0. -1.
         23    2    1    2    0    0 -0.36861426960E+01  0.24272766012E+02 -0.15063099049E+03  0.17726558951E+03  0.90170056624E+02 0.  0.
         13    1    3    3    0    0 -0.15437265039E+02 -0.27551178506E+01  0.68055048579E+01  0.17094289182E+02  0.00000000000E+00 0.  1.
        -13    1    3    3    0    0  0.11751122343E+02  0.27027883863E+02 -0.15743649534E+03  0.16017130033E+03  0.00000000000E+00 0. -1.
         22    1    1    2    0    0  0.36861426960E+01 -0.24272766012E+02  0.10221839736E+03  0.10512542783E+03  0.00000000000E+00 0.  1.
<mgrwt>
<rscale>  0 0.66905409E+02</rscale>
<asrwt>0</asrwt>
<pdfrwt beam="1">  1        2 0.25446431E-01 0.93452629E+02</pdfrwt>
<pdfrwt beam="2">  1       -2 0.17998340E-01 0.93452629E+02</pdfrwt>
<totfact> 0.49448721E+03</totfact>
</mgrwt>
</event>
<event>
 6    1  0.1535970E-002  0.9893230E+02  0.7546771E-02  0.1414669E+00
          2   -1    0    0  501    0  0.00000000000E+00  0.00000000000E+00  0.10705542256E+04  0.10705542256E+04  0.00000000000E+00 0. -1.
         -2   -1    0    0    0  501 -0.00000000000E+00 -0.00000000000E+00 -0.75986944161E+01  0.75986944161E+01  0.00000000000E+00 0.  1.
         23    2    1    2    0    0  0.32897120325E+01 -0.97357924355E+01  0.10632786356E+04  0.10678712735E+04  0.98397113854E+02 0.  0.
         11    1    3    3    0    0  0.24599182702E+02  0.37158987016E+02  0.36826598491E+03  0.37095248449E+03  0.00000000000E+00 0.  1.
        -11    1    3    3    0    0 -0.21309470669E+02 -0.46894779452E+02  0.69501265067E+03  0.69691878901E+03  0.00000000000E+00 0. -1.
         22    1    1    2    0    0 -0.32897120325E+01  0.97357924355E+01 -0.32310435545E+00  0.10281646562E+02  0.00000000000E+00 0.  1.
<mgrwt>
<rscale>  0 0.56164980E+02</rscale>
<asrwt>0</asrwt>
<pdfrwt beam="1">  1        2 0.16470053E+00 0.98932299E+02</pdfrwt>
<pdfrwt beam="2">  1       -2 0.11690308E-02 0.98932299E+02</pdfrwt>
<totfact> 0.37098176E+04</totfact>
</mgrwt>
</event>
<event>
 6    1  0.1535970E-002  0.9459886E+02  0.7546771E-02  0.1376240E+00
         -1   -1    0    0    0  501 -0.00000000000E+00  0.00000000000E+00  0.25431151107E+03  0.25431151107E+03  0.00000000000E+00 0.  1.
          1   -1    0    0  501    0  0.00000000000E+00 -0.00000000000E+00 -0.15392246567E+02  0.15392246567E+02  0.00000000000E+00 0. -1.
         23    2    1    2    0    0  0.20634154184E+02 -0.66932309320E+01  0.14368394009E+03  0.17202912083E+03  0.92078097912E+02 0.  0.
         11    1    3    3    0    0 -0.32080982641E+02  0.16317726803E+02  0.43016801059E+02  0.56088348421E+02  0.00000000000E+00 0.  1.
        -11    1    3    3    0    0  0.52715136825E+02 -0.23010957735E+02  0.10066713903E+03  0.11594077241E+03  0.00000000000E+00 0. -1.
         22    1    1    2    0    0 -0.20634154184E+02  0.66932309320E+01  0.95235324407E+02  0.97674636801E+02  0.00000000000E+00 0.  1.
<mgrwt>
<rscale>  0 0.65462438E+02</rscale>
<asrwt>0</asrwt>
<pdfrwt beam="1">  1        1 0.23680381E-02 0.94598857E+02</pdfrwt>
<pdfrwt beam="2">  1       -1 0.39124845E-01 0.94598857E+02</pdfrwt>
<totfact> 0.26998150E+04</totfact>
</mgrwt>
</event>
<event>
 6    1  0.1535970E-002  0.8770558E+02  0.7546771E-02  0.1354103E+00
         -2   -1    0    0    0  501 -0.00000000000E+00  0.00000000000E+00  0.16239217596E+03  0.16239217596E+03  0.00000000000E+00 0. -1.
          2   -1    0    0  501    0  0.00000000000E+00 -0.00000000000E+00 -0.30951903490E+02  0.30951903490E+02  0.00000000000E+00 0.  1.
         23    2    1    2    0    0 -0.34051935177E+02 -0.19770584618E+02  0.45483386406E+02  0.98797812643E+02  0.78370013644E+02 0.  0.
         11    1    3    3    0    0 -0.40763773816E+02  0.21287652669E+02  0.26401355821E+02  0.53027172290E+02  0.00000000000E+00 0. -1.
        -11    1    3    3    0    0  0.67118386383E+01 -0.41058237287E+02  0.19082030585E+02  0.45770640353E+02  0.00000000000E+00 0.  1.
         22    1    1    2    0    0  0.34051935177E+02  0.19770584618E+02  0.85956886060E+02  0.94546266804E+02  0.00000000000E+00 0. -1.
<mgrwt>
<rscale>  0 0.71792035E+02</rscale>
<asrwt>0</asrwt>
<pdfrwt beam="1">  1        2 0.47618314E-02 0.87705583E+02</pdfrwt>
<pdfrwt beam="2">  1       -2 0.24983411E-01 0.87705583E+02</pdfrwt>
<totfact> 0.20943085E+04</totfact>
</mgrwt>
</event>
<event>
 6    1  0.1535970E-002  0.9222389E+02  0.7546771E-02  0.1409690E+00
          1   -1    0    0  501    0  0.00000000000E+00  0.00000000000E+00  0.15649222484E+02  0.15649222484E+02  0.00000000000E+00 0. -1.
         -1   -1    0    0    0  501 -0.00000000000E+00 -0.00000000000E+00 -0.22084328156E+03  0.22084328156E+03  0.00000000000E+00 0.  1.
         23    2    1    2    0    0 -0.13567110704E+02 -0.19594492442E+01 -0.12613531668E+03  0.15625416730E+03  0.91199455866E+02 0.  0.
         11    1    3    3    0    0  0.88843972109E+01  0.41634846823E+02 -0.49686720968E+02  0.65430598532E+02  0.00000000000E+00 0.  1.
        -11    1    3    3    0    0 -0.22451507915E+02 -0.43594296067E+02 -0.76448595711E+02  0.90823568766E+02  0.00000000000E+00 0. -1.
         22    1    1    2    0    0  0.13567110704E+02  0.19594492442E+01 -0.79058742401E+02  0.80238336749E+02  0.00000000000E+00 0. -1.
<mgrwt>
<rscale>  0 0.57263139E+02</rscale>
<asrwt>0</asrwt>
<pdfrwt beam="1">  1        1 0.24075729E-02 0.92223894E+02</pdfrwt>
<pdfrwt beam="2">  1       -1 0.33975887E-01 0.92223894E+02</pdfrwt>
<totfact> 0.33479255E+04</totfact>
</mgrwt>
</event>
<event>
 6    1  0.1535970E-002  0.9046868E+02  0.7546771E-02  0.1427413E+00
         -2   -1    0    0    0  501 -0.00000000000E+00  0.00000000000E+00  0.62831483336E+01  0.62831483336E+01  0.00000000000E+00 0. -1.
          2   -1    0    0  501    0  0.00000000000E+00 -0.00000000000E+00 -0.41240864487E+03  0.41240864487E+03  0.00000000000E+00 0.  1.
         23    2    1    2    0    0  0.60597262759E+01 -0.92401873279E+01 -0.37088904124E+03  0.38176336071E+03  0.89791320995E+02 0.  0.
         13    1    3    3    0    0 -0.75183850672E+01 -0.38183178315E+02 -0.78349672795E+02  0.87482297909E+02  0.00000000000E+00 0. -1.
        -13    1    3    3    0    0  0.13578111343E+02  0.28942990987E+02 -0.29253936845E+03  0.29428106281E+03  0.00000000000E+00 0.  1.
         22    1    1    2    0    0 -0.60597262759E+01  0.92401873279E+01 -0.35236455292E+02  0.36928432487E+02  0.00000000000E+00 0. -1.
<mgrwt>
<rscale>  0 0.53482753E+02</rscale>
<asrwt>0</asrwt>
<pdfrwt beam="1">  1        2 0.63447473E-01 0.90468683E+02</pdfrwt>
<pdfrwt beam="2">  1       -2 0.96663837E-03 0.90468683E+02</pdfrwt>
<totfact> 0.14760914E+05</totfact>
</mgrwt>
</event>
<event>
 6    1  0.1535970E-002  0.9922077E+02  0.7546771E-02  0.1371133E+00
          2   -1    0    0  501    0  0.00000000000E+00  0.00000000000E+00  0.34235035697E+04  0.34235035697E+04  0.00000000000E+00 0. -1.
         -2   -1    0    0    0  501 -0.00000000000E+00 -0.00000000000E+00 -0.26657077092E+01  0.26657077092E+01  0.00000000000E+00 0.  1.
         23    2    1    2    0    0 -0.18872252458E+02  0.78754123904E+01  0.33687517803E+04  0.33702126519E+04  0.97090564202E+02 0.  0.
         13    1    3    3    0    0  0.18763978368E+02  0.27610965180E+01  0.28534255721E+04  0.28534886028E+04  0.00000000000E+00 0. -1.
        -13    1    3    3    0    0 -0.37636230826E+02  0.51143158724E+01  0.51532620823E+03  0.51672404917E+03  0.00000000000E+00 0.  1.
         22    1    1    2    0    0  0.18872252458E+02 -0.78754123904E+01  0.52086081644E+02  0.55956625471E+02  0.00000000000E+00 0.  1.
<mgrwt>
<rscale>  0 0.66853305E+02</rscale>
<asrwt>0</asrwt>
<pdfrwt beam="1">  1        2 0.52668934E+00 0.99220772E+02</pdfrwt>
<pdfrwt beam="2">  1       -2 0.41011162E-03 0.99220772E+02</pdfrwt>
<totfact> 0.88042850E+03</totfact>
</mgrwt>
</event>
<event>
 6    1  0.1535970E-002  0.9298463E+02  0.7546771E-02  0.1411468E+00
         -1   -1    0    0    0  501 -0.00000000000E+00  0.00000000000E+00  0.40098779645E+02  0.40098779645E+02  0.00000000000E+00 0.  1.
          1   -1    0    0  501    0  0.00000000000E+00 -0.00000000000E+00 -0.71518203724E+02  0.71518203724E+02  0.00000000000E+00 0. -1.
         23    2    1    2    0    0 -0.15681916053E+01  0.12913648899E+02 -0.32650193816E+02  0.98550371453E+02  0.92070185210E+02 0.  0.
         11    1    3    3    0    0 -0.88403278163E+01 -0.22418348248E+02 -0.52219241646E+02  0.57511589546E+02  0.00000000000E+00 0. -1.
        -11    1    3    3    0    0  0.72721362110E+01  0.35331997147E+02  0.19569047830E+02  0.41038781907E+02  0.00000000000E+00 0.  1.
         22    1    1    2    0    0  0.15681916053E+01 -0.12913648899E+02  0.12307697368E+01  0.13066611915E+02  0.00000000000E+00 0.  1.
<mgrwt>
<rscale>  0 0.56867655E+02</rscale>
<asrwt>0</asrwt>
<pdfrwt beam="1">  1        1 0.11002800E-01 0.92984625E+02</pdfrwt>
<pdfrwt beam="2">  1       -1 0.61690431E-02 0.92984625E+02</pdfrwt>
<totfact> 0.61916420E+04</totfact>
</mgrwt>
</event>
<event>
 6    1  0.1535970E-002  0.9056240E+02  0.7546771E-02  0.1390689E+00
         -2   -1    0    0    0  501 -0.00000000000E+00  0.00000000000E+00  0.28452217651E+01  0.28452217651E+01  0.00000000000E+00 0.  1.
          2   -1    0    0  501    0  0.00000000000E+00 -0.00000000000E+00 -0.13055236944E+04  0.13055236944E+04  0.00000000000E+00 0. -1.
         23    2    1    2    0    0  0.17149156796E+02 -0.94010744217E+01 -0.12221071058E+04  0.12254580066E+04  0.88425527960E+02 0.  0.
         11    1    3    3    0    0  0.13102856745E+02 -0.10328278930E+02 -0.12210637428E+04  0.12211777194E+04  0.00000000000E+00 0. -1.
        -11    1    3    3    0    0  0.40463000511E+01  0.92720450852E+00 -0.10433629897E+01  0.42802872138E+01  0.00000000000E+00 0.  1.
         22    1    1    2    0    0 -0.17149156796E+02  0.94010744217E+01 -0.80571366783E+02  0.82910909562E+02  0.00000000000E+00 0. -1.
<mgrwt>
<rscale>  0 0.61735666E+02</rscale>
<asrwt>0</asrwt>
<pdfrwt beam="1">  1        2 0.20084971E+00 0.90562397E+02</pdfrwt>
<pdfrwt beam="2">  1       -2 0.43772661E-03 0.90562397E+02</pdfrwt>
<totfact> 0.10916777E+05</totfact>
</mgrwt>
</event>
<event>
 6    1  0.1535970E-002  0.1034210E+03  0.7546771E-02  0.1363985E+00
          2   -1    0    0  501    0  0.00000000000E+00  0.00000000000E+00  0.41257441156E+03  0.41257441156E+03  0.00000000000E+00 0.  1.
         -2   -1    0    0    0  501 -0.00000000000E+00 -0.00000000000E+00 -0.13387218684E+02  0.13387218684E+02  0.00000000000E+00 0. -1.
         23    2    1    2    0    0 -0.18686149423E+02 -0.80218004834E+01  0.39029907109E+03  0.40376883475E+03  0.10140209838E+03 0.  0.
         11    1    3    3    0    0  0.26758667681E+02  0.27463992607E+02  0.23508065409E+03  0.23818734457E+03  0.00000000000E+00 0.  1.
        -11    1    3    3    0    0 -0.45444817104E+02 -0.35485793090E+02  0.15521841700E+03  0.16558149018E+03  0.00000000000E+00 0. -1.
         22    1    1    2    0    0  0.18686149423E+02  0.80218004834E+01  0.88881217916E+01  0.22192795503E+02  0.00000000000E+00 0. -1.
<mgrwt>
<rscale>  0 0.68868221E+02</rscale>
<asrwt>0</asrwt>
<pdfrwt beam="1">  1        2 0.63472977E-01 0.10342102E+03</pdfrwt>
<pdfrwt beam="2">  1       -2 0.20595724E-02 0.10342102E+03</pdfrwt>
<totfact> 0.51058587E+04</totfact>
</mgrwt>
</event>
<event>
 6    1  0.1535970E-002  0.9366363E+02  0.7546771E-02  0.1343912E+00
          1   -1    0    0  501    0  0.00000000000E+00  0.00000000000E+00  0.14207228872E+04  0.14207228872E+04  0.00000000000E+00 0. -1.
         -1   -1    0    0    0  501 -0.00000000000E+00 -0.00000000000E+00 -0.42438352632E+01  0.42438352632E+01  0.00000000000E+00 0.  1.
         23    2    1    2    0    0 -0.73561058790E+01 -0.37769783705E+02  0.12722413797E+04  0.12756845235E+04  0.85394415830E+02 0.  0.
         13    1    3    3    0    0  0.15491724647E+01 -0.45873462879E+02  0.31110475240E+03  0.31447248130E+03  0.00000000000E+00 0.  1.
        -13    1    3    3    0    0 -0.89052783437E+01  0.81036791741E+01  0.96113662733E+03  0.96121204216E+03  0.00000000000E+00 0. -1.
         22    1    1    2    0    0  0.73561058790E+01  0.37769783705E+02  0.14423767226E+03  0.14928219905E+03  0.00000000000E+00 0.  1.
<mgrwt>
<rscale>  0 0.74986913E+02</rscale>
<asrwt>0</asrwt>
<pdfrwt beam="1">  1        1 0.21857237E+00 0.93663627E+02</pdfrwt>
<pdfrwt beam="2">  1       -1 0.65289887E-03 0.93663627E+02</pdfrwt>
<totfact> 0.26140103E+04</totfact>
</mgrwt>
</event>
<event>
 6    1  0.1535970E-002  0.9342579E+02  0.7546771E-02  0.1420550E+00
         -2   -1    0    0    0  501 -0.00000000000E+00  0.00000000000E+00  0.26306796083E+01  0.26306796083E+01  0.00000000000E+00 0. -1.
          2   -1    0    0  501    0  0.00000000000E+00 -0.00000000000E+00 -0.12286742723E+04  0.12286742723E+04  0.00000000000E+00 0.  1.
         23    2    1    2    0    0 -0.10244129514E+02  0.43867344547E+01 -0.11878625208E+04  0.11915308412E+04  0.92758782203E+02 0.  0.
         11    1    3    3    0    0 -0.17553336370E+02 -0.41061715259E+02 -0.44230364524E+03  0.44455224515E+03  0.00000000000E+00 0.  1.
        -11    1    3    3    0    0  0.73092068553E+01  0.45448449713E+02 -0.74555887553E+03  0.74697859605E+03  0.00000000000E+00 0. -1.
         22    1    1    2    0    0  0.10244129514E+02 -0.43867344547E+01 -0.38181071901E+02  0.39774110677E+02  0.00000000000E+00 0. -1.
<mgrwt>
<rscale>  0 0.54904632E+02</rscale>
<asrwt>0</asrwt>
<pdfrwt beam="1">  1        2 0.18902676E+00 0.93425785E+02</pdfrwt>
<pdfrwt beam="2">  1       -2 0.40472005E-03 0.93425785E+02</pdfrwt>
<totfact> 0.13441066E+05</totfact>
</mgrwt>
</event>
<event>
 6    1  0.1535970E-002  0.1580954E+03  0.7546771E-02  0.1199955E+00
         -1   -1    0    0    0  501 -0.00000000000E+00  0.00000000000E+00  0.37776834742E+03  0.37776834742E+03  0.00000000000E+00 0.  1.
          1   -1    0    0  501    0  0.00000000000E+00 -0.00000000000E+00 -0.60761105527E+02  0.60761105527E+02  0.00000000000E+00 0. -1.
         23    2    1    2    0    0 -0.12066483162E+03  0.47192369722E+02  0.10407801066E+03  0.18927861771E+03  0.90592723050E+02 0.  0.
         13    1    3    3    0    0  0.11319182060E+02  0.12226295406E+01  0.27837292759E+02  0.30075464646E+02  0.00000000000E+00 0.  1.
        -13    1    3    3    0    0 -0.13198401368E+03  0.45969740181E+02  0.76240717900E+02  0.15920315307E+03  0.00000000000E+00 0. -1.
         22    1    1    2    0    0  0.12066483162E+03 -0.47192369722E+02  0.21292923123E+03  0.24925083523E+03  0.00000000000E+00 0.  1.
<mgrwt>
<rscale>  0 0.15042205E+03</rscale>
<asrwt>0</asrwt>
<pdfrwt beam="1">  1        1 0.93478627E-02 0.15809542E+03</pdfrwt>
<pdfrwt beam="2">  1       -1 0.58118206E-01 0.15809542E+03</pdfrwt>
<totfact> 0.21241429E+03</totfact>
</mgrwt>
</event>
<event>
 6    1  0.1535970E-002  0.9280608E+02  0.7546771E-02  0.1420728E+00
          2   -1    0    0  501    0  0.00000000000E+00  0.00000000000E+00  0.17080037348E+04  0.17080037348E+04  0.00000000000E+00 0. -1.
         -2   -1    0    0    0  501 -0.00000000000E+00 -0.00000000000E+00 -0.19350188423E+01  0.19350188423E+01  0.00000000000E+00 0.  1.
         23    2    1    2    0    0  0.37958100902E+01 -0.10683229656E+02  0.16561704802E+04  0.16587687087E+04  0.92110964752E+02 0.  0.
         13    1    3    3    0    0 -0.27718878190E+02 -0.27705731192E+02  0.36434321210E+03  0.36644497534E+03  0.00000000000E+00 0.  1.
        -13    1    3    3    0    0  0.31514688280E+02  0.17022501536E+02  0.12918272681E+04  0.12923237333E+04  0.00000000000E+00 0. -1.
         22    1    1    2    0    0 -0.37958100902E+01  0.10683229656E+02  0.49898235773E+02  0.51170044981E+02  0.00000000000E+00 0. -1.
<mgrwt>
<rscale>  0 0.54867092E+02</rscale>
<asrwt>0</asrwt>
<pdfrwt beam="1">  1        2 0.26276860E+00 0.92806085E+02</pdfrwt>
<pdfrwt beam="2">  1       -2 0.29769657E-03 0.92806085E+02</pdfrwt>
<totfact> 0.11663882E+05</totfact>
</mgrwt>
</event>
<event>
 6    1  0.1535970E-002  0.9105481E+02  0.7546771E-02  0.1419169E+00
          2   -1    0    0  501    0  0.00000000000E+00  0.00000000000E+00  0.17551501705E+04  0.17551501705E+04  0.00000000000E+00 0. -1.
         -2   -1    0    0    0  501 -0.00000000000E+00 -0.00000000000E+00 -0.22331084788E+01  0.22331084788E+01  0.00000000000E+00 0.  1.
         23    2    1    2    0    0 -0.12280266188E+02 -0.61860933821E+00  0.17171357440E+04  0.17195482379E+04  0.90220792974E+02 0.  0.
         13    1    3    3    0    0 -0.18562472250E+02 -0.28716229514E+02  0.27399867292E+03  0.27612399384E+03  0.00000000000E+00 0.  1.
        -13    1    3    3    0    0  0.62822060621E+01  0.28097620175E+02  0.14431370711E+04  0.14434242440E+04  0.00000000000E+00 0. -1.
         22    1    1    2    0    0  0.12280266188E+02  0.61860933821E+00  0.35781318052E+02  0.37835041121E+02  0.00000000000E+00 0. -1.
<mgrwt>
<rscale>  0 0.55197157E+02</rscale>
<asrwt>0</asrwt>
<pdfrwt beam="1">  1        2 0.27002200E+00 0.91054814E+02</pdfrwt>
<pdfrwt beam="2">  1       -2 0.34355655E-03 0.91054814E+02</pdfrwt>
<totfact> 0.90259611E+04</totfact>
</mgrwt>
</event>
<event>
 6    1  0.1535970E-002  0.9401398E+02  0.7546771E-02  0.1373843E+00
          1   -1    0    0  501    0  0.00000000000E+00  0.00000000000E+00  0.41918785872E+03  0.41918785872E+03  0.00000000000E+00 0. -1.
         -1   -1    0    0    0  501 -0.00000000000E+00 -0.00000000000E+00 -0.14186926273E+02  0.14186926273E+02  0.00000000000E+00 0.  1.
         23    2    1    2    0    0 -0.11984463291E+02  0.19616651084E+02  0.39856504915E+03  0.40950302439E+03  0.91160233799E+02 0.  0.
         13    1    3    3    0    0 -0.49275290669E+02  0.26700042029E+02  0.24085553268E+03  0.24728997986E+03  0.00000000000E+00 0. -1.
        -13    1    3    3    0    0  0.37290827379E+02 -0.70833909458E+01  0.15770951647E+03  0.16221304454E+03  0.00000000000E+00 0.  1.
         22    1    1    2    0    0  0.11984463291E+02 -0.19616651084E+02  0.64358832959E+01  0.23871760595E+02  0.00000000000E+00 0.  1.
<mgrwt>
<rscale>  0 0.66110255E+02</rscale>
<asrwt>0</asrwt>
<pdfrwt beam="1">  1        1 0.64490430E-01 0.94013981E+02</pdfrwt>
<pdfrwt beam="2">  1       -1 0.21826044E-02 0.94013981E+02</pdfrwt>
<totfact> 0.30761690E+04</totfact>
</mgrwt>
</event>
<event>
 6    1  0.1535970E-002  0.1031808E+03  0.7546771E-02  0.1361394E+00
         -2   -1    0    0    0  501 -0.00000000000E+00  0.00000000000E+00  0.40330653169E+01  0.40330653169E+01  0.00000000000E+00 0.  1.
          2   -1    0    0  501    0  0.00000000000E+00 -0.00000000000E+00 -0.19061931367E+04  0.19061931367E+04  0.00000000000E+00 0. -1.
         23    2    1    2    0    0  0.19394065650E+02 -0.90110668273E+01 -0.18608553459E+04  0.18637137365E+04  0.10094029861E+03 0.  0.
         13    1    3    3    0    0 -0.49806165398E+01 -0.51394655999E+02 -0.74465749457E+03  0.74644557834E+03  0.00000000000E+00 0.  1.
        -13    1    3    3    0    0  0.24374682190E+02  0.42383589171E+02 -0.11161978514E+04  0.11172681581E+04  0.00000000000E+00 0. -1.
         22    1    1    2    0    0 -0.19394065650E+02  0.90110668273E+01 -0.41304725483E+02  0.46512465588E+02  0.00000000000E+00 0.  1.
<mgrwt>
<rscale>  0 0.69618988E+02</rscale>
<asrwt>0</asrwt>
<pdfrwt beam="1">  1        2 0.29326034E+00 0.10318078E+03</pdfrwt>
<pdfrwt beam="2">  1       -2 0.62047190E-03 0.10318078E+03</pdfrwt>
<totfact> 0.33449091E+04</totfact>
</mgrwt>
</event>
<event>
 6    1  0.1535970E-002  0.8115662E+02  0.7546771E-02  0.1417737E+00
          2   -1    0    0  501    0  0.00000000000E+00  0.00000000000E+00  0.30836571009E+03  0.30836571009E+03  0.00000000000E+00 0. -1.
         -2   -1    0    0    0  501 -0.00000000000E+00 -0.00000000000E+00 -0.80653318233E+01  0.80653318233E+01  0.00000000000E+00 0.  1.
         23    2    1    2    0    0 -0.16819374397E+02 -0.56824435242E+01  0.26053629833E+03  0.27288378514E+03  0.79191009111E+02 0.  0.
         11    1    3    3    0    0 -0.39131120834E+02 -0.28091376337E+02  0.18077048626E+03  0.18707842940E+03  0.00000000000E+00 0. -1.
        -11    1    3    3    0    0  0.22311746437E+02  0.22408932813E+02  0.79765812065E+02  0.85805355738E+02  0.00000000000E+00 0.  1.
         22    1    1    2    0    0  0.16819374397E+02  0.56824435242E+01  0.39764079941E+02  0.43547256780E+02  0.00000000000E+00 0.  1.
<mgrwt>
<rscale>  0 0.55502567E+02</rscale>
<asrwt>0</asrwt>
<pdfrwt beam="1">  1        2 0.47440869E-01 0.81156623E+02</pdfrwt>
<pdfrwt beam="2">  1       -2 0.12408205E-02 0.81156623E+02</pdfrwt>
<totfact> 0.13805479E+05</totfact>
</mgrwt>
</event>
<event>
 6    1  0.1535970E-002  0.9294878E+02  0.7546771E-02  0.1404385E+00
         -2   -1    0    0    0  501 -0.00000000000E+00  0.00000000000E+00  0.11190125106E+02  0.11190125106E+02  0.00000000000E+00 0.  1.
          2   -1    0    0  501    0  0.00000000000E+00 -0.00000000000E+00 -0.38403732742E+03  0.38403732742E+03  0.00000000000E+00 0. -1.
         23    2    1    2    0    0 -0.13325696236E+02  0.58429380159E+01 -0.36849968985E+03  0.38004144023E+03  0.91802836374E+02 0.  0.
         13    1    3    3    0    0  0.10185234662E+02 -0.16851877510E+02 -0.32519681398E+03  0.32579240722E+03  0.00000000000E+00 0. -1.
        -13    1    3    3    0    0 -0.23510930899E+02  0.22694815526E+02 -0.43302875868E+02  0.54249033004E+02  0.00000000000E+00 0.  1.
         22    1    1    2    0    0  0.13325696236E+02 -0.58429380159E+01 -0.43475124633E+01  0.15186012296E+02  0.00000000000E+00 0.  1.
<mgrwt>
<rscale>  0 0.58465744E+02</rscale>
<asrwt>0</asrwt>
<pdfrwt beam="1">  1        2 0.59082655E-01 0.92948776E+02</pdfrwt>
<pdfrwt beam="2">  1       -2 0.17215580E-02 0.92948776E+02</pdfrwt>
<totfact> 0.70277937E+04</totfact>
</mgrwt>
</event>
<event>
 6    1  0.1535970E-002  0.9198566E+02  0.7546771E-02  0.1424402E+00
          1   -1    0    0  501    0  0.00000000000E+00  0.00000000000E+00  0.20712909215E+03  0.20712909215E+03  0.00000000000E+00 0. -1.
         -1   -1    0    0    0  501 -0.00000000000E+00 -0.00000000000E+00 -0.34422334655E+02  0.34422334655E+02  0.00000000000E+00 0.  1.
         23    2    1    2    0    0  0.76797035237E+01 -0.78842375359E+01  0.19560005129E+03  0.21614981369E+03  0.91324820544E+02 0.  0.
         13    1    3    3    0    0  0.48160048904E+02  0.72100870424E+01  0.10829723046E+03  0.11874201358E+03  0.00000000000E+00 0. -1.
        -13    1    3    3    0    0 -0.40480345380E+02 -0.15094324578E+02  0.87302820833E+02  0.97407800108E+02  0.00000000000E+00 0.  1.
         22    1    1    2    0    0 -0.76797035237E+01  0.78842375359E+01 -0.22893293796E+02  0.25401613109E+02  0.00000000000E+00 0.  1.
<mgrwt>
<rscale>  0 0.54100418E+02</rscale>
<asrwt>0</asrwt>
<pdfrwt beam="1">  1        1 0.31866013E-01 0.91985661E+02</pdfrwt>
<pdfrwt beam="2">  1       -1 0.52957439E-02 0.91985661E+02</pdfrwt>
<totfact> 0.20216140E+04</totfact>
</mgrwt>
</event>
<event>
 6    1  0.1535970E-002  0.9115530E+02  0.7546771E-02  0.1417998E+00
          2   -1    0    0  501    0  0.00000000000E+00  0.00000000000E+00  0.54443865810E+03  0.54443865810E+03  0.00000000000E+00 0.  1.
         -2   -1    0    0    0  501 -0.00000000000E+00 -0.00000000000E+00 -0.49328069409E+01  0.49328069409E+01  0.00000000000E+00 0. -1.
         23    2    1    2    0    0 -0.37630776421E-01  0.12478257228E+02  0.47176030929E+03  0.48048629419E+03  0.90297182497E+02 0.  0.
         13    1    3    3    0    0  0.21833567272E+01 -0.70074409682E+01  0.45390366466E+03  0.45396300297E+03  0.00000000000E+00 0.  1.
        -13    1    3    3    0    0 -0.22209875036E+01  0.19485698196E+02  0.17856644624E+02  0.26523291216E+02  0.00000000000E+00 0. -1.
         22    1    1    2    0    0  0.37630776421E-01 -0.12478257228E+02  0.67745541870E+02  0.68885170849E+02  0.00000000000E+00 0. -1.
<mgrwt>
<rscale>  0 0.55446666E+02</rscale>
<asrwt>0</asrwt>
<pdfrwt beam="1">  1        2 0.83759746E-01 0.91155304E+02</pdfrwt>
<pdfrwt beam="2">  1       -2 0.75889380E-03 0.91155304E+02</pdfrwt>
<totfact> 0.15434891E+05</totfact>
</mgrwt>
</event>
<event>
 6    1  0.1535970E-002  0.1018160E+03  0.7546771E-02  0.1330476E+00
          1   -1    0    0  501    0  0.00000000000E+00  0.00000000000E+00  0.44639292744E+02  0.44639292744E+02  0.00000000000E+00 0. -1.
         -1   -1    0    0    0  501 -0.00000000000E+00 -0.00000000000E+00 -0.13176895088E+03  0.13176895088E+03  0.00000000000E+00 0.  1.
         23    2    1    2    0    0 -0.17900569739E+01  0.37803787454E+02 -0.26958610453E+02  0.10532459129E+03  0.94520750119E+02 0.  0.
         11    1    3    3    0    0  0.18727850417E+02 -0.27403079261E+02 -0.12405652380E+02  0.35433901072E+02  0.00000000000E+00 0.  1.
        -11    1    3    3    0    0 -0.20517907390E+02  0.65206866715E+02 -0.14552958073E+02  0.69890690218E+02  0.00000000000E+00 0. -1.
         22    1    1    2    0    0  0.17900569739E+01 -0.37803787454E+02 -0.60171047681E+02  0.71083652332E+02  0.00000000000E+00 0.  1.
<mgrwt>
<rscale>  0 0.79500070E+02</rscale>
<asrwt>0</asrwt>
<pdfrwt beam="1">  1        1 0.68675836E-02 0.10181602E+03</pdfrwt>
<pdfrwt beam="2">  1       -1 0.20272146E-01 0.10181602E+03</pdfrwt>
<totfact> 0.18989803E+04</totfact>
</mgrwt>
</event>
<event>
 6    1  0.1535970E-002  0.1025884E+03  0.7546771E-02  0.1316680E+00
         -2   -1    0    0    0  501 -0.00000000000E+00  0.00000000000E+00  0.59261320267E+01  0.59261320267E+01  0.00000000000E+00 0.  1.
          2   -1    0    0  501    0  0.00000000000E+00 -0.00000000000E+00 -0.14611673334E+04  0.14611673334E+04  0.00000000000E+00 0. -1.
         23    2    1    2    0    0  0.10793024830E+02  0.46027889885E+02 -0.13170450878E+04  0.13210344984E+04  0.91045739767E+02 0.  0.
         11    1    3    3    0    0  0.28162504344E+02 -0.16891764954E+00 -0.97905642576E+03  0.97946140302E+03  0.00000000000E+00 0. -1.
        -11    1    3    3    0    0 -0.17369479515E+02  0.46196807534E+02 -0.33798866204E+03  0.34157309541E+03  0.00000000000E+00 0.  1.
         22    1    1    2    0    0 -0.10793024830E+02 -0.46027889885E+02 -0.13819611362E+03  0.14605896704E+03  0.00000000000E+00 0. -1.
<mgrwt>
<rscale>  0 0.84524924E+02</rscale>
<asrwt>0</asrwt>
<pdfrwt beam="1">  1        2 0.22479490E+00 0.10258841E+03</pdfrwt>
<pdfrwt beam="2">  1       -2 0.91171292E-03 0.10258841E+03</pdfrwt>
<totfact> 0.32641680E+04</totfact>
</mgrwt>
</event>
<event>
 6    1  0.1535970E-002  0.9543945E+02  0.7546771E-02  0.1359440E+00
         -2   -1    0    0    0  501 -0.00000000000E+00  0.00000000000E+00  0.86984676163E+01  0.86984676163E+01  0.00000000000E+00 0.  1.
          2   -1    0    0  501    0  0.00000000000E+00 -0.00000000000E+00 -0.67800891823E+03  0.67800891823E+03  0.00000000000E+00 0. -1.
         23    2    1    2    0    0  0.21185981697E+02 -0.18190420922E+02 -0.63653293814E+03  0.64364809466E+03  0.91263087743E+02 0.  0.
         11    1    3    3    0    0 -0.38881536706E+01 -0.21698161720E+02 -0.59208363413E+03  0.59249384618E+03  0.00000000000E+00 0. -1.
        -11    1    3    3    0    0  0.25074135367E+02  0.35077407983E+01 -0.44449304015E+02  0.51154248478E+02  0.00000000000E+00 0.  1.
         22    1    1    2    0    0 -0.21185981697E+02  0.18190420922E+02 -0.32777512473E+02  0.43059291189E+02  0.00000000000E+00 0.  1.
<mgrwt>
<rscale>  0 0.70192301E+02</rscale>
<asrwt>0</asrwt>
<pdfrwt beam="1">  1        2 0.10430913E+00 0.95439449E+02</pdfrwt>
<pdfrwt beam="2">  1       -2 0.13382250E-02 0.95439449E+02</pdfrwt>
<totfact> 0.54327577E+04</totfact>
</mgrwt>
</event>
<event>
 6    1  0.1535970E-002  0.9612195E+02  0.7546771E-02  0.1365676E+00
          2   -1    0    0  501    0  0.00000000000E+00  0.00000000000E+00  0.28756788444E+02  0.28756788444E+02  0.00000000000E+00 0. -1.
         -2   -1    0    0    0  501 -0.00000000000E+00 -0.00000000000E+00 -0.12691892958E+03  0.12691892958E+03  0.00000000000E+00 0.  1.
         23    2    1    2    0    0 -0.24596029023E+02  0.11683221897E+01 -0.75805935454E+02  0.12241719201E+03  0.92914473726E+02 0.  0.
         11    1    3    3    0    0 -0.31994840671E+02 -0.60788335432E+01  0.11470674264E+02  0.34528226350E+02  0.00000000000E+00 0. -1.
        -11    1    3    3    0    0  0.73988116481E+01  0.72471557329E+01 -0.87276609718E+02  0.87888965655E+02  0.00000000000E+00 0.  1.
         22    1    1    2    0    0  0.24596029023E+02 -0.11683221897E+01 -0.22356205678E+02  0.33258526016E+02  0.00000000000E+00 0.  1.
<mgrwt>
<rscale>  0 0.68384161E+02</rscale>
<asrwt>0</asrwt>
<pdfrwt beam="1">  1        2 0.44241214E-02 0.96121949E+02</pdfrwt>
<pdfrwt beam="2">  1       -2 0.19525989E-01 0.96121949E+02</pdfrwt>
<totfact> 0.35448464E+04</totfact>
</mgrwt>
</event>
<event>
 6    1  0.1535970E-002  0.9188586E+02  0.7546771E-02  0.1406023E+00
         -2   -1    0    0    0  501 -0.00000000000E+00  0.00000000000E+00  0.88618584394E+01  0.88618584394E+01  0.00000000000E+00 0.  1.
          2   -1    0    0  501    0  0.00000000000E+00 -0.00000000000E+00 -0.33608485786E+03  0.33608485786E+03  0.00000000000E+00 0. -1.
         23    2    1    2    0    0  0.14527010138E+02  0.21031179544E+01 -0.30297451267E+03  0.31660158906E+03  0.90705863853E+02 0.  0.
         13    1    3    3    0    0  0.52613719713E+02  0.26484743882E+01 -0.19952188407E+03  0.20635939557E+03  0.00000000000E+00 0.  1.
        -13    1    3    3    0    0 -0.38086709575E+02 -0.54535643387E+00 -0.10345262860E+03  0.11024219348E+03  0.00000000000E+00 0. -1.
         22    1    1    2    0    0 -0.14527010138E+02 -0.21031179544E+01 -0.24248486752E+02  0.28345127243E+02  0.00000000000E+00 0. -1.
<mgrwt>
<rscale>  0 0.58090701E+02</rscale>
<asrwt>0</asrwt>
<pdfrwt beam="1">  1        2 0.51705363E-01 0.91885858E+02</pdfrwt>
<pdfrwt beam="2">  1       -2 0.13633628E-02 0.91885858E+02</pdfrwt>
<totfact> 0.11259352E+05</totfact>
</mgrwt>
</event>
<event>
 6    1  0.1535970E-002  0.9219327E+02  0.7546771E-02  0.1397175E+00
         -4   -1    0    0    0  501 -0.00000000000E+00  0.00000000000E+00  0.15590900617E+03  0.15590900617E+03  0.00000000000E+00 0.  1.
          4   -1    0    0  501    0  0.00000000000E+00 -0.00000000000E+00 -0.31842130195E+02  0.31842130195E+02  0.00000000000E+00 0. -1.
         23    2    1    2    0    0  0.16237139489E+02  0.39572230300E+01  0.37404784522E+02  0.99492298803E+02  0.90665844193E+02 0.  0.
         13    1    3    3    0    0 -0.15440965496E+01  0.45663427457E+02  0.26656825225E+02  0.52897251085E+02  0.00000000000E+00 0.  1.
        -13    1    3    3    0    0  0.17781236038E+02 -0.41706204427E+02  0.10747959297E+02  0.46595047718E+02  0.00000000000E+00 0. -1.
         22    1    1    2    0    0 -0.16237139489E+02 -0.39572230300E+01  0.86662091448E+02  0.88258837557E+02  0.00000000000E+00 0. -1.
<mgrwt>
<rscale>  0 0.60156718E+02</rscale>
<asrwt>0</asrwt>
<pdfrwt beam="1">  1        4 0.48987893E-02 0.92193273E+02</pdfrwt>
<pdfrwt beam="2">  1       -4 0.23986001E-01 0.92193273E+02</pdfrwt>
<totfact> 0.58751571E+03</totfact>
</mgrwt>
</event>
<event>
 6    1  0.1535970E-002  0.8958698E+02  0.7546771E-02  0.1408816E+00
          2   -1    0    0  501    0  0.00000000000E+00  0.00000000000E+00  0.37436144872E+02  0.37436144872E+02  0.00000000000E+00 0. -1.
         -2   -1    0    0    0  501 -0.00000000000E+00 -0.00000000000E+00 -0.74509925011E+02  0.74509925011E+02  0.00000000000E+00 0.  1.
         23    2    1    2    0    0 -0.54411227545E+01  0.14149818018E+02 -0.26367181540E+02  0.93386586584E+02  0.88294977913E+02 0.  0.
         11    1    3    3    0    0 -0.11028786680E+02 -0.18100931569E+02  0.24813827323E+02  0.32634397279E+02  0.00000000000E+00 0. -1.
        -11    1    3    3    0    0  0.55876639257E+01  0.32250749588E+02 -0.51181008863E+02  0.60752189305E+02  0.00000000000E+00 0.  1.
         22    1    1    2    0    0  0.54411227545E+01 -0.14149818018E+02 -0.10706598599E+02  0.18559483299E+02  0.00000000000E+00 0.  1.
<mgrwt>
<rscale>  0 0.57458976E+02</rscale>
<asrwt>0</asrwt>
<pdfrwt beam="1">  1        2 0.57594070E-02 0.89586976E+02</pdfrwt>
<pdfrwt beam="2">  1       -2 0.11463065E-01 0.89586976E+02</pdfrwt>
<totfact> 0.59192433E+04</totfact>
</mgrwt>
</event>
<event>
 6    1  0.1535970E-002  0.9214945E+02  0.7546771E-02  0.1389896E+00
          2   -1    0    0  501    0  0.00000000000E+00  0.00000000000E+00  0.74412909871E+02  0.74412909871E+02  0.00000000000E+00 0. -1.
         -2   -1    0    0    0  501 -0.00000000000E+00 -0.00000000000E+00 -0.42334712915E+02  0.42334712915E+02  0.00000000000E+00 0.  1.
         23    2    1    2    0    0  0.55575587666E+01 -0.17961533945E+02  0.33110950602E+02  0.97917600450E+02  0.90210965337E+02 0.  0.
         13    1    3    3    0    0  0.26820226789E+02 -0.19290195036E+02  0.57016736146E+02  0.65896467206E+02  0.00000000000E+00 0. -1.
        -13    1    3    3    0    0 -0.21262668022E+02  0.13286610902E+01 -0.23905785544E+02  0.32021133243E+02  0.00000000000E+00 0.  1.
         22    1    1    2    0    0 -0.55575587666E+01  0.17961533945E+02 -0.10327536462E+01  0.18830022337E+02  0.00000000000E+00 0. -1.
<mgrwt>
<rscale>  0 0.61932517E+02</rscale>
<asrwt>0</asrwt>
<pdfrwt beam="1">  1        2 0.11448140E-01 0.92149452E+02</pdfrwt>
<pdfrwt beam="2">  1       -2 0.65130328E-02 0.92149452E+02</pdfrwt>
<totfact> 0.60624717E+04</totfact>
</mgrwt>
</event>
<event>
 6    1  0.1535970E-002  0.9083861E+02  0.7546771E-02  0.1424408E+00
          2   -1    0    0  501    0  0.00000000000E+00  0.00000000000E+00  0.51667963903E+01  0.51667963903E+01  0.00000000000E+00 0. -1.
         -2   -1    0    0    0  501 -0.00000000000E+00 -0.00000000000E+00 -0.50748510685E+03  0.50748510685E+03  0.00000000000E+00 0.  1.
         23    2    1    2    0    0  0.92373295583E+00  0.11390044102E+02 -0.43698295630E+03  0.44632472261E+03  0.90116965821E+02 0.  0.
         11    1    3    3    0    0  0.12762638046E+02 -0.82678265572E+01 -0.88848010023E+01  0.17611972482E+02  0.00000000000E+00 0. -1.
        -11    1    3    3    0    0 -0.11838905090E+02  0.19657870659E+02 -0.42809815530E+03  0.42871275013E+03  0.00000000000E+00 0.  1.
         22    1    1    2    0    0 -0.92373295583E+00 -0.11390044102E+02 -0.65335354161E+02  0.66327180632E+02  0.00000000000E+00 0. -1.
<mgrwt>
<rscale>  0 0.54099109E+02</rscale>
<asrwt>0</asrwt>
<pdfrwt beam="1">  1        2 0.79489145E-03 0.90838615E+02</pdfrwt>
<pdfrwt beam="2">  1       -2 0.78074662E-01 0.90838615E+02</pdfrwt>
<totfact> 0.26058513E+04</totfact>
</mgrwt>
</event>
<event>
 6    1  0.1535970E-002  0.9953495E+02  0.7546771E-02  0.1349141E+00
         -1   -1    0    0    0  501 -0.00000000000E+00  0.00000000000E+00  0.61730485723E+02  0.61730485723E+02  0.00000000000E+00 0.  1.
          1   -1    0    0  501    0  0.00000000000E+00 -0.00000000000E+00 -0.87118420111E+02  0.87118420111E+02  0.00000000000E+00 0. -1.
         23    2    1    2    0    0  0.13022989598E+01  0.29283891212E+02 -0.49248644910E+02  0.11105240105E+03  0.95120788931E+02 0.  0.
         13    1    3    3    0    0  0.26718649986E+02  0.53787104717E+02 -0.15082415360E+02  0.61922678753E+02  0.00000000000E+00 0.  1.
        -13    1    3    3    0    0 -0.25416351026E+02 -0.24503213505E+02 -0.34166229550E+02  0.49129722299E+02  0.00000000000E+00 0. -1.
         22    1    1    2    0    0 -0.13022989598E+01 -0.29283891212E+02  0.23860710522E+02  0.37796504782E+02  0.00000000000E+00 0.  1.
<mgrwt>
<rscale>  0 0.73324003E+02</rscale>
<asrwt>0</asrwt>
<pdfrwt beam="1">  1        1 0.13402834E-01 0.99534952E+02</pdfrwt>
<pdfrwt beam="2">  1       -1 0.94969978E-02 0.99534952E+02</pdfrwt>
<totfact> 0.25404835E+04</totfact>
</mgrwt>
</event>
<event>
 6    1  0.1535970E-002  0.9181495E+02  0.7546771E-02  0.1428208E+00
          2   -1    0    0  501    0  0.00000000000E+00  0.00000000000E+00  0.12336340147E+04  0.12336340147E+04  0.00000000000E+00 0. -1.
         -2   -1    0    0    0  501 -0.00000000000E+00 -0.00000000000E+00 -0.29448312349E+01  0.29448312349E+01  0.00000000000E+00 0.  1.
         23    2    1    2    0    0  0.85763392956E+01 -0.59600456988E+01  0.12092550664E+04  0.12127356684E+04  0.91219022399E+02 0.  0.
         13    1    3    3    0    0  0.35320194239E+02 -0.19546505848E+02  0.26993821733E+03  0.27293996261E+03  0.00000000000E+00 0.  1.
        -13    1    3    3    0    0 -0.26743854943E+02  0.13586460149E+02  0.93931684911E+03  0.93979570583E+03  0.00000000000E+00 0. -1.
         22    1    1    2    0    0 -0.85763392956E+01  0.59600456988E+01  0.21434117001E+02  0.23843177474E+02  0.00000000000E+00 0. -1.
<mgrwt>
<rscale>  0 0.53321344E+02</rscale>
<asrwt>0</asrwt>
<pdfrwt beam="1">  1        2 0.18978944E+00 0.91814954E+02</pdfrwt>
<pdfrwt beam="2">  1       -2 0.45305194E-03 0.91814954E+02</pdfrwt>
<totfact> 0.11382646E+05</totfact>
</mgrwt>
</event>
<event>
 6    1  0.1535970E-002  0.9318712E+02  0.7546771E-02  0.1415842E+00
          2   -1    0    0  501    0  0.00000000000E+00  0.00000000000E+00  0.37755892888E+03  0.37755892888E+03  0.00000000000E+00 0. -1.
         -2   -1    0    0    0  501 -0.00000000000E+00 -0.00000000000E+00 -0.90489040992E+01  0.90489040992E+01  0.00000000000E+00 0.  1.
         23    2    1    2    0    0 -0.75630114359E+01  0.94136806716E+01  0.35992219290E+03  0.37179002673E+03  0.92401420481E+02 0.  0.
         13    1    3    3    0    0  0.37304935381E+02  0.60088696662E+01  0.25269097353E+03  0.25550047519E+03  0.00000000000E+00 0. -1.
        -13    1    3    3    0    0 -0.44867946817E+02  0.34048110054E+01  0.10723121937E+03  0.11628955154E+03  0.00000000000E+00 0.  1.
         22    1    1    2    0    0  0.75630114359E+01 -0.94136806716E+01  0.85878318879E+01  0.14817806258E+02  0.00000000000E+00 0.  1.
<mgrwt>
<rscale>  0 0.55910420E+02</rscale>
<asrwt>0</asrwt>
<pdfrwt beam="1">  1        2 0.58085977E-01 0.93187118E+02</pdfrwt>
<pdfrwt beam="2">  1       -2 0.13921394E-02 0.93187118E+02</pdfrwt>
<totfact> 0.96939205E+04</totfact>
</mgrwt>
</event>
<event>
 6    1  0.1535970E-002  0.9466359E+02  0.7546771E-02  0.1392861E+00
         -2   -1    0    0    0  501 -0.00000000000E+00  0.00000000000E+00  0.12363251677E+02  0.12363251677E+02  0.00000000000E+00 0.  1.
          2   -1    0    0  501    0  0.00000000000E+00 -0.00000000000E+00 -0.38315970227E+03  0.38315970227E+03  0.00000000000E+00 0. -1.
         23    2    1    2    0    0  0.16326964181E+02  0.26327525979E+01 -0.36637115168E+03  0.37840324554E+03  0.93207801721E+02 0.  0.
         11    1    3    3    0    0  0.12651520963E+02 -0.16447856864E+02 -0.35556351487E+03  0.35616850799E+03  0.00000000000E+00 0. -1.
        -11    1    3    3    0    0  0.36754432172E+01  0.19080609462E+02 -0.10807636816E+02  0.22234737548E+02  0.00000000000E+00 0.  1.
         22    1    1    2    0    0 -0.16326964181E+02 -0.26327525979E+01 -0.44252989093E+01  0.17119708410E+02  0.00000000000E+00 0.  1.
<mgrwt>
<rscale>  0 0.61200804E+02</rscale>
<asrwt>0</asrwt>
<pdfrwt beam="1">  1        2 0.58947659E-01 0.94663591E+02</pdfrwt>
<pdfrwt beam="2">  1       -2 0.19020383E-02 0.94663591E+02</pdfrwt>
<totfact> 0.61211842E+04</totfact>
</mgrwt>
</event>
<event>
 6    1  0.1535970E-002  0.8824210E+02  0.7546771E-02  0.1373999E+00
          1   -1    0    0  501    0  0.00000000000E+00  0.00000000000E+00  0.52012481909E+03  0.52012481909E+03  0.00000000000E+00 0. -1.
         -1   -1    0    0    0  501 -0.00000000000E+00 -0.00000000000E+00 -0.65554206581E+01  0.65554206581E+01  0.00000000000E+00 0.  1.
         23    2    1    2    0    0 -0.15609668749E+02  0.22917960528E+02  0.41544674092E+03  0.42471480153E+03  0.83772151858E+02 0.  0.
         11    1    3    3    0    0 -0.29290942729E+02 -0.20973864918E+02  0.26390646827E+03  0.26635406197E+03  0.00000000000E+00 0. -1.
        -11    1    3    3    0    0  0.13681273980E+02  0.43891825446E+02  0.15154027265E+03  0.15836073956E+03  0.00000000000E+00 0.  1.
         22    1    1    2    0    0  0.15609668749E+02 -0.22917960528E+02  0.98122657511E+02  0.10196543821E+03  0.00000000000E+00 0.  1.
<mgrwt>
<rscale>  0 0.66067859E+02</rscale>
<asrwt>0</asrwt>
<pdfrwt beam="1">  1        1 0.80019170E-01 0.88242099E+02</pdfrwt>
<pdfrwt beam="2">  1       -1 0.10085267E-02 0.88242099E+02</pdfrwt>
<totfact> 0.69415618E+04</totfact>
</mgrwt>
</event>
<event>
 6    1  0.1535970E-002  0.9780282E+02  0.7546771E-02  0.1341507E+00
         -2   -1    0    0    0  501 -0.00000000000E+00  0.00000000000E+00  0.42042793171E+02  0.42042793171E+02  0.00000000000E+00 0. -1.
          2   -1    0    0  501    0  0.00000000000E+00 -0.00000000000E+00 -0.18862888611E+03  0.18862888611E+03  0.00000000000E+00 0.  1.
         23    2    1    2    0    0 -0.29000374394E+02 -0.20002738822E+02 -0.16432513826E+03  0.19122798519E+03  0.91237382583E+02 0.  0.
         11    1    3    3    0    0 -0.18594444139E+02 -0.52219969331E+02 -0.60651105548E+02  0.82165900189E+02  0.00000000000E+00 0. -1.
        -11    1    3    3    0    0 -0.10405930254E+02  0.32217230509E+02 -0.10367403271E+03  0.10906208500E+03  0.00000000000E+00 0.  1.
         22    1    1    2    0    0  0.29000374394E+02  0.20002738822E+02  0.17739045315E+02  0.39443694097E+02  0.00000000000E+00 0.  1.
<mgrwt>
<rscale>  0 0.75768858E+02</rscale>
<asrwt>0</asrwt>
<pdfrwt beam="1">  1        2 0.29019828E-01 0.97802818E+02</pdfrwt>
<pdfrwt beam="2">  1       -2 0.64681221E-02 0.97802818E+02</pdfrwt>
<totfact> 0.21528109E+04</totfact>
</mgrwt>
</event>
<event>
 6    1  0.1535970E-002  0.1039983E+03  0.7546771E-02  0.1313352E+00
         -3   -1    0    0    0  501 -0.00000000000E+00  0.00000000000E+00  0.15257749274E+03  0.15257749274E+03  0.00000000000E+00 0.  1.
          3   -1    0    0  501    0  0.00000000000E+00 -0.00000000000E+00 -0.40691359959E+02  0.40691359959E+02  0.00000000000E+00 0. -1.
         23    2    1    2    0    0 -0.41412161328E+02 -0.24627261663E+02  0.51603663601E+02  0.11609732159E+03  0.92163880458E+02 0.  0.
         11    1    3    3    0    0 -0.16651738201E+02 -0.36508012217E+02 -0.15945757694E+02  0.43178496148E+02  0.00000000000E+00 0. -1.
        -11    1    3    3    0    0 -0.24760423127E+02  0.11880750554E+02  0.67549421294E+02  0.72918825445E+02  0.00000000000E+00 0.  1.
         22    1    1    2    0    0  0.41412161328E+02  0.24627261663E+02  0.60282469184E+02  0.77171531110E+02  0.00000000000E+00 0.  1.
<mgrwt>
<rscale>  0 0.85800555E+02</rscale>
<asrwt>0</asrwt>
<pdfrwt beam="1">  1        3 0.62602093E-02 0.10399832E+03</pdfrwt>
<pdfrwt beam="2">  1       -3 0.23473460E-01 0.10399832E+03</pdfrwt>
<totfact> 0.57560257E+03</totfact>
</mgrwt>
</event>
<event>
 6    1  0.1535970E-002  0.8923826E+02  0.7546771E-02  0.1421668E+00
          1   -1    0    0  501    0  0.00000000000E+00  0.00000000000E+00  0.25264360236E+03  0.25264360236E+03  0.00000000000E+00 0. -1.
         -1   -1    0    0    0  501 -0.00000000000E+00 -0.00000000000E+00 -0.14153665385E+02  0.14153665385E+02  0.00000000000E+00 0.  1.
         23    2    1    2    0    0 -0.60283660095E+01 -0.11029917296E+02  0.23804217506E+03  0.25421947926E+03  0.88348549838E+02 0.  0.
         13    1    3    3    0    0  0.75124827928E+01  0.23789347141E+02  0.17349804951E+02  0.30387269817E+02  0.00000000000E+00 0.  1.
        -13    1    3    3    0    0 -0.13540848802E+02 -0.34819264438E+02  0.22069237011E+03  0.22383220945E+03  0.00000000000E+00 0. -1.
         22    1    1    2    0    0  0.60283660095E+01  0.11029917296E+02  0.44776191536E+00  0.12577788480E+02  0.00000000000E+00 0.  1.
<mgrwt>
<rscale>  0 0.54669555E+02</rscale>
<asrwt>0</asrwt>
<pdfrwt beam="1">  1        1 0.38868243E-01 0.89238257E+02</pdfrwt>
<pdfrwt beam="2">  1       -1 0.21774872E-02 0.89238257E+02</pdfrwt>
<totfact> 0.57109616E+04</totfact>
</mgrwt>
</event>
<event>
 6    1  0.1535970E-002  0.9369834E+02  0.7546771E-02  0.1386446E+00
          2   -1    0    0  501    0  0.00000000000E+00  0.00000000000E+00  0.66831765169E+02  0.66831765169E+02  0.00000000000E+00 0. -1.
         -2   -1    0    0    0  501 -0.00000000000E+00 -0.00000000000E+00 -0.49711982952E+02  0.49711982952E+02  0.00000000000E+00 0.  1.
         23    2    1    2    0    0  0.22693801092E+01 -0.18770512849E+02  0.23479915081E+02  0.96595476800E+02  0.91770896733E+02 0.  0.
         11    1    3    3    0    0  0.23770587833E+02  0.22387359379E+02  0.35898689549E+02  0.48527833429E+02  0.00000000000E+00 0. -1.
        -11    1    3    3    0    0 -0.21501207724E+02 -0.41157872228E+02 -0.12418774469E+02  0.48067643371E+02  0.00000000000E+00 0.  1.
         22    1    1    2    0    0 -0.22693801092E+01  0.18770512849E+02 -0.63601328635E+01  0.19948271322E+02  0.00000000000E+00 0. -1.
<mgrwt>
<rscale>  0 0.62799436E+02</rscale>
<asrwt>0</asrwt>
<pdfrwt beam="1">  1        2 0.10281810E-01 0.93698344E+02</pdfrwt>
<pdfrwt beam="2">  1       -2 0.76479974E-02 0.93698344E+02</pdfrwt>
<totfact> 0.54195265E+04</totfact>
</mgrwt>
</event>
<event>
 6    1  0.1535970E-002  0.9402506E+02  0.7546771E-02  0.1376728E+00
          3   -1    0    0  501    0  0.00000000000E+00  0.00000000000E+00  0.10338380910E+02  0.10338380910E+02  0.00000000000E+00 0. -1.
         -3   -1    0    0    0  501 -0.00000000000E+00 -0.00000000000E+00 -0.33836687027E+03  0.33836687027E+03  0.00000000000E+00 0.  1.
         23    2    1    2    0    0 -0.19931424719E+02 -0.91141093441E+01 -0.23460231988E+03  0.25274287405E+03  0.91435131162E+02 0.  0.
         11    1    3    3    0    0 -0.11989846673E+02  0.35579204098E+02 -0.16798802864E+03  0.17213254763E+03  0.00000000000E+00 0.  1.
        -11    1    3    3    0    0 -0.79415780457E+01 -0.44693313442E+02 -0.66614291238E+02  0.80610326419E+02  0.00000000000E+00 0. -1.
         22    1    1    2    0    0  0.19931424719E+02  0.91141093441E+01 -0.93426169479E+02  0.95962377127E+02  0.00000000000E+00 0.  1.
<mgrwt>
<rscale>  0 0.65331861E+02</rscale>
<asrwt>0</asrwt>
<pdfrwt beam="1">  1        3 0.15905202E-02 0.94025060E+02</pdfrwt>
<pdfrwt beam="2">  1       -3 0.52056441E-01 0.94025060E+02</pdfrwt>
<totfact> 0.10393409E+04</totfact>
</mgrwt>
</event>
<event>
 6    1  0.1535970E-002  0.1116655E+03  0.7546771E-02  0.1276603E+00
         -1   -1    0    0    0  501 -0.00000000000E+00  0.00000000000E+00  0.61386322604E+01  0.61386322604E+01  0.00000000000E+00 0.  1.
          1   -1    0    0  501    0  0.00000000000E+00 -0.00000000000E+00 -0.20559881536E+04  0.20559881536E+04  0.00000000000E+00 0. -1.
         23    2    1    2    0    0 -0.69668056107E+02  0.32936660066E+02 -0.17103438313E+04  0.17139851836E+04  0.80812912941E+02 0.  0.
         13    1    3    3    0    0 -0.60243556571E+02  0.58100275228E+02 -0.11828007319E+04  0.11857581961E+04  0.00000000000E+00 0. -1.
        -13    1    3    3    0    0 -0.94244995361E+01 -0.25163615162E+02 -0.52754309934E+03  0.52822698756E+03  0.00000000000E+00 0.  1.
         22    1    1    2    0    0  0.69668056107E+02 -0.32936660066E+02 -0.33950569003E+03  0.34814160220E+03  0.00000000000E+00 0.  1.
<mgrwt>
<rscale>  0 0.10177675E+03</rscale>
<asrwt>0</asrwt>
<pdfrwt beam="1">  1        1 0.31630636E+00 0.11166552E+03</pdfrwt>
<pdfrwt beam="2">  1       -1 0.94440349E-03 0.11166552E+03</pdfrwt>
<totfact> 0.62122950E+03</totfact>
</mgrwt>
</event>
<event>
 6    1  0.1535970E-002  0.1342088E+03  0.7546771E-02  0.1234621E+00
          2   -1    0    0  501    0  0.00000000000E+00  0.00000000000E+00  0.20813714881E+04  0.20813714881E+04  0.00000000000E+00 0. -1.
         -2   -1    0    0    0  501 -0.00000000000E+00 -0.00000000000E+00 -0.98805523535E+01  0.98805523535E+01  0.00000000000E+00 0.  1.
         23    2    1    2    0    0 -0.10175991019E+03  0.58047505767E+01  0.17214472124E+04  0.17266709347E+04  0.87311150798E+02 0.  0.
         11    1    3    3    0    0 -0.15050873248E+02 -0.14849414136E+00  0.36473378796E+02  0.39457042424E+02  0.00000000000E+00 0.  1.
        -11    1    3    3    0    0 -0.86709036943E+02  0.59532447180E+01  0.16849738336E+04  0.16872138922E+04  0.00000000000E+00 0. -1.
         22    1    1    2    0    0  0.10175991019E+03 -0.58047505767E+01  0.35004372337E+03  0.36458110582E+03  0.00000000000E+00 0.  1.
<mgrwt>
<rscale>  0 0.12528710E+03</rscale>
<asrwt>0</asrwt>
<pdfrwt beam="1">  1        2 0.32021065E+00 0.13420884E+03</pdfrwt>
<pdfrwt beam="2">  1       -2 0.15200866E-02 0.13420884E+03</pdfrwt>
<totfact> 0.76926559E+03</totfact>
</mgrwt>
</event>
<event>
 6    1  0.1535970E-002  0.1014987E+03  0.7546771E-02  0.1321620E+00
          2   -1    0    0  501    0  0.00000000000E+00  0.00000000000E+00  0.29284963728E+02  0.29284963728E+02  0.00000000000E+00 0. -1.
         -2   -1    0    0    0  501 -0.00000000000E+00 -0.00000000000E+00 -0.25387643022E+03  0.25387643022E+03  0.00000000000E+00 0.  1.
         23    2    1    2    0    0  0.26089718329E+02 -0.36279168294E+02 -0.72742314228E+02  0.12487362911E+03  0.91132472329E+02 0.  0.
         11    1    3    3    0    0  0.15666088315E+02 -0.70602870143E+00 -0.84532591361E+02  0.85974902162E+02  0.00000000000E+00 0.  1.
        -11    1    3    3    0    0  0.10423630014E+02 -0.35573139592E+02  0.11790277133E+02  0.38898726946E+02  0.00000000000E+00 0. -1.
         22    1    1    2    0    0 -0.26089718329E+02  0.36279168294E+02 -0.15184915227E+03  0.15828776484E+03  0.00000000000E+00 0.  1.
<mgrwt>
<rscale>  0 0.82677715E+02</rscale>
<asrwt>0</asrwt>
<pdfrwt beam="1">  1        2 0.45053790E-02 0.10149866E+03</pdfrwt>
<pdfrwt beam="2">  1       -2 0.39057912E-01 0.10149866E+03</pdfrwt>
<totfact> 0.10248496E+04</totfact>
</mgrwt>
</event>
<event>
 6    1  0.1535970E-002  0.9197431E+02  0.7546771E-02  0.1415497E+00
          2   -1    0    0  501    0  0.00000000000E+00  0.00000000000E+00  0.10882074347E+04  0.10882074347E+04  0.00000000000E+00 0. -1.
         -2   -1    0    0    0  501 -0.00000000000E+00 -0.00000000000E+00 -0.27696137070E+01  0.27696137070E+01  0.00000000000E+00 0.  1.
         23    2    1    2    0    0  0.11859635975E+02 -0.43335988215E+01  0.10309880456E+04  0.10350824236E+04  0.91103470771E+02 0.  0.
         13    1    3    3    0    0  0.48086983867E+02  0.57313811270E+01  0.39044419457E+03  0.39343598694E+03  0.00000000000E+00 0.  1.
        -13    1    3    3    0    0 -0.36227347892E+02 -0.10064979949E+02  0.64054385105E+03  0.64164643666E+03  0.00000000000E+00 0. -1.
         22    1    1    2    0    0 -0.11859635975E+02  0.43335988215E+01  0.54449775326E+02  0.55894624762E+02  0.00000000000E+00 0.  1.
<mgrwt>
<rscale>  0 0.55984978E+02</rscale>
<asrwt>0</asrwt>
<pdfrwt beam="1">  1        2 0.16741619E+00 0.91974309E+02</pdfrwt>
<pdfrwt beam="2">  1       -2 0.42609528E-03 0.91974309E+02</pdfrwt>
<totfact> 0.14916560E+05</totfact>
</mgrwt>
</event>
<event>
 6    1  0.1535970E-002  0.9185690E+02  0.7546771E-02  0.1427304E+00
          1   -1    0    0  501    0  0.00000000000E+00  0.00000000000E+00  0.87387643508E+03  0.87387643508E+03  0.00000000000E+00 0. -1.
         -1   -1    0    0    0  501 -0.00000000000E+00 -0.00000000000E+00 -0.34464457966E+01  0.34464457966E+01  0.00000000000E+00 0.  1.
         23    2    1    2    0    0  0.25509313072E+01 -0.10261746925E+02  0.84190214825E+03  0.84689841022E+03  0.91246256420E+02 0.  0.
         11    1    3    3    0    0 -0.10853976223E+02 -0.17351387434E+02  0.82002035927E+03  0.82027572746E+03  0.00000000000E+00 0. -1.
        -11    1    3    3    0    0  0.13404907531E+02  0.70896405085E+01  0.21881788978E+02  0.26622682760E+02  0.00000000000E+00 0.  1.
         22    1    1    2    0    0 -0.25509313072E+01  0.10261746925E+02  0.28527841034E+02  0.30424470654E+02  0.00000000000E+00 0.  1.
<mgrwt>
<rscale>  0 0.53504986E+02</rscale>
<asrwt>0</asrwt>
<pdfrwt beam="1">  1        1 0.13444235E+00 0.91856900E+02</pdfrwt>
<pdfrwt beam="2">  1       -1 0.53022313E-03 0.91856900E+02</pdfrwt>
<totfact> 0.83362033E+04</totfact>
</mgrwt>
</event>
<event>
 6    1  0.1535970E-002  0.9734889E+02  0.7546771E-02  0.1376884E+00
          2   -1    0    0  501    0  0.00000000000E+00  0.00000000000E+00  0.15582419026E+03  0.15582419026E+03  0.00000000000E+00 0. -1.
         -2   -1    0    0    0  501 -0.00000000000E+00 -0.00000000000E+00 -0.26188100453E+02  0.26188100453E+02  0.00000000000E+00 0.  1.
         23    2    1    2    0    0 -0.15333278939E+02 -0.12363215043E+02  0.12988095548E+03  0.16231410581E+03  0.95335448917E+02 0.  0.
         13    1    3    3    0    0 -0.38615221214E+02 -0.42823754655E+02  0.90838157156E+02  0.10759451690E+03  0.00000000000E+00 0. -1.
        -13    1    3    3    0    0  0.23281942274E+02  0.30460539612E+02  0.39042798320E+02  0.54719588907E+02  0.00000000000E+00 0.  1.
         22    1    1    2    0    0  0.15333278939E+02  0.12363215043E+02 -0.24486566945E+00  0.19698184902E+02  0.00000000000E+00 0.  1.
<mgrwt>
<rscale>  0 0.65289962E+02</rscale>
<asrwt>0</asrwt>
<pdfrwt beam="1">  1        2 0.23972952E-01 0.97348890E+02</pdfrwt>
<pdfrwt beam="2">  1       -2 0.40289386E-02 0.97348890E+02</pdfrwt>
<totfact> 0.53616385E+04</totfact>
</mgrwt>
</event>
<event>
 6    1  0.1535970E-002  0.8928067E+02  0.7546771E-02  0.1408872E+00
          2   -1    0    0  501    0  0.00000000000E+00  0.00000000000E+00  0.20855474255E+03  0.20855474255E+03  0.00000000000E+00 0. -1.
         -2   -1    0    0    0  501 -0.00000000000E+00 -0.00000000000E+00 -0.13114585219E+02  0.13114585219E+02  0.00000000000E+00 0.  1.
         23    2    1    2    0    0  0.16539802496E+01  0.15213437839E+02  0.16805081469E+03  0.19029480894E+03  0.87959386362E+02 0.  0.
         13    1    3    3    0    0 -0.38906053469E+02  0.33837573743E+01  0.41996417597E+02  0.57348320825E+02  0.00000000000E+00 0. -1.
        -13    1    3    3    0    0  0.40560033718E+02  0.11829680465E+02  0.12605439709E+03  0.13294648811E+03  0.00000000000E+00 0.  1.
         22    1    1    2    0    0 -0.16539802496E+01 -0.15213437839E+02  0.27389342647E+02  0.31374518836E+02  0.00000000000E+00 0. -1.
<mgrwt>
<rscale>  0 0.57446399E+02</rscale>
<asrwt>0</asrwt>
<pdfrwt beam="1">  1        2 0.32085343E-01 0.89280670E+02</pdfrwt>
<pdfrwt beam="2">  1       -2 0.20176286E-02 0.89280670E+02</pdfrwt>
<totfact> 0.10564064E+05</totfact>
</mgrwt>
</event>
<event>
 6    1  0.1535970E-002  0.9158920E+02  0.7546771E-02  0.1386237E+00
         -2   -1    0    0    0  501 -0.00000000000E+00  0.00000000000E+00  0.47228129736E+02  0.47228129736E+02  0.00000000000E+00 0.  1.
          2   -1    0    0  501    0  0.00000000000E+00 -0.00000000000E+00 -0.10740703154E+03  0.10740703154E+03  0.00000000000E+00 0. -1.
         23    2    1    2    0    0 -0.19638398288E+02  0.51880258848E+01 -0.83338549665E+02  0.12383010344E+03  0.89308445047E+02 0.  0.
         11    1    3    3    0    0 -0.81740016989E+01  0.12984549130E+02  0.16790955589E+02  0.22745307416E+02  0.00000000000E+00 0.  1.
        -11    1    3    3    0    0 -0.11464396589E+02 -0.77965232455E+01 -0.10012950525E+03  0.10108479602E+03  0.00000000000E+00 0. -1.
         22    1    1    2    0    0  0.19638398288E+02 -0.51880258848E+01  0.23159647857E+02  0.30805057844E+02  0.00000000000E+00 0.  1.
<mgrwt>
<rscale>  0 0.62852420E+02</rscale>
<asrwt>0</asrwt>
<pdfrwt beam="1">  1        2 0.16524158E-01 0.91589195E+02</pdfrwt>
<pdfrwt beam="2">  1       -2 0.72658662E-02 0.91589195E+02</pdfrwt>
<totfact> 0.33427611E+04</totfact>
</mgrwt>
</event>
<event>
 6    1  0.1535970E-002  0.8906135E+02  0.7546771E-02  0.1380814E+00
         -1   -1    0    0    0  501 -0.00000000000E+00  0.00000000000E+00  0.19030507754E+03  0.19030507754E+03  0.00000000000E+00 0.  1.
          1   -1    0    0  501    0  0.00000000000E+00 -0.00000000000E+00 -0.17592410461E+02  0.17592410461E+02  0.00000000000E+00 0. -1.
         23    2    1    2    0    0  0.11612408055E+02  0.21143956228E+02  0.11583128832E+03  0.14611232672E+03  0.85732197909E+02 0.  0.
         13    1    3    3    0    0 -0.16032730955E+02 -0.14473408811E+02 -0.23053598538E+00  0.21600490071E+02  0.00000000000E+00 0. -1.
        -13    1    3    3    0    0  0.27645139009E+02  0.35617365038E+02  0.11606182431E+03  0.12451183665E+03  0.00000000000E+00 0.  1.
         22    1    1    2    0    0 -0.11612408055E+02 -0.21143956228E+02  0.56881378751E+02  0.61785161280E+02  0.00000000000E+00 0. -1.
<mgrwt>
<rscale>  0 0.64250188E+02</rscale>
<asrwt>0</asrwt>
<pdfrwt beam="1">  1        1 0.27065248E-02 0.89061353E+02</pdfrwt>
<pdfrwt beam="2">  1       -1 0.29277703E-01 0.89061353E+02</pdfrwt>
<totfact> 0.36394037E+04</totfact>
</mgrwt>
</event>
<event>
 6    1  0.1535970E-002  0.9542355E+02  0.7546771E-02  0.1367056E+00
          2   -1    0    0  501    0  0.00000000000E+00  0.00000000000E+00  0.17084020265E+03  0.17084020265E+03  0.00000000000E+00 0. -1.
         -2   -1    0    0    0  501 -0.00000000000E+00 -0.00000000000E+00 -0.14474549903E+03  0.14474549903E+03  0.00000000000E+00 0.  1.
         23    2    1    2    0    0  0.18151621208E+02  0.16598383795E+02  0.15627330444E+03  0.18310379420E+03  0.92199056782E+02 0.  0.
         13    1    3    3    0    0  0.18959633117E+02  0.58285613060E+01  0.16682778912E+03  0.16800283044E+03  0.00000000000E+00 0. -1.
        -13    1    3    3    0    0 -0.80801190827E+00  0.10769822489E+02 -0.10554484673E+02  0.15100963758E+02  0.00000000000E+00 0.  1.
         22    1    1    2    0    0 -0.18151621208E+02 -0.16598383795E+02 -0.13017860083E+03  0.13248190748E+03  0.00000000000E+00 0.  1.
<mgrwt>
<rscale>  0 0.67992341E+02</rscale>
<asrwt>0</asrwt>
<pdfrwt beam="1">  1        2 0.26283108E-01 0.95423549E+02</pdfrwt>
<pdfrwt beam="2">  1       -2 0.22268538E-01 0.95423549E+02</pdfrwt>
<totfact> 0.33443988E+03</totfact>
</mgrwt>
</event>
<event>
 6    1  0.1535970E-002  0.9435350E+02  0.7546771E-02  0.1389159E+00
          1   -1    0    0  501    0  0.00000000000E+00  0.00000000000E+00  0.10856714168E+04  0.10856714168E+04  0.00000000000E+00 0. -1.
         -1   -1    0    0    0  501 -0.00000000000E+00 -0.00000000000E+00 -0.12141261157E+02  0.12141261157E+02  0.00000000000E+00 0.  1.
         23    2    1    2    0    0  0.17188039755E+02  0.43242797895E+01  0.10758129331E+04  0.10799426142E+04  0.92673916584E+02 0.  0.
         13    1    3    3    0    0  0.90960904901E+01  0.24862506045E+02  0.88309189104E+02  0.92192168590E+02  0.00000000000E+00 0.  1.
        -13    1    3    3    0    0  0.80919492649E+01 -0.20538226256E+02  0.98750374397E+03  0.98775044558E+03  0.00000000000E+00 0. -1.
         22    1    1    2    0    0 -0.17188039755E+02 -0.43242797895E+01 -0.22827774508E+01  0.17870063772E+02  0.00000000000E+00 0.  1.
<mgrwt>
<rscale>  0 0.62116483E+02</rscale>
<asrwt>0</asrwt>
<pdfrwt beam="1">  1        1 0.16702630E+00 0.94353500E+02</pdfrwt>
<pdfrwt beam="2">  1       -1 0.18678872E-02 0.94353500E+02</pdfrwt>
<totfact> 0.98968359E+03</totfact>
</mgrwt>
</event>
<event>
 6    1  0.1535970E-002  0.1010883E+03  0.7546771E-02  0.1400816E+00
         -2   -1    0    0    0  501 -0.00000000000E+00  0.00000000000E+00  0.15050089306E+03  0.15050089306E+03  0.00000000000E+00 0.  1.
          2   -1    0    0  501    0  0.00000000000E+00 -0.00000000000E+00 -0.21769464135E+02  0.21769464135E+02  0.00000000000E+00 0. -1.
         23    2    1    2    0    0 -0.52650466411E+01 -0.10745672083E+02  0.10535153631E+03  0.14600613127E+03  0.10037755716E+03 0.  0.
         13    1    3    3    0    0  0.33586687895E+01 -0.54713367588E+02  0.45487679575E+02  0.71231750238E+02  0.00000000000E+00 0. -1.
        -13    1    3    3    0    0 -0.86237154305E+01  0.43967695506E+02  0.59863856737E+02  0.74774381036E+02  0.00000000000E+00 0.  1.
         22    1    1    2    0    0  0.52650466411E+01  0.10745672083E+02  0.23379892618E+02  0.26264225926E+02  0.00000000000E+00 0.  1.
<mgrwt>
<rscale>  0 0.59294556E+02</rscale>
<asrwt>0</asrwt>
<pdfrwt beam="1">  1        2 0.33491484E-02 0.10108830E+03</pdfrwt>
<pdfrwt beam="2">  1       -2 0.23153983E-01 0.10108830E+03</pdfrwt>
<totfact> 0.38555258E+04</totfact>
</mgrwt>
</event>
<event>
 6    1  0.1535970E-002  0.9136186E+02  0.7546771E-02  0.1429653E+00
         -1   -1    0    0    0  501 -0.00000000000E+00  0.00000000000E+00  0.12529486454E+02  0.12529486454E+02  0.00000000000E+00 0.  1.
          1   -1    0    0  501    0  0.00000000000E+00 -0.00000000000E+00 -0.32242853354E+03  0.32242853354E+03  0.00000000000E+00 0. -1.
         23    2    1    2    0    0  0.84337890192E+01  0.60339892486E+01 -0.31135838110E+03  0.32448579582E+03  0.90771429313E+02 0.  0.
         11    1    3    3    0    0 -0.27212933072E+02  0.11456986197E+02 -0.26035698538E+03  0.26202588821E+03  0.00000000000E+00 0. -1.
        -11    1    3    3    0    0  0.35646722091E+02 -0.54229969484E+01 -0.51001395726E+02  0.62459907603E+02  0.00000000000E+00 0.  1.
         22    1    1    2    0    0 -0.84337890192E+01 -0.60339892486E+01  0.14593340174E+01  0.10472224179E+02  0.00000000000E+00 0.  1.
<mgrwt>
<rscale>  0 0.53029663E+02</rscale>
<asrwt>0</asrwt>
<pdfrwt beam="1">  1        1 0.49604395E-01 0.91361864E+02</pdfrwt>
<pdfrwt beam="2">  1       -1 0.19276131E-02 0.91361864E+02</pdfrwt>
<totfact> 0.50630439E+04</totfact>
</mgrwt>
</event>
<event>
 6    1  0.1535970E-002  0.1093247E+03  0.7546771E-02  0.1313052E+00
         -1   -1    0    0    0  501 -0.00000000000E+00  0.00000000000E+00  0.12295119498E+03  0.12295119498E+03  0.00000000000E+00 0.  1.
          1   -1    0    0  501    0  0.00000000000E+00 -0.00000000000E+00 -0.54831703161E+02  0.54831703161E+02  0.00000000000E+00 0. -1.
         23    2    1    2    0    0  0.38740615132E+02  0.15434861145E+02  0.15153012182E+02  0.11036985664E+03  0.10105850423E+03 0.  0.
         13    1    3    3    0    0 -0.16534441621E+02 -0.13181692282E+02  0.38473120942E+02  0.43901318957E+02  0.00000000000E+00 0.  1.
        -13    1    3    3    0    0  0.55275056753E+02  0.28616553427E+02 -0.23320108760E+02  0.66468537682E+02  0.00000000000E+00 0. -1.
         22    1    1    2    0    0 -0.38740615132E+02 -0.15434861145E+02  0.52966479632E+02  0.67413041498E+02  0.00000000000E+00 0.  1.
<mgrwt>
<rscale>  0 0.85916857E+02</rscale>
<asrwt>0</asrwt>
<pdfrwt beam="1">  1        1 0.84356467E-02 0.10932471E+03</pdfrwt>
<pdfrwt beam="2">  1       -1 0.18915568E-01 0.10932471E+03</pdfrwt>
<totfact> 0.16241395E+04</totfact>
</mgrwt>
</event>
<event>
 6    1  0.1535970E-002  0.9225965E+02  0.7546771E-02  0.1426688E+00
         -2   -1    0    0    0  501 -0.00000000000E+00  0.00000000000E+00  0.73769413430E+01  0.73769413430E+01  0.00000000000E+00 0.  1.
          2   -1    0    0  501    0  0.00000000000E+00 -0.00000000000E+00 -0.56788254132E+03  0.56788254132E+03  0.00000000000E+00 0. -1.
         23    2    1    2    0    0 -0.10531270135E+02  0.26367399102E+00 -0.55632908719E+03  0.56392720868E+03  0.91656239614E+02 0.  0.
         11    1    3    3    0    0 -0.15034529827E+02  0.19801158968E+02 -0.53119161653E+03  0.53177312498E+03  0.00000000000E+00 0. -1.
        -11    1    3    3    0    0  0.45032596918E+01 -0.19537484977E+02 -0.25137470659E+02  0.32154083694E+02  0.00000000000E+00 0.  1.
         22    1    1    2    0    0  0.10531270135E+02 -0.26367399102E+00 -0.41765127900E+01  0.11332273987E+02  0.00000000000E+00 0.  1.
<mgrwt>
<rscale>  0 0.53630651E+02</rscale>
<asrwt>0</asrwt>
<pdfrwt beam="1">  1        2 0.87366584E-01 0.92259652E+02</pdfrwt>
<pdfrwt beam="2">  1       -2 0.11349135E-02 0.92259652E+02</pdfrwt>
<totfact> 0.83548448E+04</totfact>
</mgrwt>
</event>
<event>
 6    1  0.1535970E-002  0.8998774E+02  0.7546771E-02  0.1434608E+00
          4   -1    0    0  501    0  0.00000000000E+00  0.00000000000E+00  0.53283184224E+03  0.53283184224E+03  0.00000000000E+00 0. -1.
         -4   -1    0    0    0  501 -0.00000000000E+00 -0.00000000000E+00 -0.47043882841E+01  0.47043882841E+01  0.00000000000E+00 0.  1.
         23    2    1    2    0    0 -0.28999312539E+01 -0.96427959879E+01  0.48095561238E+03  0.48930163969E+03  0.89422594477E+02 0.  0.
         13    1    3    3    0    0 -0.45567184764E+02 -0.42960327142E+00  0.27744682800E+03  0.28116417847E+03  0.00000000000E+00 0.  1.
        -13    1    3    3    0    0  0.42667253510E+02 -0.92131927165E+01  0.20350878438E+03  0.20813746122E+03  0.00000000000E+00 0. -1.
         22    1    1    2    0    0  0.28999312539E+01  0.96427959879E+01  0.47171841578E+02  0.48234590841E+02  0.00000000000E+00 0.  1.
<mgrwt>
<rscale>  0 0.52046145E+02</rscale>
<asrwt>0</asrwt>
<pdfrwt beam="1">  1        4 0.81974082E-01 0.89987741E+02</pdfrwt>
<pdfrwt beam="2">  1       -4 0.72375247E-03 0.89987741E+02</pdfrwt>
<totfact> 0.93790120E+03</totfact>
</mgrwt>
</event>
<event>
 6    1  0.1535970E-002  0.8906717E+02  0.7546771E-02  0.1430951E+00
          1   -1    0    0  501    0  0.00000000000E+00  0.00000000000E+00  0.80469860402E+03  0.80469860402E+03  0.00000000000E+00 0. -1.
         -1   -1    0    0    0  501 -0.00000000000E+00 -0.00000000000E+00 -0.50010623424E+01  0.50010623424E+01  0.00000000000E+00 0.  1.
         23    2    1    2    0    0 -0.18381854400E+01 -0.10819352102E+02  0.79014813985E+03  0.79515221363E+03  0.88388475706E+02 0.  0.
         11    1    3    3    0    0 -0.13246059480E+01  0.10719501494E+02  0.10040126691E+02  0.14746743273E+02  0.00000000000E+00 0.  1.
        -11    1    3    3    0    0 -0.51357949204E+00 -0.21538853596E+02  0.78010801316E+03  0.78040547036E+03  0.00000000000E+00 0. -1.
         22    1    1    2    0    0  0.18381854400E+01  0.10819352102E+02  0.95494018353E+01  0.14547452733E+02  0.00000000000E+00 0.  1.
<mgrwt>
<rscale>  0 0.52769545E+02</rscale>
<asrwt>0</asrwt>
<pdfrwt beam="1">  1        1 0.12379968E+00 0.89067165E+02</pdfrwt>
<pdfrwt beam="2">  1       -1 0.76939485E-03 0.89067165E+02</pdfrwt>
<totfact> 0.55811242E+04</totfact>
</mgrwt>
</event>
<event>
 6    1  0.1535970E-002  0.9295691E+02  0.7546771E-02  0.1396366E+00
          1   -1    0    0  501    0  0.00000000000E+00  0.00000000000E+00  0.15078697126E+03  0.15078697126E+03  0.00000000000E+00 0. -1.
         -1   -1    0    0    0  501 -0.00000000000E+00 -0.00000000000E+00 -0.27393038554E+02  0.27393038554E+02  0.00000000000E+00 0.  1.
         23    2    1    2    0    0  0.34630405466E+01 -0.16147902728E+02  0.13048228155E+03  0.16020802880E+03  0.91478080888E+02 0.  0.
         13    1    3    3    0    0 -0.34660052881E+02 -0.96993086750E+01  0.11144124268E+03  0.11710912187E+03  0.00000000000E+00 0. -1.
        -13    1    3    3    0    0  0.38123093428E+02 -0.64485940533E+01  0.19041038864E+02  0.43098906933E+02  0.00000000000E+00 0.  1.
         22    1    1    2    0    0 -0.34630405466E+01  0.16147902728E+02 -0.70883488365E+01  0.17971981014E+02  0.00000000000E+00 0.  1.
<mgrwt>
<rscale>  0 0.60350564E+02</rscale>
<asrwt>0</asrwt>
<pdfrwt beam="1">  1        1 0.23197995E-01 0.92956908E+02</pdfrwt>
<pdfrwt beam="2">  1       -1 0.42143137E-02 0.92956908E+02</pdfrwt>
<totfact> 0.41826749E+04</totfact>
</mgrwt>
</event>
<event>
 6    1  0.1535970E-002  0.9273104E+02  0.7546771E-02  0.1413364E+00
         -2   -1    0    0    0  501 -0.00000000000E+00  0.00000000000E+00  0.23642523903E+01  0.23642523903E+01  0.00000000000E+00 0.  1.
          2   -1    0    0  501    0  0.00000000000E+00 -0.00000000000E+00 -0.12880345368E+04  0.12880345368E+04  0.00000000000E+00 0. -1.
         23    2    1    2    0    0 -0.41807775550E+01  0.12028429533E+02 -0.12190837465E+04  0.12226055075E+04  0.91852511414E+02 0.  0.
         13    1    3    3    0    0 -0.30708417265E+02  0.15784226280E+02 -0.18619194465E+03  0.18936628248E+03  0.00000000000E+00 0.  1.
        -13    1    3    3    0    0  0.26527639710E+02 -0.37557967465E+01 -0.10328918019E+04  0.10332392250E+04  0.00000000000E+00 0. -1.
         22    1    1    2    0    0  0.41807775550E+01 -0.12028429533E+02 -0.66586537871E+02  0.67793281700E+02  0.00000000000E+00 0.  1.
<mgrwt>
<rscale>  0 0.56449811E+02</rscale>
<asrwt>0</asrwt>
<pdfrwt beam="1">  1        2 0.19815898E+00 0.92731040E+02</pdfrwt>
<pdfrwt beam="2">  1       -2 0.36373147E-03 0.92731040E+02</pdfrwt>
<totfact> 0.14489805E+05</totfact>
</mgrwt>
</event>
<event>
 6    1  0.1535970E-002  0.1050486E+03  0.7546771E-02  0.1306184E+00
          2   -1    0    0  501    0  0.00000000000E+00  0.00000000000E+00  0.60388484022E+02  0.60388484022E+02  0.00000000000E+00 0. -1.
         -2   -1    0    0    0  501 -0.00000000000E+00 -0.00000000000E+00 -0.11335841555E+03  0.11335841555E+03  0.00000000000E+00 0.  1.
         23    2    1    2    0    0  0.79706988961E+01 -0.52648909113E+02 -0.58453329654E+02  0.12021646593E+03  0.90552566281E+02 0.  0.
         13    1    3    3    0    0  0.98527426935E+00  0.16341977535E+02 -0.47208876447E+02  0.49967079268E+02  0.00000000000E+00 0.  1.
        -13    1    3    3    0    0  0.69854246268E+01 -0.68990886648E+02 -0.11244453207E+02  0.70249386657E+02  0.00000000000E+00 0. -1.
         22    1    1    2    0    0 -0.79706988961E+01  0.52648909113E+02  0.54833981241E+01  0.53530433649E+02  0.00000000000E+00 0. -1.
<mgrwt>
<rscale>  0 0.88638058E+02</rscale>
<asrwt>0</asrwt>
<pdfrwt beam="1">  1        2 0.92905360E-02 0.10504859E+03</pdfrwt>
<pdfrwt beam="2">  1       -2 0.17439756E-01 0.10504859E+03</pdfrwt>
<totfact> 0.16879995E+04</totfact>
</mgrwt>
</event>
<event>
 6    1  0.1535970E-002  0.9079048E+02  0.7546771E-02  0.1431921E+00
         -3   -1    0    0    0  501 -0.00000000000E+00  0.00000000000E+00  0.30452227975E+02  0.30452227975E+02  0.00000000000E+00 0.  1.
          3   -1    0    0  501    0  0.00000000000E+00 -0.00000000000E+00 -0.10851099766E+03  0.10851099766E+03  0.00000000000E+00 0. -1.
         23    2    1    2    0    0 -0.67394034129E+01  0.76702511715E+01 -0.86736605971E+02  0.12556333184E+03  0.90214517540E+02 0.  0.
         13    1    3    3    0    0 -0.31034982346E+02 -0.60310137917E+01  0.28416008400E+01  0.31742998471E+02  0.00000000000E+00 0.  1.
        -13    1    3    3    0    0  0.24295578933E+02  0.13701264963E+02 -0.89578206811E+02  0.93820333365E+02  0.00000000000E+00 0. -1.
         22    1    1    2    0    0  0.67394034129E+01 -0.76702511715E+01  0.86778362824E+01  0.13399893803E+02  0.00000000000E+00 0.  1.
<mgrwt>
<rscale>  0 0.52576413E+02</rscale>
<asrwt>0</asrwt>
<pdfrwt beam="1">  1        3 0.16694000E-01 0.90790481E+02</pdfrwt>
<pdfrwt beam="2">  1       -3 0.46849581E-02 0.90790481E+02</pdfrwt>
<totfact> 0.15966381E+04</totfact>
</mgrwt>
</event>
<event>
 6    1  0.1535970E-002  0.9129180E+02  0.7546771E-02  0.1424170E+00
         -2   -1    0    0    0  501 -0.00000000000E+00  0.00000000000E+00  0.33248684691E+02  0.33248684691E+02  0.00000000000E+00 0. -1.
          2   -1    0    0  501    0  0.00000000000E+00 -0.00000000000E+00 -0.79957559126E+02  0.79957559126E+02  0.00000000000E+00 0.  1.
         23    2    1    2    0    0  0.11044799455E+01  0.11244967975E+02 -0.44995042705E+02  0.10177792811E+03  0.90589864785E+02 0.  0.
         13    1    3    3    0    0  0.16572739976E+02  0.40270391347E+02  0.29377816875E+01  0.43646199041E+02  0.00000000000E+00 0. -1.
        -13    1    3    3    0    0 -0.15468260030E+02 -0.29025423372E+02 -0.47932824392E+02  0.58131729069E+02  0.00000000000E+00 0.  1.
         22    1    1    2    0    0 -0.11044799455E+01 -0.11244967975E+02 -0.17138317309E+01  0.11428315707E+02  0.00000000000E+00 0. -1.
<mgrwt>
<rscale>  0 0.54148270E+02</rscale>
<asrwt>0</asrwt>
<pdfrwt beam="1">  1        2 0.12301163E-01 0.91291800E+02</pdfrwt>
<pdfrwt beam="2">  1       -2 0.51151823E-02 0.91291800E+02</pdfrwt>
<totfact> 0.79810709E+04</totfact>
</mgrwt>
</event>
<event>
 6    1  0.1535970E-002  0.9255409E+02  0.7546771E-02  0.1394363E+00
          2   -1    0    0  501    0  0.00000000000E+00  0.00000000000E+00  0.28202525574E+03  0.28202525574E+03  0.00000000000E+00 0. -1.
         -2   -1    0    0    0  501 -0.00000000000E+00 -0.00000000000E+00 -0.12160396455E+02  0.12160396455E+02  0.00000000000E+00 0.  1.
         23    2    1    2    0    0 -0.16490573217E+02 -0.51458691153E+01  0.25540474185E+03  0.27165758148E+03  0.90927665981E+02 0.  0.
         11    1    3    3    0    0 -0.41449746753E+02 -0.25752287322E+02  0.21182603362E+03  0.21737417125E+03  0.00000000000E+00 0. -1.
        -11    1    3    3    0    0  0.24959173536E+02  0.20606418206E+02  0.43578708238E+02  0.54283410233E+02  0.00000000000E+00 0.  1.
         22    1    1    2    0    0  0.16490573217E+02  0.51458691153E+01  0.14460117431E+02  0.22528070714E+02  0.00000000000E+00 0.  1.
<mgrwt>
<rscale>  0 0.60834510E+02</rscale>
<asrwt>0</asrwt>
<pdfrwt beam="1">  1        2 0.43388496E-01 0.92554089E+02</pdfrwt>
<pdfrwt beam="2">  1       -2 0.18708304E-02 0.92554089E+02</pdfrwt>
<totfact> 0.86140179E+04</totfact>
</mgrwt>
</event>
<event>
 6    1  0.1535970E-002  0.9475238E+02  0.7546771E-02  0.1364165E+00
         -2   -1    0    0    0  501 -0.00000000000E+00  0.00000000000E+00  0.15369255748E+03  0.15369255748E+03  0.00000000000E+00 0.  1.
          2   -1    0    0  501    0  0.00000000000E+00 -0.00000000000E+00 -0.24368173618E+02  0.24368173618E+02  0.00000000000E+00 0. -1.
         23    2    1    2    0    0 -0.11011356324E+02  0.23953111734E+02  0.89760172939E+02  0.13051782084E+03  0.91011050872E+02 0.  0.
         11    1    3    3    0    0 -0.48934200777E+02  0.56278293971E+01  0.65359383801E+02  0.81841783463E+02  0.00000000000E+00 0.  1.
        -11    1    3    3    0    0  0.37922844453E+02  0.18325282337E+02  0.24400789138E+02  0.48676037377E+02  0.00000000000E+00 0. -1.
         22    1    1    2    0    0  0.11011356324E+02 -0.23953111734E+02  0.39564210919E+02  0.47542910255E+02  0.00000000000E+00 0. -1.
<mgrwt>
<rscale>  0 0.68816219E+02</rscale>
<asrwt>0</asrwt>
<pdfrwt beam="1">  1        2 0.37489499E-02 0.94752377E+02</pdfrwt>
<pdfrwt beam="2">  1       -2 0.23645008E-01 0.94752377E+02</pdfrwt>
<totfact> 0.31768936E+04</totfact>
</mgrwt>
</event>
<event>
 6    1  0.1535970E-002  0.9424611E+02  0.7546771E-02  0.1387312E+00
          1   -1    0    0  501    0  0.00000000000E+00  0.00000000000E+00  0.44041851376E+02  0.44041851376E+02  0.00000000000E+00 0. -1.
         -1   -1    0    0    0  501 -0.00000000000E+00 -0.00000000000E+00 -0.72301633565E+02  0.72301633565E+02  0.00000000000E+00 0.  1.
         23    2    1    2    0    0  0.18286626969E+02  0.11268519014E+01 -0.26703757312E+02  0.97956213949E+02  0.92448140466E+02 0.  0.
         11    1    3    3    0    0 -0.15334265835E+02 -0.37929758762E+02 -0.21340736334E+02  0.46143616413E+02  0.00000000000E+00 0.  1.
        -11    1    3    3    0    0  0.33620892804E+02  0.39056610663E+02 -0.53630209777E+01  0.51812597536E+02  0.00000000000E+00 0. -1.
         22    1    1    2    0    0 -0.18286626969E+02 -0.11268519014E+01 -0.15560248769E+01  0.18387270991E+02  0.00000000000E+00 0. -1.
<mgrwt>
<rscale>  0 0.62580168E+02</rscale>
<asrwt>0</asrwt>
<pdfrwt beam="1">  1        1 0.67756695E-02 0.94246110E+02</pdfrwt>
<pdfrwt beam="2">  1       -1 0.11123328E-01 0.94246110E+02</pdfrwt>
<totfact> 0.48695983E+04</totfact>
</mgrwt>
</event>
<event>
 6    1  0.1535970E-002  0.9085063E+02  0.7546771E-02  0.1378129E+00
          2   -1    0    0  501    0  0.00000000000E+00  0.00000000000E+00  0.36870428037E+03  0.36870428037E+03  0.00000000000E+00 0. -1.
         -2   -1    0    0    0  501 -0.00000000000E+00 -0.00000000000E+00 -0.18186408291E+02  0.18186408291E+02  0.00000000000E+00 0.  1.
         23    2    1    2    0    0  0.18488796792E+02 -0.14897587903E+02  0.35157455820E+03  0.36312326731E+03  0.87693007472E+02 0.  0.
         13    1    3    3    0    0  0.10632860322E+02 -0.19691110980E+01  0.34720963728E+03  0.34737798913E+03  0.00000000000E+00 0. -1.
        -13    1    3    3    0    0  0.78559364702E+01 -0.12928476805E+02  0.43649209236E+01  0.15745278181E+02  0.00000000000E+00 0.  1.
         22    1    1    2    0    0 -0.18488796792E+02  0.14897587903E+02 -0.10566861171E+01  0.23767421351E+02  0.00000000000E+00 0. -1.
<mgrwt>
<rscale>  0 0.64958213E+02</rscale>
<asrwt>0</asrwt>
<pdfrwt beam="1">  1        2 0.56723730E-01 0.90850632E+02</pdfrwt>
<pdfrwt beam="2">  1       -2 0.27979093E-02 0.90850632E+02</pdfrwt>
<totfact> 0.36331438E+04</totfact>
</mgrwt>
</event>
<event>
 6    1  0.1535970E-002  0.9529682E+02  0.7546771E-02  0.1408808E+00
          1   -1    0    0  501    0  0.00000000000E+00  0.00000000000E+00  0.94971234623E+03  0.94971234623E+03  0.00000000000E+00 0. -1.
         -1   -1    0    0    0  501 -0.00000000000E+00 -0.00000000000E+00 -0.10907702717E+02  0.10907702717E+02  0.00000000000E+00 0.  1.
         23    2    1    2    0    0  0.63389923395E+01 -0.10885260594E+02  0.94264606236E+03  0.94745083406E+03  0.94460639152E+02 0.  0.
         11    1    3    3    0    0  0.33525424165E+02 -0.36887569754E+02  0.34031626146E+03  0.34394738650E+03  0.00000000000E+00 0.  1.
        -11    1    3    3    0    0 -0.27186431825E+02  0.26002309160E+02  0.60232980091E+03  0.60350344756E+03  0.00000000000E+00 0. -1.
         22    1    1    2    0    0 -0.63389923395E+01  0.10885260594E+02 -0.38414188478E+01  0.13169214891E+02  0.00000000000E+00 0.  1.
<mgrwt>
<rscale>  0 0.57460745E+02</rscale>
<asrwt>0</asrwt>
<pdfrwt beam="1">  1        1 0.14610953E+00 0.95296821E+02</pdfrwt>
<pdfrwt beam="2">  1       -1 0.16781089E-02 0.95296821E+02</pdfrwt>
<totfact> 0.14439337E+04</totfact>
</mgrwt>
</event>
<event>
 6    1  0.1535970E-002  0.9845455E+02  0.7546771E-02  0.1336424E+00
          4   -1    0    0  501    0  0.00000000000E+00  0.00000000000E+00  0.20127734904E+03  0.20127734904E+03  0.00000000000E+00 0. -1.
         -4   -1    0    0    0  501 -0.00000000000E+00 -0.00000000000E+00 -0.26874853059E+02  0.26874853059E+02  0.00000000000E+00 0.  1.
         23    2    1    2    0    0  0.19341500031E+02  0.32382371705E+02  0.15982159023E+03  0.18771318093E+03  0.90942762054E+02 0.  0.
         11    1    3    3    0    0 -0.41358423952E+01  0.25896278737E+02  0.18090123355E+00  0.26225086653E+02  0.00000000000E+00 0.  1.
        -11    1    3    3    0    0  0.23477342426E+02  0.64860929683E+01  0.15964068900E+03  0.16148809428E+03  0.00000000000E+00 0. -1.
         22    1    1    2    0    0 -0.19341500031E+02 -0.32382371705E+02  0.14580905750E+02  0.40439021170E+02  0.00000000000E+00 0. -1.
<mgrwt>
<rscale>  0 0.77458029E+02</rscale>
<asrwt>0</asrwt>
<pdfrwt beam="1">  1        4 0.30965745E-01 0.98454546E+02</pdfrwt>
<pdfrwt beam="2">  1       -4 0.41345929E-02 0.98454546E+02</pdfrwt>
<totfact> 0.48786041E+03</totfact>
</mgrwt>
</event>
<event>
 6    1  0.1535970E-002  0.1006604E+03  0.7546771E-02  0.1326630E+00
          2   -1    0    0  501    0  0.00000000000E+00  0.00000000000E+00  0.36792782319E+02  0.36792782319E+02  0.00000000000E+00 0. -1.
         -2   -1    0    0    0  501 -0.00000000000E+00 -0.00000000000E+00 -0.14042862038E+03  0.14042862038E+03  0.00000000000E+00 0.  1.
         23    2    1    2    0    0  0.34147382664E+01  0.41773717285E+02 -0.62447274123E+02  0.11845745378E+03  0.91519410060E+02 0.  0.
         13    1    3    3    0    0 -0.47270885475E+01  0.65540364519E+02 -0.65942462468E+02  0.93092927249E+02  0.00000000000E+00 0.  1.
        -13    1    3    3    0    0  0.81418268139E+01 -0.23766647234E+02  0.34951883448E+01  0.25364526532E+02  0.00000000000E+00 0. -1.
         22    1    1    2    0    0 -0.34147382664E+01 -0.41773717285E+02 -0.41188563939E+02  0.58763948919E+02  0.00000000000E+00 0. -1.
<mgrwt>
<rscale>  0 0.80859519E+02</rscale>
<asrwt>0</asrwt>
<pdfrwt beam="1">  1        2 0.56604281E-02 0.10066035E+03</pdfrwt>
<pdfrwt beam="2">  1       -2 0.21604403E-01 0.10066035E+03</pdfrwt>
<totfact> 0.21864779E+04</totfact>
</mgrwt>
</event>
<event>
 6    1  0.1535970E-002  0.9386029E+02  0.7546771E-02  0.1411760E+00
         -2   -1    0    0    0  501 -0.00000000000E+00  0.00000000000E+00  0.31491681543E+02  0.31491681543E+02  0.00000000000E+00 0. -1.
          2   -1    0    0  501    0  0.00000000000E+00 -0.00000000000E+00 -0.10579441338E+03  0.10579441338E+03  0.00000000000E+00 0.  1.
         23    2    1    2    0    0  0.10903446866E+02  0.62952210560E+01 -0.80130440365E+02  0.12341248154E+03  0.93012032365E+02 0.  0.
         11    1    3    3    0    0 -0.32376595054E+01 -0.70617348597E+01  0.19976133820E+02  0.21433535889E+02  0.00000000000E+00 0. -1.
        -11    1    3    3    0    0  0.14141106372E+02  0.13356955916E+02 -0.10010657419E+03  0.10197894565E+03  0.00000000000E+00 0.  1.
         22    1    1    2    0    0 -0.10903446866E+02 -0.62952210560E+01  0.58277085263E+01  0.13873613386E+02  0.00000000000E+00 0. -1.
<mgrwt>
<rscale>  0 0.56802858E+02</rscale>
<asrwt>0</asrwt>
<pdfrwt beam="1">  1        2 0.16276063E-01 0.93860285E+02</pdfrwt>
<pdfrwt beam="2">  1       -2 0.48448741E-02 0.93860285E+02</pdfrwt>
<totfact> 0.62682604E+04</totfact>
</mgrwt>
</event>
<event>
 6    1  0.1535970E-002  0.1063379E+03  0.7546771E-02  0.1302368E+00
         -2   -1    0    0    0  501 -0.00000000000E+00  0.00000000000E+00  0.30983830842E+02  0.30983830842E+02  0.00000000000E+00 0.  1.
          2   -1    0    0  501    0  0.00000000000E+00 -0.00000000000E+00 -0.50783588446E+03  0.50783588446E+03  0.00000000000E+00 0. -1.
         23    2    1    2    0    0  0.35284743411E+02 -0.42255595787E+02 -0.47168992463E+03  0.48352779845E+03  0.90979109590E+02 0.  0.
         13    1    3    3    0    0  0.56159558813E+02 -0.98225258931E+01 -0.16826307780E+03  0.17765934090E+03  0.00000000000E+00 0.  1.
        -13    1    3    3    0    0 -0.20874815402E+02 -0.32433069894E+02 -0.30342684684E+03  0.30586845755E+03  0.00000000000E+00 0. -1.
         22    1    1    2    0    0 -0.35284743411E+02  0.42255595787E+02 -0.51621289806E+01  0.55291916846E+02  0.00000000000E+00 0.  1.
<mgrwt>
<rscale>  0 0.90199927E+02</rscale>
<asrwt>0</asrwt>
<pdfrwt beam="1">  1        2 0.78128586E-01 0.10633789E+03</pdfrwt>
<pdfrwt beam="2">  1       -2 0.47667439E-02 0.10633789E+03</pdfrwt>
<totfact> 0.11999028E+04</totfact>
</mgrwt>
</event>
<event>
 6    1  0.1535970E-002  0.9245308E+02  0.7546771E-02  0.1420169E+00
         -2   -1    0    0    0  501 -0.00000000000E+00  0.00000000000E+00  0.46853418707E+02  0.46853418707E+02  0.00000000000E+00 0.  1.
          2   -1    0    0  501    0  0.00000000000E+00 -0.00000000000E+00 -0.28074910309E+03  0.28074910309E+03  0.00000000000E+00 0. -1.
         23    2    1    2    0    0  0.10852110325E+01 -0.11515905388E+02 -0.27226164664E+03  0.28753082580E+03  0.91726647141E+02 0.  0.
         13    1    3    3    0    0  0.32787421608E+02  0.85947365352E+01 -0.22316859362E+03  0.22572794619E+03  0.00000000000E+00 0. -1.
        -13    1    3    3    0    0 -0.31702210575E+02 -0.20110641923E+02 -0.49093053022E+02  0.61802879617E+02  0.00000000000E+00 0.  1.
         22    1    1    2    0    0 -0.10852110325E+01  0.11515905388E+02  0.38365962257E+02  0.40071695994E+02  0.00000000000E+00 0.  1.
<mgrwt>
<rscale>  0 0.54985162E+02</rscale>
<asrwt>0</asrwt>
<pdfrwt beam="1">  1        2 0.43192169E-01 0.92453078E+02</pdfrwt>
<pdfrwt beam="2">  1       -2 0.72082183E-02 0.92453078E+02</pdfrwt>
<totfact> 0.11926639E+04</totfact>
</mgrwt>
</event>
<event>
 6    1  0.1535970E-002  0.9073061E+02  0.7546771E-02  0.1420464E+00
          2   -1    0    0  501    0  0.00000000000E+00  0.00000000000E+00  0.49408622817E+03  0.49408622817E+03  0.00000000000E+00 0. -1.
         -2   -1    0    0    0  501 -0.00000000000E+00 -0.00000000000E+00 -0.91243408339E+01  0.91243408339E+01  0.00000000000E+00 0.  1.
         23    2    1    2    0    0  0.11481532853E+02 -0.40743184360E+01  0.48227422455E+03  0.49073462421E+03  0.89908943153E+02 0.  0.
         13    1    3    3    0    0 -0.67383480539E+01  0.11122883740E+02  0.45239164950E+03  0.45257853287E+03  0.00000000000E+00 0. -1.
        -13    1    3    3    0    0  0.18219880907E+02 -0.15197202176E+02  0.29882575052E+02  0.38156091335E+02  0.00000000000E+00 0.  1.
         22    1    1    2    0    0 -0.11481532853E+02  0.40743184360E+01  0.26876627832E+01  0.12475944798E+02  0.00000000000E+00 0.  1.
<mgrwt>
<rscale>  0 0.54922968E+02</rscale>
<asrwt>0</asrwt>
<pdfrwt beam="1">  1        2 0.76013245E-01 0.90730611E+02</pdfrwt>
<pdfrwt beam="2">  1       -2 0.14037451E-02 0.90730611E+02</pdfrwt>
<totfact> 0.71728652E+04</totfact>
</mgrwt>
</event>
<event>
 6    1  0.1535970E-002  0.9499624E+02  0.7546771E-02  0.1414559E+00
         -4   -1    0    0    0  501 -0.00000000000E+00  0.00000000000E+00  0.70218073084E+02  0.70218073084E+02  0.00000000000E+00 0.  1.
          4   -1    0    0  501    0  0.00000000000E+00 -0.00000000000E+00 -0.41620374553E+02  0.41620374553E+02  0.00000000000E+00 0. -1.
         23    2    1    2    0    0  0.11307471904E+02 -0.27088964050E+01  0.31075676327E+02  0.99949906325E+02  0.94281965797E+02 0.  0.
         11    1    3    3    0    0  0.73475219407E+01  0.29214336042E+02  0.53040698654E+02  0.60998190324E+02  0.00000000000E+00 0.  1.
        -11    1    3    3    0    0  0.39599499629E+01 -0.31923232447E+02 -0.21965022327E+02  0.38951716001E+02  0.00000000000E+00 0. -1.
         22    1    1    2    0    0 -0.11307471904E+02  0.27088964050E+01 -0.24779777965E+01  0.11888541313E+02  0.00000000000E+00 0.  1.
<mgrwt>
<rscale>  0 0.56188924E+02</rscale>
<asrwt>0</asrwt>
<pdfrwt beam="1">  1        4 0.64031346E-02 0.94996243E+02</pdfrwt>
<pdfrwt beam="2">  1       -4 0.10802780E-01 0.94996243E+02</pdfrwt>
<totfact> 0.15528072E+04</totfact>
</mgrwt>
</event>
<event>
 6    1  0.1535970E-002  0.9698129E+02  0.7546771E-02  0.1390328E+00
         -2   -1    0    0    0  501 -0.00000000000E+00  0.00000000000E+00  0.11054437163E+03  0.11054437163E+03  0.00000000000E+00 0.  1.
          2   -1    0    0  501    0  0.00000000000E+00 -0.00000000000E+00 -0.30936154141E+02  0.30936154141E+02  0.00000000000E+00 0. -1.
         23    2    1    2    0    0 -0.18194004190E+01 -0.15913860324E+02  0.53254410021E+02  0.11064087051E+03  0.95649406025E+02 0.  0.
         13    1    3    3    0    0 -0.11707910159E+02 -0.53478037938E+02  0.45148284998E+02  0.70960153186E+02  0.00000000000E+00 0. -1.
        -13    1    3    3    0    0  0.98885097396E+01  0.37564177614E+02  0.81061250231E+01  0.39680717327E+02  0.00000000000E+00 0.  1.
         22    1    1    2    0    0  0.18194004190E+01  0.15913860324E+02  0.26353807464E+02  0.30839655254E+02  0.00000000000E+00 0.  1.
<mgrwt>
<rscale>  0 0.61825099E+02</rscale>
<asrwt>0</asrwt>
<pdfrwt beam="1">  1        2 0.47594084E-02 0.96981287E+02</pdfrwt>
<pdfrwt beam="2">  1       -2 0.17006826E-01 0.96981287E+02</pdfrwt>
<totfact> 0.40584115E+04</totfact>
</mgrwt>
</event>
<event>
 6    1  0.1535970E-002  0.9291414E+02  0.7546771E-02  0.1403727E+00
         -2   -1    0    0    0  501 -0.00000000000E+00  0.00000000000E+00  0.67921909363E+01  0.67921909363E+01  0.00000000000E+00 0.  1.
          2   -1    0    0  501    0  0.00000000000E+00 -0.00000000000E+00 -0.56846401442E+03  0.56846401442E+03  0.00000000000E+00 0. -1.
         23    2    1    2    0    0  0.11577924934E+01 -0.14672738871E+02 -0.54563328558E+03  0.55348777759E+03  0.91740982429E+02 0.  0.
         11    1    3    3    0    0  0.33722507987E+02  0.11842203806E+02 -0.40870129286E+03  0.41026112675E+03  0.00000000000E+00 0. -1.
        -11    1    3    3    0    0 -0.32564715493E+02 -0.26514942677E+02 -0.13693199272E+03  0.14322665084E+03  0.00000000000E+00 0.  1.
         22    1    1    2    0    0 -0.11577924934E+01  0.14672738871E+02 -0.16038537906E+02  0.21768427770E+02  0.00000000000E+00 0. -1.
<mgrwt>
<rscale>  0 0.58617342E+02</rscale>
<asrwt>0</asrwt>
<pdfrwt beam="1">  1        2 0.87456037E-01 0.92914141E+02</pdfrwt>
<pdfrwt beam="2">  1       -2 0.10449520E-02 0.92914141E+02</pdfrwt>
<totfact> 0.93915432E+04</totfact>
</mgrwt>
</event>
<event>
 6    1  0.1535970E-002  0.9410467E+02  0.7546771E-02  0.1364459E+00
         -1   -1    0    0    0  501 -0.00000000000E+00  0.00000000000E+00  0.80244790831E+02  0.80244790831E+02  0.00000000000E+00 0.  1.
          1   -1    0    0  501    0  0.00000000000E+00 -0.00000000000E+00 -0.18144555227E+03  0.18144555227E+03  0.00000000000E+00 0. -1.
         23    2    1    2    0    0 -0.22885536279E+02 -0.13906211682E+02 -0.16642186090E+03  0.19118557511E+03  0.90213955953E+02 0.  0.
         13    1    3    3    0    0 -0.61115571941E+01 -0.19986802689E+02 -0.17139401258E+03  0.17266363532E+03  0.00000000000E+00 0. -1.
        -13    1    3    3    0    0 -0.16773979085E+02  0.60805910070E+01  0.49721516755E+01  0.18521939791E+02  0.00000000000E+00 0.  1.
         22    1    1    2    0    0  0.22885536279E+02  0.13906211682E+02  0.65221099465E+02  0.70504767992E+02  0.00000000000E+00 0.  1.
<mgrwt>
<rscale>  0 0.68731868E+02</rscale>
<asrwt>0</asrwt>
<pdfrwt beam="1">  1        1 0.27914700E-01 0.94104667E+02</pdfrwt>
<pdfrwt beam="2">  1       -1 0.12345352E-01 0.94104667E+02</pdfrwt>
<totfact> 0.67225626E+03</totfact>
</mgrwt>
</event>
<event>
 6    1  0.1535970E-002  0.9373107E+02  0.7546771E-02  0.1403506E+00
          2   -1    0    0  501    0  0.00000000000E+00  0.00000000000E+00  0.11770505954E+03  0.11770505954E+03  0.00000000000E+00 0. -1.
         -2   -1    0    0    0  501 -0.00000000000E+00 -0.00000000000E+00 -0.26450249220E+02  0.26450249220E+02  0.00000000000E+00 0.  1.
         23    2    1    2    0    0 -0.80549311131E+01  0.11920787173E+02  0.64506002733E+02  0.11378285760E+03  0.92620339092E+02 0.  0.
         11    1    3    3    0    0 -0.27830162609E+02  0.17700196986E+02 -0.11580764375E+02  0.34956101437E+02  0.00000000000E+00 0.  1.
        -11    1    3    3    0    0  0.19775231496E+02 -0.57794098124E+01  0.76086767109E+02  0.78826756165E+02  0.00000000000E+00 0. -1.
         22    1    1    2    0    0  0.80549311131E+01 -0.11920787173E+02  0.26748807588E+02  0.30372451160E+02  0.00000000000E+00 0.  1.
<mgrwt>
<rscale>  0 0.58668583E+02</rscale>
<asrwt>0</asrwt>
<pdfrwt beam="1">  1        2 0.18108470E-01 0.93731074E+02</pdfrwt>
<pdfrwt beam="2">  1       -2 0.40692692E-02 0.93731074E+02</pdfrwt>
<totfact> 0.71830670E+04</totfact>
</mgrwt>
</event>
<event>
 6    1  0.1535970E-002  0.9439363E+02  0.7546771E-02  0.1349328E+00
         -2   -1    0    0    0  501 -0.00000000000E+00  0.00000000000E+00  0.15410487465E+03  0.15410487465E+03  0.00000000000E+00 0.  1.
          2   -1    0    0  501    0  0.00000000000E+00 -0.00000000000E+00 -0.26924675619E+02  0.26924675619E+02  0.00000000000E+00 0. -1.
         23    2    1    2    0    0  0.33345801680E+02 -0.78562203905E+01  0.97421361993E+02  0.13565057859E+03  0.87957347683E+02 0.  0.
         13    1    3    3    0    0  0.32938951276E+02 -0.41592976616E+02  0.83973120454E+02  0.99329930906E+02  0.00000000000E+00 0.  1.
        -13    1    3    3    0    0  0.40685040388E+00  0.33736756226E+02  0.13448241539E+02  0.36320647686E+02  0.00000000000E+00 0. -1.
         22    1    1    2    0    0 -0.33345801680E+02  0.78562203905E+01  0.29758837037E+02  0.45378971675E+02  0.00000000000E+00 0. -1.
<mgrwt>
<rscale>  0 0.73265570E+02</rscale>
<asrwt>0</asrwt>
<pdfrwt beam="1">  1        2 0.41422579E-02 0.94393632E+02</pdfrwt>
<pdfrwt beam="2">  1       -2 0.23708442E-01 0.94393632E+02</pdfrwt>
<totfact> 0.27732634E+04</totfact>
</mgrwt>
</event>
<event>
 6    1  0.1535970E-002  0.9269685E+02  0.7546771E-02  0.1421971E+00
          1   -1    0    0  501    0  0.00000000000E+00  0.00000000000E+00  0.22825575958E+03  0.22825575958E+03  0.00000000000E+00 0. -1.
         -1   -1    0    0    0  501 -0.00000000000E+00 -0.00000000000E+00 -0.11909929745E+02  0.11909929745E+02  0.00000000000E+00 0.  1.
         23    2    1    2    0    0  0.10925369279E+02  0.22896602778E+01  0.19911703470E+03  0.21963674342E+03  0.92022276195E+02 0.  0.
         13    1    3    3    0    0  0.39326659494E+02  0.10259907421E+02  0.37338078075E+02  0.55190433243E+02  0.00000000000E+00 0.  1.
        -13    1    3    3    0    0 -0.28401290216E+02 -0.79702471428E+01  0.16177895662E+03  0.16444631018E+03  0.00000000000E+00 0. -1.
         22    1    1    2    0    0 -0.10925369279E+02 -0.22896602778E+01  0.17228795143E+02  0.20528945909E+02  0.00000000000E+00 0.  1.
<mgrwt>
<rscale>  0 0.54606105E+02</rscale>
<asrwt>0</asrwt>
<pdfrwt beam="1">  1        1 0.35116267E-01 0.92696848E+02</pdfrwt>
<pdfrwt beam="2">  1       -1 0.18322971E-02 0.92696848E+02</pdfrwt>
<totfact> 0.83154445E+04</totfact>
</mgrwt>
</event>
<event>
 6    1  0.1535970E-002  0.1053505E+03  0.7546771E-02  0.1308290E+00
         -1   -1    0    0    0  501 -0.00000000000E+00  0.00000000000E+00  0.65761660324E+02  0.65761660324E+02  0.00000000000E+00 0.  1.
          1   -1    0    0  501    0  0.00000000000E+00 -0.00000000000E+00 -0.18449722884E+03  0.18449722884E+03  0.00000000000E+00 0. -1.
         23    2    1    2    0    0 -0.31291299427E+02  0.40023955911E+02  0.15727751770E+02  0.10651798695E+03  0.92291152891E+02 0.  0.
         13    1    3    3    0    0 -0.19165463861E+02  0.60992591316E+02 -0.16666149959E+02  0.66069446456E+02  0.00000000000E+00 0.  1.
        -13    1    3    3    0    0 -0.12125835567E+02 -0.20968635406E+02  0.32393901730E+02  0.40448540496E+02  0.00000000000E+00 0. -1.
         22    1    1    2    0    0  0.31291299427E+02 -0.40023955911E+02 -0.13446332028E+03  0.14374090221E+03  0.00000000000E+00 0. -1.
<mgrwt>
<rscale>  0 0.87791434E+02</rscale>
<asrwt>0</asrwt>
<pdfrwt beam="1">  1        1 0.28384189E-01 0.10535046E+03</pdfrwt>
<pdfrwt beam="2">  1       -1 0.10117179E-01 0.10535046E+03</pdfrwt>
<totfact> 0.90001102E+03</totfact>
</mgrwt>
</event>
<event>
 6    1  0.1535970E-002  0.9191543E+02  0.7546771E-02  0.1419482E+00
         -2   -1    0    0    0  501 -0.00000000000E+00  0.00000000000E+00  0.30697252360E+01  0.30697252360E+01  0.00000000000E+00 0. -1.
          2   -1    0    0  501    0  0.00000000000E+00 -0.00000000000E+00 -0.10297158929E+04  0.10297158929E+04  0.00000000000E+00 0.  1.
         23    2    1    2    0    0  0.10830502223E+02 -0.49210896535E+01 -0.98998227634E+03  0.99424008884E+03  0.91142360567E+02 0.  0.
         13    1    3    3    0    0 -0.27711057750E+02 -0.33806520621E+02 -0.45667207755E+03  0.45875938135E+03  0.00000000000E+00 0.  1.
        -13    1    3    3    0    0  0.38541559973E+02  0.28885430967E+02 -0.53331019878E+03  0.53548070749E+03  0.00000000000E+00 0. -1.
         22    1    1    2    0    0 -0.10830502223E+02  0.49210896535E+01 -0.36663891373E+02  0.38545529344E+02  0.00000000000E+00 0. -1.
<mgrwt>
<rscale>  0 0.55130555E+02</rscale>
<asrwt>0</asrwt>
<pdfrwt beam="1">  1        2 0.15841826E+00 0.91915433E+02</pdfrwt>
<pdfrwt beam="2">  1       -2 0.47226414E-03 0.91915433E+02</pdfrwt>
<totfact> 0.13947885E+05</totfact>
</mgrwt>
</event>
<event>
 6    1  0.1535970E-002  0.9429949E+02  0.7546771E-02  0.1381533E+00
          2   -1    0    0  501    0  0.00000000000E+00  0.00000000000E+00  0.11295971878E+03  0.11295971878E+03  0.00000000000E+00 0. -1.
         -2   -1    0    0    0  501 -0.00000000000E+00 -0.00000000000E+00 -0.29206611778E+02  0.29206611778E+02  0.00000000000E+00 0.  1.
         23    2    1    2    0    0 -0.41186454285E+01  0.19658907572E+02  0.73828590116E+02  0.11976249333E+03  0.92135542561E+02 0.  0.
         13    1    3    3    0    0 -0.30677428544E+02  0.45571263274E+02  0.56520191609E+02  0.78818631795E+02  0.00000000000E+00 0.  1.
        -13    1    3    3    0    0  0.26558783116E+02 -0.25912355701E+02  0.17308398507E+02  0.40943861536E+02  0.00000000000E+00 0. -1.
         22    1    1    2    0    0  0.41186454285E+01 -0.19658907572E+02  0.99245168860E+01  0.22403837228E+02  0.00000000000E+00 0. -1.
<mgrwt>
<rscale>  0 0.64062492E+02</rscale>
<asrwt>0</asrwt>
<pdfrwt beam="1">  1        2 0.17378418E-01 0.94299491E+02</pdfrwt>
<pdfrwt beam="2">  1       -2 0.44933250E-02 0.94299491E+02</pdfrwt>
<totfact> 0.65075353E+04</totfact>
</mgrwt>
</event>
<event>
 6    1  0.1535970E-002  0.9181858E+02  0.7546771E-02  0.1416725E+00
         -1   -1    0    0    0  501 -0.00000000000E+00  0.00000000000E+00  0.12331794197E+03  0.12331794197E+03  0.00000000000E+00 0.  1.
          1   -1    0    0  501    0  0.00000000000E+00 -0.00000000000E+00 -0.22271332997E+02  0.22271332997E+02  0.00000000000E+00 0. -1.
         23    2    1    2    0    0 -0.99731490673E+01 -0.74561720873E+01  0.93413467350E+02  0.13098369194E+03  0.90970288928E+02 0.  0.
         11    1    3    3    0    0 -0.12893046692E+01  0.15913445547E+02 -0.13681113201E+02  0.21025530055E+02  0.00000000000E+00 0. -1.
        -11    1    3    3    0    0 -0.86838443982E+01 -0.23369617634E+02  0.10709458055E+03  0.10995816189E+03  0.00000000000E+00 0.  1.
         22    1    1    2    0    0  0.99731490673E+01  0.74561720873E+01  0.76331416233E+01  0.14605583027E+02  0.00000000000E+00 0. -1.
<mgrwt>
<rscale>  0 0.55719829E+02</rscale>
<asrwt>0</asrwt>
<pdfrwt beam="1">  1        1 0.34263590E-02 0.91818580E+02</pdfrwt>
<pdfrwt beam="2">  1       -1 0.18971991E-01 0.91818580E+02</pdfrwt>
<totfact> 0.53365785E+04</totfact>
</mgrwt>
</event>
<event>
 6    1  0.1535970E-002  0.9271105E+02  0.7546771E-02  0.1395150E+00
         -1   -1    0    0    0  501 -0.00000000000E+00  0.00000000000E+00  0.15306604417E+02  0.15306604417E+02  0.00000000000E+00 0.  1.
          1   -1    0    0  501    0  0.00000000000E+00 -0.00000000000E+00 -0.22982425604E+03  0.22982425604E+03  0.00000000000E+00 0. -1.
         23    2    1    2    0    0 -0.62790105276E-01 -0.16972466221E+02 -0.20650540738E+03  0.22636214686E+03  0.91144224730E+02 0.  0.
         13    1    3    3    0    0 -0.29451759470E+02 -0.29982818168E+02 -0.44540535480E+02  0.61239160853E+02  0.00000000000E+00 0.  1.
        -13    1    3    3    0    0  0.29388969365E+02  0.13010351948E+02 -0.16196487190E+03  0.16512298601E+03  0.00000000000E+00 0. -1.
         22    1    1    2    0    0  0.62790105276E-01  0.16972466221E+02 -0.80122442384E+01  0.18768713593E+02  0.00000000000E+00 0.  1.
<mgrwt>
<rscale>  0 0.60643687E+02</rscale>
<asrwt>0</asrwt>
<pdfrwt beam="1">  1        1 0.35357577E-01 0.92711047E+02</pdfrwt>
<pdfrwt beam="2">  1       -1 0.23548623E-02 0.92711047E+02</pdfrwt>
<totfact> 0.57618229E+04</totfact>
</mgrwt>
</event>
<event>
 6    1  0.1535970E-002  0.9216781E+02  0.7546771E-02  0.1428788E+00
          2   -1    0    0  501    0  0.00000000000E+00  0.00000000000E+00  0.16551696979E+03  0.16551696979E+03  0.00000000000E+00 0. -1.
         -2   -1    0    0    0  501 -0.00000000000E+00 -0.00000000000E+00 -0.16058465925E+02  0.16058465925E+02  0.00000000000E+00 0.  1.
         23    2    1    2    0    0  0.58463196720E+01  0.83996554395E+01  0.14015427063E+03  0.16774422386E+03  0.91597878784E+02 0.  0.
         13    1    3    3    0    0  0.51800511673E+01 -0.91982165184E+01  0.14806337662E+03  0.14843922532E+03  0.00000000000E+00 0. -1.
        -13    1    3    3    0    0  0.66626850472E+00  0.17597871958E+02 -0.79091059896E+01  0.19304998542E+02  0.00000000000E+00 0.  1.
         22    1    1    2    0    0 -0.58463196720E+01 -0.83996554395E+01  0.93042332305E+01  0.13831211849E+02  0.00000000000E+00 0.  1.
<mgrwt>
<rscale>  0 0.53204117E+02</rscale>
<asrwt>0</asrwt>
<pdfrwt beam="1">  1        2 0.25464148E-01 0.92167809E+02</pdfrwt>
<pdfrwt beam="2">  1       -2 0.24705333E-02 0.92167809E+02</pdfrwt>
<totfact> 0.10165117E+05</totfact>
</mgrwt>
</event>
<event>
 6    1  0.1535970E-002  0.9236108E+02  0.7546771E-02  0.1428403E+00
         -2   -1    0    0    0  501 -0.00000000000E+00  0.00000000000E+00  0.78157065786E+01  0.78157065786E+01  0.00000000000E+00 0.  1.
          2   -1    0    0  501    0  0.00000000000E+00 -0.00000000000E+00 -0.34000737446E+03  0.34000737446E+03  0.00000000000E+00 0. -1.
         23    2    1    2    0    0 -0.94288621948E+01 -0.39672921997E+01 -0.30819416017E+03  0.32173624094E+03  0.91792840271E+02 0.  0.
         13    1    3    3    0    0 -0.82376001536E+01 -0.18681592674E+02 -0.30615335389E+03  0.30683340115E+03  0.00000000000E+00 0. -1.
        -13    1    3    3    0    0 -0.11912620412E+01  0.14714300475E+02 -0.20408062767E+01  0.14902839795E+02  0.00000000000E+00 0.  1.
         22    1    1    2    0    0  0.94288621948E+01  0.39672921997E+01 -0.23997507712E+02  0.26086840093E+02  0.00000000000E+00 0.  1.
<mgrwt>
<rscale>  0 0.53281990E+02</rscale>
<asrwt>0</asrwt>
<pdfrwt beam="1">  1        2 0.52308825E-01 0.92361076E+02</pdfrwt>
<pdfrwt beam="2">  1       -2 0.12024164E-02 0.92361076E+02</pdfrwt>
<totfact> 0.13310039E+05</totfact>
</mgrwt>
</event>
<event>
 6    1  0.1535970E-002  0.9204894E+02  0.7546771E-02  0.1389425E+00
         -2   -1    0    0    0  501 -0.00000000000E+00  0.00000000000E+00  0.31318016039E+01  0.31318016039E+01  0.00000000000E+00 0. -1.
          2   -1    0    0  501    0  0.00000000000E+00 -0.00000000000E+00 -0.11159922505E+04  0.11159922505E+04  0.00000000000E+00 0.  1.
         23    2    1    2    0    0  0.18872314142E+02 -0.22582644524E+01 -0.10303108293E+04  0.10344145267E+04  0.90065221169E+02 0.  0.
         13    1    3    3    0    0 -0.23426952364E+02 -0.47580435028E+01 -0.89123011006E+02  0.92273355665E+02  0.00000000000E+00 0. -1.
        -13    1    3    3    0    0  0.42299266506E+02  0.24997790505E+01 -0.94118781831E+03  0.94214117104E+03  0.00000000000E+00 0.  1.
         22    1    1    2    0    0 -0.18872314142E+02  0.22582644524E+01 -0.82549619543E+02  0.84709525356E+02  0.00000000000E+00 0. -1.
<mgrwt>
<rscale>  0 0.62050058E+02</rscale>
<asrwt>0</asrwt>
<pdfrwt beam="1">  1        2 0.17169120E+00 0.92048944E+02</pdfrwt>
<pdfrwt beam="2">  1       -2 0.48181540E-03 0.92048944E+02</pdfrwt>
<totfact> 0.12116854E+05</totfact>
</mgrwt>
</event>
<event>
 6    1  0.1535970E-002  0.9345693E+02  0.7546771E-02  0.1423566E+00
         -2   -1    0    0    0  501 -0.00000000000E+00  0.00000000000E+00  0.19786767176E+03  0.19786767176E+03  0.00000000000E+00 0. -1.
          2   -1    0    0  501    0  0.00000000000E+00 -0.00000000000E+00 -0.16484038903E+02  0.16484038903E+02  0.00000000000E+00 0.  1.
         23    2    1    2    0    0 -0.80979076097E+01 -0.68857083956E+01  0.12022842201E+03  0.15227958406E+03  0.92850466740E+02 0.  0.
         13    1    3    3    0    0 -0.21350038213E+02  0.39384739145E+02  0.66051116712E+02  0.79810599722E+02  0.00000000000E+00 0. -1.
        -13    1    3    3    0    0  0.13252130603E+02 -0.46270447540E+02  0.54177305300E+02  0.72468984336E+02  0.00000000000E+00 0.  1.
         22    1    1    2    0    0  0.80979076097E+01  0.68857083956E+01  0.61155210849E+02  0.62072126609E+02  0.00000000000E+00 0. -1.
<mgrwt>
<rscale>  0 0.54273547E+02</rscale>
<asrwt>0</asrwt>
<pdfrwt beam="1">  1        2 0.25360061E-02 0.93456933E+02</pdfrwt>
<pdfrwt beam="2">  1       -2 0.30441179E-01 0.93456933E+02</pdfrwt>
<totfact> 0.34224403E+04</totfact>
</mgrwt>
</event>
<event>
 6    1  0.1535970E-002  0.9726742E+02  0.7546771E-02  0.1340612E+00
         -2   -1    0    0    0  501 -0.00000000000E+00  0.00000000000E+00  0.44393530661E+03  0.44393530661E+03  0.00000000000E+00 0.  1.
          2   -1    0    0  501    0  0.00000000000E+00 -0.00000000000E+00 -0.10084654899E+02  0.10084654899E+02  0.00000000000E+00 0. -1.
         23    2    1    2    0    0  0.36341956676E+02 -0.15031178501E+01  0.30504231617E+03  0.32017458623E+03  0.90210608225E+02 0.  0.
         11    1    3    3    0    0  0.26432681257E+02  0.43436129893E+02  0.17458104909E+03  0.18183488862E+03  0.00000000000E+00 0. -1.
        -11    1    3    3    0    0  0.99092754195E+01 -0.44939247743E+02  0.13046126708E+03  0.13833969761E+03  0.00000000000E+00 0.  1.
         22    1    1    2    0    0 -0.36341956676E+02  0.15031178501E+01  0.12880833555E+03  0.13384537528E+03  0.00000000000E+00 0.  1.
<mgrwt>
<rscale>  0 0.76062468E+02</rscale>
<asrwt>0</asrwt>
<pdfrwt beam="1">  1        2 0.15514857E-02 0.97267420E+02</pdfrwt>
<pdfrwt beam="2">  1       -2 0.68297725E-01 0.97267420E+02</pdfrwt>
<totfact> 0.14013753E+04</totfact>
</mgrwt>
</event>
<event>
 6    1  0.1535970E-002  0.8996142E+02  0.7546771E-02  0.1423996E+00
          2   -1    0    0  501    0  0.00000000000E+00  0.00000000000E+00  0.16839800848E+03  0.16839800848E+03  0.00000000000E+00 0.  1.
         -2   -1    0    0    0  501 -0.00000000000E+00 -0.00000000000E+00 -0.21530729720E+02  0.21530729720E+02  0.00000000000E+00 0. -1.
         23    2    1    2    0    0 -0.11574319660E+02 -0.24908632463E+01  0.15231356521E+03  0.17689680390E+03  0.89178965056E+02 0.  0.
         11    1    3    3    0    0  0.29748560832E+02 -0.50256907841E+00  0.14674802525E+02  0.33174979674E+02  0.00000000000E+00 0. -1.
        -11    1    3    3    0    0 -0.41322880492E+02 -0.19882941679E+01  0.13763876268E+03  0.14372182423E+03  0.00000000000E+00 0.  1.
         22    1    1    2    0    0  0.11574319660E+02  0.24908632463E+01 -0.54462864533E+01  0.13031934294E+02  0.00000000000E+00 0. -1.
<mgrwt>
<rscale>  0 0.54184345E+02</rscale>
<asrwt>0</asrwt>
<pdfrwt beam="1">  1        2 0.25907385E-01 0.89961420E+02</pdfrwt>
<pdfrwt beam="2">  1       -2 0.33124201E-02 0.89961420E+02</pdfrwt>
<totfact> 0.64939665E+04</totfact>
</mgrwt>
</event>
<event>
 6    1  0.1535970E-002  0.9897670E+02  0.7546771E-02  0.1338187E+00
          2   -1    0    0  501    0  0.00000000000E+00  0.00000000000E+00  0.34300102573E+03  0.34300102573E+03  0.00000000000E+00 0. -1.
         -2   -1    0    0    0  501 -0.00000000000E+00 -0.00000000000E+00 -0.13313709439E+02  0.13313709439E+02  0.00000000000E+00 0.  1.
         23    2    1    2    0    0  0.28714607964E+02 -0.21718957897E+02  0.24953534137E+03  0.26844789885E+03  0.92196236132E+02 0.  0.
         11    1    3    3    0    0  0.46525054896E+02 -0.48105386985E+02  0.16056221737E+03  0.17395095469E+03  0.00000000000E+00 0. -1.
        -11    1    3    3    0    0 -0.17810446932E+02  0.26386429088E+02  0.88973124001E+02  0.94496944154E+02  0.00000000000E+00 0.  1.
         22    1    1    2    0    0 -0.28714607964E+02  0.21718957897E+02  0.80151974916E+02  0.87866836324E+02  0.00000000000E+00 0.  1.
<mgrwt>
<rscale>  0 0.76866214E+02</rscale>
<asrwt>0</asrwt>
<pdfrwt beam="1">  1        2 0.52769382E-01 0.98976703E+02</pdfrwt>
<pdfrwt beam="2">  1       -2 0.20482633E-02 0.98976703E+02</pdfrwt>
<totfact> 0.62178426E+04</totfact>
</mgrwt>
</event>
<event>
 6    1  0.1535970E-002  0.8719606E+02  0.7546771E-02  0.1432295E+00
         -3   -1    0    0    0  501 -0.00000000000E+00  0.00000000000E+00  0.25378557276E+01  0.25378557276E+01  0.00000000000E+00 0.  1.
          3   -1    0    0  501    0  0.00000000000E+00 -0.00000000000E+00 -0.10525508458E+04  0.10525508458E+04  0.00000000000E+00 0. -1.
         23    2    1    2    0    0 -0.10431072992E+02  0.47480709715E+01 -0.99928870260E+03  0.10030857708E+04  0.86439580243E+02 0.  0.
         11    1    3    3    0    0  0.10370670173E+02 -0.16927070986E+02 -0.87473586980E+03  0.87496109539E+03  0.00000000000E+00 0. -1.
        -11    1    3    3    0    0 -0.20801743165E+02  0.21675141958E+02 -0.12455283280E+03  0.12812467544E+03  0.00000000000E+00 0.  1.
         22    1    1    2    0    0  0.10431072992E+02 -0.47480709715E+01 -0.50724287463E+02  0.52002930690E+02  0.00000000000E+00 0. -1.
<mgrwt>
<rscale>  0 0.52502140E+02</rscale>
<asrwt>0</asrwt>
<pdfrwt beam="1">  1        3 0.16193085E+00 0.87196058E+02</pdfrwt>
<pdfrwt beam="2">  1       -3 0.39043947E-03 0.87196058E+02</pdfrwt>
<totfact> 0.65226608E+03</totfact>
</mgrwt>
</event>
<event>
 6    1  0.1535970E-002  0.1046829E+03  0.7546771E-02  0.1373000E+00
         -2   -1    0    0    0  501 -0.00000000000E+00  0.00000000000E+00  0.25322883989E+02  0.25322883989E+02  0.00000000000E+00 0.  1.
          2   -1    0    0  501    0  0.00000000000E+00 -0.00000000000E+00 -0.14706504426E+03  0.14706504426E+03  0.00000000000E+00 0. -1.
         23    2    1    2    0    0 -0.78249159616E+01  0.14961489671E+02 -0.10981201573E+03  0.15171418085E+03  0.10331233415E+03 0.  0.
         11    1    3    3    0    0  0.29981583746E+02  0.14705770144E+02  0.22269781934E+01  0.33468111261E+02  0.00000000000E+00 0.  1.
        -11    1    3    3    0    0 -0.37806499708E+02  0.25571952633E+00 -0.11203899393E+03  0.11824606959E+03  0.00000000000E+00 0. -1.
         22    1    1    2    0    0  0.78249159616E+01 -0.14961489671E+02 -0.11930144541E+02  0.20673747405E+02  0.00000000000E+00 0. -1.
<mgrwt>
<rscale>  0 0.66340212E+02</rscale>
<asrwt>0</asrwt>
<pdfrwt beam="1">  1        2 0.22625392E-01 0.10468292E+03</pdfrwt>
<pdfrwt beam="2">  1       -2 0.38958283E-02 0.10468292E+03</pdfrwt>
<totfact> 0.60634418E+04</totfact>
</mgrwt>
</event>
<event>
 6    1  0.1535970E-002  0.9138287E+02  0.7546771E-02  0.1423131E+00
         -1   -1    0    0    0  501 -0.00000000000E+00  0.00000000000E+00  0.64250240834E+01  0.64250240834E+01  0.00000000000E+00 0.  1.
          1   -1    0    0  501    0  0.00000000000E+00 -0.00000000000E+00 -0.60419139140E+03  0.60419139140E+03  0.00000000000E+00 0. -1.
         23    2    1    2    0    0  0.10504408642E+02 -0.45460122607E+01 -0.58939167302E+03  0.59643387929E+03  0.90663219137E+02 0.  0.
         13    1    3    3    0    0 -0.10752057194E+02 -0.18109745616E+02 -0.31025720929E+02  0.37498866374E+02  0.00000000000E+00 0.  1.
        -13    1    3    3    0    0  0.21256465836E+02  0.13563733355E+02 -0.55836595209E+03  0.55893501291E+03  0.00000000000E+00 0. -1.
         22    1    1    2    0    0 -0.10504408642E+02  0.45460122607E+01 -0.83746942897E+01  0.14182536192E+02  0.00000000000E+00 0. -1.
<mgrwt>
<rscale>  0 0.54363968E+02</rscale>
<asrwt>0</asrwt>
<pdfrwt beam="1">  1        1 0.92952527E-01 0.91382866E+02</pdfrwt>
<pdfrwt beam="2">  1       -1 0.98846519E-03 0.91382866E+02</pdfrwt>
<totfact> 0.58899766E+04</totfact>
</mgrwt>
</event>
<event>
 6    1  0.1535970E-002  0.1030625E+03  0.7546771E-02  0.1369021E+00
          2   -1    0    0  501    0  0.00000000000E+00  0.00000000000E+00  0.55781027671E+03  0.55781027671E+03  0.00000000000E+00 0. -1.
         -2   -1    0    0    0  501 -0.00000000000E+00 -0.00000000000E+00 -0.66663760420E+01  0.66663760420E+01  0.00000000000E+00 0.  1.
         23    2    1    2    0    0  0.18895742497E+02  0.11353394981E+00  0.46468958868E+03  0.47598139844E+03  0.10131542755E+03 0.  0.
         13    1    3    3    0    0 -0.62596180703E+01 -0.39384639718E+02  0.90809877750E+02  0.99180474697E+02  0.00000000000E+00 0.  1.
        -13    1    3    3    0    0  0.25155360567E+02  0.39498173668E+02  0.37387971093E+03  0.37680092375E+03  0.00000000000E+00 0. -1.
         22    1    1    2    0    0 -0.18895742497E+02 -0.11353394981E+00  0.86454311983E+02  0.88495254307E+02  0.00000000000E+00 0. -1.
<mgrwt>
<rscale>  0 0.67440136E+02</rscale>
<asrwt>0</asrwt>
<pdfrwt beam="1">  1        2 0.85816929E-01 0.10306249E+03</pdfrwt>
<pdfrwt beam="2">  1       -2 0.10255968E-02 0.10306249E+03</pdfrwt>
<totfact> 0.99899270E+04</totfact>
</mgrwt>
</event>
<event>
 6    1  0.1535970E-002  0.9384434E+02  0.7546771E-02  0.1392478E+00
         -2   -1    0    0    0  501 -0.00000000000E+00  0.00000000000E+00  0.96723872279E+02  0.96723872279E+02  0.00000000000E+00 0.  1.
          2   -1    0    0  501    0  0.00000000000E+00 -0.00000000000E+00 -0.66431412318E+02  0.66431412318E+02  0.00000000000E+00 0. -1.
         23    2    1    2    0    0 -0.16982228389E+02  0.18164082688E+01 -0.31543691983E+02  0.99003861330E+02  0.92277107856E+02 0.  0.
         13    1    3    3    0    0  0.15104458767E+02 -0.29707697134E+02  0.12931080008E+02  0.35747793971E+02  0.00000000000E+00 0.  1.
        -13    1    3    3    0    0 -0.32086687155E+02  0.31524105402E+02 -0.44474771991E+02  0.63256067359E+02  0.00000000000E+00 0. -1.
         22    1    1    2    0    0  0.16982228389E+02 -0.18164082688E+01  0.61836151944E+02  0.64151423268E+02  0.00000000000E+00 0.  1.
<mgrwt>
<rscale>  0 0.61294607E+02</rscale>
<asrwt>0</asrwt>
<pdfrwt beam="1">  1        2 0.10220217E-01 0.93844339E+02</pdfrwt>
<pdfrwt beam="2">  1       -2 0.14880596E-01 0.93844339E+02</pdfrwt>
<totfact> 0.19239572E+04</totfact>
</mgrwt>
</event>
<event>
 6    1  0.1535970E-002  0.9445008E+02  0.7546771E-02  0.1405531E+00
         -1   -1    0    0    0  501 -0.00000000000E+00  0.00000000000E+00  0.26540126739E+02  0.26540126739E+02  0.00000000000E+00 0.  1.
          1   -1    0    0  501    0  0.00000000000E+00 -0.00000000000E+00 -0.25273737068E+03  0.25273737068E+03  0.00000000000E+00 0. -1.
         23    2    1    2    0    0  0.78529087271E+01  0.11128281961E+02 -0.24118873678E+03  0.25902282654E+03  0.93462886116E+02 0.  0.
         11    1    3    3    0    0 -0.42660796669E+02  0.26132431269E+00 -0.10263538446E+03  0.11114870223E+03  0.00000000000E+00 0.  1.
        -11    1    3    3    0    0  0.50513705396E+02  0.10866957648E+02 -0.13855335232E+03  0.14787412431E+03  0.00000000000E+00 0. -1.
         22    1    1    2    0    0 -0.78529087271E+01 -0.11128281961E+02  0.14991492842E+02  0.20254670881E+02  0.00000000000E+00 0.  1.
<mgrwt>
<rscale>  0 0.58203184E+02</rscale>
<asrwt>0</asrwt>
<pdfrwt beam="1">  1        1 0.38882671E-01 0.94450082E+02</pdfrwt>
<pdfrwt beam="2">  1       -1 0.40830965E-02 0.94450082E+02</pdfrwt>
<totfact> 0.23235989E+04</totfact>
</mgrwt>
</event>
<event>
 6    1  0.1535970E-002  0.9392153E+02  0.7546771E-02  0.1397122E+00
         -2   -1    0    0    0  501 -0.00000000000E+00  0.00000000000E+00  0.29351367265E+01  0.29351367265E+01  0.00000000000E+00 0.  1.
          2   -1    0    0  501    0  0.00000000000E+00 -0.00000000000E+00 -0.11338484449E+04  0.11338484449E+04  0.00000000000E+00 0. -1.
         23    2    1    2    0    0 -0.96784889208E+01 -0.12514030809E+02 -0.10586889376E+04  0.10628468937E+04  0.92579580707E+02 0.  0.
         11    1    3    3    0    0 -0.11888132230E+02 -0.36324517868E+01 -0.16704028876E+02  0.20821790859E+02  0.00000000000E+00 0.  1.
        -11    1    3    3    0    0  0.22096433087E+01 -0.88815790222E+01 -0.10419849087E+04  0.10420251028E+04  0.00000000000E+00 0. -1.
         22    1    1    2    0    0  0.96784889208E+01  0.12514030809E+02 -0.72224370578E+02  0.73936687918E+02  0.00000000000E+00 0.  1.
<mgrwt>
<rscale>  0 0.60169423E+02</rscale>
<asrwt>0</asrwt>
<pdfrwt beam="1">  1        2 0.17443855E+00 0.93921525E+02</pdfrwt>
<pdfrwt beam="2">  1       -2 0.45155864E-03 0.93921525E+02</pdfrwt>
<totfact> 0.13003091E+05</totfact>
</mgrwt>
</event>
<event>
 6    1  0.1535970E-002  0.8970816E+02  0.7546771E-02  0.1394737E+00
          2   -1    0    0  501    0  0.00000000000E+00  0.00000000000E+00  0.10951747120E+04  0.10951747120E+04  0.00000000000E+00 0. -1.
         -2   -1    0    0    0  501 -0.00000000000E+00 -0.00000000000E+00 -0.70528556989E+01  0.70528556989E+01  0.00000000000E+00 0.  1.
         23    2    1    2    0    0  0.67516461373E+01 -0.17608712995E+02  0.10761656304E+04  0.10798981513E+04  0.87703487056E+02 0.  0.
         13    1    3    3    0    0 -0.28044775188E+02 -0.84618256674E+01  0.13953435349E+03  0.14257611200E+03  0.00000000000E+00 0.  1.
        -13    1    3    3    0    0  0.34796421326E+02 -0.91468873281E+01  0.93663127687E+03  0.93732203927E+03  0.00000000000E+00 0. -1.
         22    1    1    2    0    0 -0.67516461373E+01  0.17608712995E+02  0.11956225915E+02  0.22329416407E+02  0.00000000000E+00 0.  1.
<mgrwt>
<rscale>  0 0.60743810E+02</rscale>
<asrwt>0</asrwt>
<pdfrwt beam="1">  1        2 0.16848828E+00 0.89708155E+02</pdfrwt>
<pdfrwt beam="2">  1       -2 0.10850556E-02 0.89708155E+02</pdfrwt>
<totfact> 0.39550711E+04</totfact>
</mgrwt>
</event>
<event>
 6    1  0.1535970E-002  0.1007339E+03  0.7546771E-02  0.1329397E+00
          1   -1    0    0  501    0  0.00000000000E+00  0.00000000000E+00  0.39701561646E+02  0.39701561646E+02  0.00000000000E+00 0. -1.
         -1   -1    0    0    0  501 -0.00000000000E+00 -0.00000000000E+00 -0.24327072405E+03  0.24327072405E+03  0.00000000000E+00 0.  1.
         23    2    1    2    0    0 -0.15962166540E+02 -0.36489492470E+02 -0.30311149852E+02  0.10519542349E+03  0.92525874744E+02 0.  0.
         11    1    3    3    0    0 -0.10719939022E+02  0.71628354488E+01  0.28783791040E+02  0.31539339418E+02  0.00000000000E+00 0. -1.
        -11    1    3    3    0    0 -0.52422275187E+01 -0.43652327919E+02 -0.59094940892E+02  0.73656084074E+02  0.00000000000E+00 0.  1.
         22    1    1    2    0    0  0.15962166540E+02  0.36489492470E+02 -0.17325801255E+03  0.17777686220E+03  0.00000000000E+00 0.  1.
<mgrwt>
<rscale>  0 0.79878314E+02</rscale>
<asrwt>0</asrwt>
<pdfrwt beam="1">  1        1 0.61079327E-02 0.10073386E+03</pdfrwt>
<pdfrwt beam="2">  1       -1 0.37426264E-01 0.10073386E+03</pdfrwt>
<totfact> 0.80636040E+03</totfact>
</mgrwt>
</event>
<event>
 6    1  0.1535970E-002  0.9211204E+02  0.7546771E-02  0.1426891E+00
         -1   -1    0    0    0  501 -0.00000000000E+00  0.00000000000E+00  0.36479324102E+01  0.36479324102E+01  0.00000000000E+00 0. -1.
          1   -1    0    0  501    0  0.00000000000E+00 -0.00000000000E+00 -0.76248405687E+03  0.76248405687E+03  0.00000000000E+00 0.  1.
         23    2    1    2    0    0  0.10259767861E+02 -0.24688207825E+01 -0.72070886118E+03  0.72657132552E+03  0.91505576657E+02 0.  0.
         13    1    3    3    0    0 -0.20381101763E+02 -0.37861883277E+02 -0.42639640932E+03  0.42855899173E+03  0.00000000000E+00 0.  1.
        -13    1    3    3    0    0  0.30640869624E+02  0.35393062494E+02 -0.29431245187E+03  0.29801233378E+03  0.00000000000E+00 0. -1.
         22    1    1    2    0    0 -0.10259767861E+02  0.24688207825E+01 -0.38127263275E+02  0.39560663764E+02  0.00000000000E+00 0. -1.
<mgrwt>
<rscale>  0 0.53589221E+02</rscale>
<asrwt>0</asrwt>
<pdfrwt beam="1">  1        1 0.11730542E+00 0.92112043E+02</pdfrwt>
<pdfrwt beam="2">  1       -1 0.56121951E-03 0.92112043E+02</pdfrwt>
<totfact> 0.94457327E+04</totfact>
</mgrwt>
</event>
<event>
 6    1  0.1535970E-002  0.9417212E+02  0.7546771E-02  0.1385175E+00
          2   -1    0    0  501    0  0.00000000000E+00  0.00000000000E+00  0.24821508604E+04  0.24821508604E+04  0.00000000000E+00 0. -1.
         -2   -1    0    0    0  501 -0.00000000000E+00 -0.00000000000E+00 -0.18421025701E+01  0.18421025701E+01  0.00000000000E+00 0.  1.
         23    2    1    2    0    0  0.18742664000E+02  0.31758854937E+01  0.23821321677E+04  0.23839928802E+04  0.92233479823E+02 0.  0.
         11    1    3    3    0    0 -0.32569623158E+02  0.21256596867E+02  0.83679127840E+03  0.83769461433E+03  0.00000000000E+00 0. -1.
        -11    1    3    3    0    0  0.51312287158E+02 -0.18080711374E+02  0.15453408893E+04  0.15462982659E+04  0.00000000000E+00 0.  1.
         22    1    1    2    0    0 -0.18742664000E+02 -0.31758854937E+01  0.98176590144E+02  0.10000008277E+03  0.00000000000E+00 0.  1.
<mgrwt>
<rscale>  0 0.63122812E+02</rscale>
<asrwt>0</asrwt>
<pdfrwt beam="1">  1        2 0.38186669E+00 0.94172122E+02</pdfrwt>
<pdfrwt beam="2">  1       -2 0.28340238E-03 0.94172122E+02</pdfrwt>
<totfact> 0.50543163E+04</totfact>
</mgrwt>
</event>
<event>
 6    1  0.1535970E-002  0.9104624E+02  0.7546771E-02  0.1429368E+00
         -2   -1    0    0    0  501 -0.00000000000E+00  0.00000000000E+00  0.29415747583E+01  0.29415747583E+01  0.00000000000E+00 0.  1.
          2   -1    0    0  501    0  0.00000000000E+00 -0.00000000000E+00 -0.16260515698E+04  0.16260515698E+04  0.00000000000E+00 0. -1.
         23    2    1    2    0    0 -0.84422437625E+01 -0.62830495111E+01 -0.16080228401E+04  0.16105982965E+04  0.90436000768E+02 0.  0.
         11    1    3    3    0    0 -0.10190981148E+02 -0.10746126834E+02 -0.41419371886E+02  0.43987494883E+02  0.00000000000E+00 0.  1.
        -11    1    3    3    0    0  0.17487373850E+01  0.44630773230E+01 -0.15666034682E+04  0.15666108016E+04  0.00000000000E+00 0. -1.
         22    1    1    2    0    0  0.84422437625E+01  0.62830495111E+01 -0.15087154985E+02  0.18394848095E+02  0.00000000000E+00 0.  1.
<mgrwt>
<rscale>  0 0.53087051E+02</rscale>
<asrwt>0</asrwt>
<pdfrwt beam="1">  1        2 0.25016214E+00 0.91046243E+02</pdfrwt>
<pdfrwt beam="2">  1       -2 0.45254932E-03 0.91046243E+02</pdfrwt>
<totfact> 0.71326194E+04</totfact>
</mgrwt>
</event>
<event>
 6    1  0.1535970E-002  0.1048641E+03  0.7546771E-02  0.1309524E+00
          2   -1    0    0  501    0  0.00000000000E+00  0.00000000000E+00  0.11790370668E+04  0.11790370668E+04  0.00000000000E+00 0.  1.
         -2   -1    0    0    0  501 -0.00000000000E+00 -0.00000000000E+00 -0.13495709382E+02  0.13495709382E+02  0.00000000000E+00 0. -1.
         23    2    1    2    0    0 -0.17843451056E+02  0.47105688179E+02  0.11191524268E+04  0.11240545498E+04  0.91973593667E+02 0.  0.
         11    1    3    3    0    0  0.17292366151E+02  0.62925726644E+02  0.77825784018E+03  0.78098907726E+03  0.00000000000E+00 0.  1.
        -11    1    3    3    0    0 -0.35135817207E+02 -0.15820038465E+02  0.34089458664E+03  0.34306547257E+03  0.00000000000E+00 0. -1.
         22    1    1    2    0    0  0.17843451056E+02 -0.47105688179E+02  0.46388930645E+02  0.68478226399E+02  0.00000000000E+00 0. -1.
<mgrwt>
<rscale>  0 0.87300614E+02</rscale>
<asrwt>0</asrwt>
<pdfrwt beam="1">  1        2 0.18139024E+00 0.10486409E+03</pdfrwt>
<pdfrwt beam="2">  1       -2 0.20762639E-02 0.10486409E+03</pdfrwt>
<totfact> 0.14234564E+04</totfact>
</mgrwt>
</event>
<event>
 6    1  0.1535970E-002  0.9523119E+02  0.7546771E-02  0.1374967E+00
         -1   -1    0    0    0  501 -0.00000000000E+00  0.00000000000E+00  0.62694348799E+01  0.62694348799E+01  0.00000000000E+00 0.  1.
          1   -1    0    0  501    0  0.00000000000E+00 -0.00000000000E+00 -0.72641428983E+03  0.72641428983E+03  0.00000000000E+00 0. -1.
         23    2    1    2    0    0  0.21710707969E+02 -0.27862215860E+00 -0.68340024482E+03  0.69000353206E+03  0.92722959228E+02 0.  0.
         13    1    3    3    0    0  0.51755009218E+02  0.21945389456E+02 -0.47073532493E+03  0.47408008525E+03  0.00000000000E+00 0. -1.
        -13    1    3    3    0    0 -0.30044301249E+02 -0.22224011615E+02 -0.21266491989E+03  0.21592344681E+03  0.00000000000E+00 0.  1.
         22    1    1    2    0    0 -0.21710707969E+02  0.27862215860E+00 -0.36744610130E+02  0.42680192647E+02  0.00000000000E+00 0.  1.
<mgrwt>
<rscale>  0 0.65805447E+02</rscale>
<asrwt>0</asrwt>
<pdfrwt beam="1">  1        1 0.11175607E+00 0.95231190E+02</pdfrwt>
<pdfrwt beam="2">  1       -1 0.96452823E-03 0.95231190E+02</pdfrwt>
<totfact> 0.47496330E+04</totfact>
</mgrwt>
</event>
<event>
 6    1  0.1535970E-002  0.9779625E+02  0.7546771E-02  0.1336622E+00
         -2   -1    0    0    0  501 -0.00000000000E+00  0.00000000000E+00  0.82109040497E+01  0.82109040497E+01  0.00000000000E+00 0.  1.
          2   -1    0    0  501    0  0.00000000000E+00 -0.00000000000E+00 -0.67669773372E+03  0.67669773372E+03  0.00000000000E+00 0. -1.
         23    2    1    2    0    0  0.32727984316E+02 -0.19995760581E+02 -0.58389733705E+03  0.59203057976E+03  0.89961968376E+02 0.  0.
         13    1    3    3    0    0  0.56346445571E+02 -0.35135307647E+02 -0.47306727247E+03  0.47770498851E+03  0.00000000000E+00 0. -1.
        -13    1    3    3    0    0 -0.23618461255E+02  0.15139547066E+02 -0.11083006459E+03  0.11432559125E+03  0.00000000000E+00 0.  1.
         22    1    1    2    0    0 -0.32727984316E+02  0.19995760581E+02 -0.84589492622E+02  0.92878058015E+02  0.00000000000E+00 0.  1.
<mgrwt>
<rscale>  0 0.77391177E+02</rscale>
<asrwt>0</asrwt>
<pdfrwt beam="1">  1        2 0.10410735E+00 0.97796253E+02</pdfrwt>
<pdfrwt beam="2">  1       -2 0.12632159E-02 0.97796253E+02</pdfrwt>
<totfact> 0.59286912E+04</totfact>
</mgrwt>
</event>
<event>
 6    1  0.1535970E-002  0.9491362E+02  0.7546771E-02  0.1344583E+00
          2   -1    0    0  501    0  0.00000000000E+00  0.00000000000E+00  0.44581876795E+03  0.44581876795E+03  0.00000000000E+00 0. -1.
         -2   -1    0    0    0  501 -0.00000000000E+00 -0.00000000000E+00 -0.10318950146E+02  0.10318950146E+02  0.00000000000E+00 0.  1.
         23    2    1    2    0    0  0.13206444504E+02  0.34085161317E+02  0.35928108786E+03  0.37160663983E+03  0.87592158747E+02 0.  0.
         13    1    3    3    0    0 -0.30601455282E+01  0.58385337891E+02  0.29831651966E+03  0.30399170725E+03  0.00000000000E+00 0. -1.
        -13    1    3    3    0    0  0.16266590032E+02 -0.24300176574E+02  0.60964568196E+02  0.67614932582E+02  0.00000000000E+00 0.  1.
         22    1    1    2    0    0 -0.13206444504E+02 -0.34085161317E+02  0.76218729949E+02  0.84531078270E+02  0.00000000000E+00 0. -1.
<mgrwt>
<rscale>  0 0.74770566E+02</rscale>
<asrwt>0</asrwt>
<pdfrwt beam="1">  1        2 0.68587488E-01 0.94913617E+02</pdfrwt>
<pdfrwt beam="2">  1       -2 0.15875311E-02 0.94913617E+02</pdfrwt>
<totfact> 0.67590979E+04</totfact>
</mgrwt>
</event>
<event>
 6    1  0.1535970E-002  0.8982609E+02  0.7546771E-02  0.1405227E+00
          1   -1    0    0  501    0  0.00000000000E+00  0.00000000000E+00  0.38722247818E+03  0.38722247818E+03  0.00000000000E+00 0. -1.
         -1   -1    0    0    0  501 -0.00000000000E+00 -0.00000000000E+00 -0.78095946556E+01  0.78095946556E+01  0.00000000000E+00 0.  1.
         23    2    1    2    0    0  0.14556112742E+02 -0.64207755864E+01  0.35253241596E+03  0.36379641510E+03  0.88405998464E+02 0.  0.
         11    1    3    3    0    0 -0.22593764639E+01 -0.16988703242E+02  0.83906209145E+01  0.19082016119E+02  0.00000000000E+00 0.  1.
        -11    1    3    3    0    0  0.16815489206E+02  0.10567927655E+02  0.34414179504E+03  0.34471439898E+03  0.00000000000E+00 0. -1.
         22    1    1    2    0    0 -0.14556112742E+02  0.64207755864E+01  0.26880467564E+02  0.31235657729E+02  0.00000000000E+00 0. -1.
<mgrwt>
<rscale>  0 0.58272663E+02</rscale>
<asrwt>0</asrwt>
<pdfrwt beam="1">  1        1 0.59572674E-01 0.89826095E+02</pdfrwt>
<pdfrwt beam="2">  1       -1 0.12014764E-02 0.89826095E+02</pdfrwt>
<totfact> 0.78875837E+04</totfact>
</mgrwt>
</event>
<event>
 6    1  0.1535970E-002  0.9016869E+02  0.7546771E-02  0.1431341E+00
          2   -1    0    0  501    0  0.00000000000E+00  0.00000000000E+00  0.51801509646E+03  0.51801509646E+03  0.00000000000E+00 0. -1.
         -2   -1    0    0    0  501 -0.00000000000E+00 -0.00000000000E+00 -0.48983405073E+01  0.48983405073E+01  0.00000000000E+00 0.  1.
         23    2    1    2    0    0 -0.65381287052E+01 -0.82350425236E+01  0.45366804467E+03  0.46254198407E+03  0.89553499184E+02 0.  0.
         13    1    3    3    0    0 -0.11831797820E+01 -0.22151851503E+02  0.44446694361E+03  0.44502018876E+03  0.00000000000E+00 0. -1.
        -13    1    3    3    0    0 -0.53549489231E+01  0.13916808979E+02  0.92011010619E+01  0.17521795310E+02  0.00000000000E+00 0.  1.
         22    1    1    2    0    0  0.65381287052E+01  0.82350425236E+01  0.59448711283E+02  0.60371452902E+02  0.00000000000E+00 0.  1.
<mgrwt>
<rscale>  0 0.52691804E+02</rscale>
<asrwt>0</asrwt>
<pdfrwt beam="1">  1        2 0.79694587E-01 0.90168688E+02</pdfrwt>
<pdfrwt beam="2">  1       -2 0.75359126E-03 0.90168688E+02</pdfrwt>
<totfact> 0.16429958E+05</totfact>
</mgrwt>
</event>
<event>
 6    1  0.1535970E-002  0.9313212E+02  0.7546771E-02  0.1417785E+00
         -4   -1    0    0    0  501 -0.00000000000E+00  0.00000000000E+00  0.27299805382E+02  0.27299805382E+02  0.00000000000E+00 0.  1.
          4   -1    0    0  501    0  0.00000000000E+00 -0.00000000000E+00 -0.28595042868E+03  0.28595042868E+03  0.00000000000E+00 0. -1.
         23    2    1    2    0    0  0.83063627530E+01 -0.82950598876E+01 -0.27656912057E+03  0.29182883762E+03  0.92389330177E+02 0.  0.
         11    1    3    3    0    0  0.39293513771E+02  0.12638059377E+02 -0.65126512399E+02  0.77104885621E+02  0.00000000000E+00 0.  1.
        -11    1    3    3    0    0 -0.30987151018E+02 -0.20933119265E+02 -0.21144260817E+03  0.21472395200E+03  0.00000000000E+00 0. -1.
         22    1    1    2    0    0 -0.83063627530E+01  0.82950598876E+01  0.17918497279E+02  0.21421396440E+02  0.00000000000E+00 0.  1.
<mgrwt>
<rscale>  0 0.55492236E+02</rscale>
<asrwt>0</asrwt>
<pdfrwt beam="1">  1        4 0.43992374E-01 0.93132121E+02</pdfrwt>
<pdfrwt beam="2">  1       -4 0.41999700E-02 0.93132121E+02</pdfrwt>
<totfact> 0.23805068E+03</totfact>
</mgrwt>
</event>
<event>
 6    1  0.1535970E-002  0.9224945E+02  0.7546771E-02  0.1385274E+00
         -2   -1    0    0    0  501 -0.00000000000E+00  0.00000000000E+00  0.70582755955E+02  0.70582755955E+02  0.00000000000E+00 0.  1.
          2   -1    0    0  501    0  0.00000000000E+00 -0.00000000000E+00 -0.59368544286E+02  0.59368544286E+02  0.00000000000E+00 0. -1.
         23    2    1    2    0    0  0.17694585660E+02 -0.97253613883E+01 -0.18441333624E+02  0.94074672996E+02  0.90012667429E+02 0.  0.
         13    1    3    3    0    0 -0.31001999102E+02 -0.25836408755E+02 -0.13455007879E+02  0.42540347938E+02  0.00000000000E+00 0. -1.
        -13    1    3    3    0    0  0.48696584762E+02  0.16111047367E+02 -0.49863257450E+01  0.51534325058E+02  0.00000000000E+00 0.  1.
         22    1    1    2    0    0 -0.17694585660E+02  0.97253613883E+01  0.29655545293E+02  0.35876627244E+02  0.00000000000E+00 0.  1.
<mgrwt>
<rscale>  0 0.63097609E+02</rscale>
<asrwt>0</asrwt>
<pdfrwt beam="1">  1        2 0.91336223E-02 0.92249452E+02</pdfrwt>
<pdfrwt beam="2">  1       -2 0.10858885E-01 0.92249452E+02</pdfrwt>
<totfact> 0.36345599E+04</totfact>
</mgrwt>
</event>
<event>
 6    1  0.1535970E-002  0.1080555E+03  0.7546771E-02  0.1373741E+00
          2   -1    0    0  501    0  0.00000000000E+00  0.00000000000E+00  0.14925377148E+03  0.14925377148E+03  0.00000000000E+00 0.  1.
         -2   -1    0    0    0  501 -0.00000000000E+00 -0.00000000000E+00 -0.46860541498E+02  0.46860541498E+02  0.00000000000E+00 0. -1.
         23    2    1    2    0    0  0.11029728743E+01 -0.15125545121E+02  0.12728560092E+03  0.16696592031E+03  0.10698596020E+03 0.  0.
         11    1    3    3    0    0  0.29204368959E+02  0.11538892908E+02 -0.25208241585E+01  0.31502313729E+02  0.00000000000E+00 0. -1.
        -11    1    3    3    0    0 -0.28101396085E+02 -0.26664438029E+02  0.12980642508E+03  0.13546360658E+03  0.00000000000E+00 0.  1.
         22    1    1    2    0    0 -0.11029728743E+01  0.15125545121E+02 -0.24892370934E+02  0.29148392667E+02  0.00000000000E+00 0. -1.
<mgrwt>
<rscale>  0 0.66137971E+02</rscale>
<asrwt>0</asrwt>
<pdfrwt beam="1">  1        2 0.22962119E-01 0.10805552E+03</pdfrwt>
<pdfrwt beam="2">  1       -2 0.72093141E-02 0.10805552E+03</pdfrwt>
<totfact> 0.23826826E+04</totfact>
</mgrwt>
</event>
<event>
 6    1  0.1535970E-002  0.9845599E+02  0.7546771E-02  0.1371873E+00
          2   -1    0    0  501    0  0.00000000000E+00  0.00000000000E+00  0.10377582583E+03  0.10377582583E+03  0.00000000000E+00 0. -1.
         -2   -1    0    0    0  501 -0.00000000000E+00 -0.00000000000E+00 -0.41220098567E+02  0.41220098567E+02  0.00000000000E+00 0.  1.
         23    2    1    2    0    0  0.40441044906E+01  0.20276176313E+02  0.72288406659E+02  0.12214415958E+03  0.96260603962E+02 0.  0.
         13    1    3    3    0    0  0.45654333005E+02  0.31162860894E+02  0.37089049526E+02  0.66566054532E+02  0.00000000000E+00 0. -1.
        -13    1    3    3    0    0 -0.41610228514E+02 -0.10886684581E+02  0.35199357133E+02  0.55578105048E+02  0.00000000000E+00 0.  1.
         22    1    1    2    0    0 -0.40441044906E+01 -0.20276176313E+02 -0.97326793962E+01  0.22851764817E+02  0.00000000000E+00 0.  1.
<mgrwt>
<rscale>  0 0.66649338E+02</rscale>
<asrwt>0</asrwt>
<pdfrwt beam="1">  1        2 0.15965512E-01 0.98455990E+02</pdfrwt>
<pdfrwt beam="2">  1       -2 0.63415537E-02 0.98455990E+02</pdfrwt>
<totfact> 0.43115829E+04</totfact>
</mgrwt>
</event>
<event>
 6    1  0.1535970E-002  0.9506139E+02  0.7546771E-02  0.1362804E+00
         -2   -1    0    0    0  501 -0.00000000000E+00  0.00000000000E+00  0.33419802458E+03  0.33419802458E+03  0.00000000000E+00 0.  1.
          2   -1    0    0  501    0  0.00000000000E+00 -0.00000000000E+00 -0.11346884835E+02  0.11346884835E+02  0.00000000000E+00 0. -1.
         23    2    1    2    0    0  0.93674066872E-01  0.26707358115E+02  0.27154601697E+03  0.28770454829E+03  0.91232538174E+02 0.  0.
         11    1    3    3    0    0  0.63117575456E+01  0.48115597050E+02  0.25592041026E+03  0.26048071973E+03  0.00000000000E+00 0.  1.
        -11    1    3    3    0    0 -0.62180834787E+01 -0.21408238936E+02  0.15625606712E+02  0.27223828563E+02  0.00000000000E+00 0. -1.
         22    1    1    2    0    0 -0.93674066872E-01 -0.26707358115E+02  0.51305122777E+02  0.57840361128E+02  0.00000000000E+00 0. -1.
<mgrwt>
<rscale>  0 0.69208832E+02</rscale>
<asrwt>0</asrwt>
<pdfrwt beam="1">  1        2 0.17456748E-02 0.95061390E+02</pdfrwt>
<pdfrwt beam="2">  1       -2 0.51415073E-01 0.95061390E+02</pdfrwt>
<totfact> 0.21220226E+04</totfact>
</mgrwt>
</event>
<event>
 6    1  0.1535970E-002  0.9415171E+02  0.7546771E-02  0.1373649E+00
         -2   -1    0    0    0  501 -0.00000000000E+00  0.00000000000E+00  0.30906130636E+03  0.30906130636E+03  0.00000000000E+00 0.  1.
          2   -1    0    0  501    0  0.00000000000E+00 -0.00000000000E+00 -0.13686176892E+02  0.13686176892E+02  0.00000000000E+00 0. -1.
         23    2    1    2    0    0 -0.11381319849E+01  0.22931981809E+02  0.16168828792E+03  0.18710330631E+03  0.91309219956E+02 0.  0.
         11    1    3    3    0    0  0.18076113996E+02  0.43692035775E+02  0.39285073392E+02  0.61474034184E+02  0.00000000000E+00 0. -1.
        -11    1    3    3    0    0 -0.19214245981E+02 -0.20760053966E+02  0.12240321453E+03  0.12562927213E+03  0.00000000000E+00 0.  1.
         22    1    1    2    0    0  0.11381319849E+01 -0.22931981809E+02  0.13368684155E+03  0.13564417694E+03  0.00000000000E+00 0.  1.
<mgrwt>
<rscale>  0 0.66162989E+02</rscale>
<asrwt>0</asrwt>
<pdfrwt beam="1">  1        2 0.21055659E-02 0.94151712E+02</pdfrwt>
<pdfrwt beam="2">  1       -2 0.47547888E-01 0.94151712E+02</pdfrwt>
<totfact> 0.19173022E+04</totfact>
</mgrwt>
</event>
<event>
 6    1  0.1535970E-002  0.9362545E+02  0.7546771E-02  0.1393251E+00
         -2   -1    0    0    0  501 -0.00000000000E+00  0.00000000000E+00  0.72346368716E+01  0.72346368716E+01  0.00000000000E+00 0.  1.
          2   -1    0    0  501    0  0.00000000000E+00 -0.00000000000E+00 -0.48236659805E+03  0.48236659805E+03  0.00000000000E+00 0. -1.
         23    2    1    2    0    0 -0.16452274674E+02  0.42314207847E+01 -0.44730822984E+03  0.45700150656E+03  0.92071397560E+02 0.  0.
         11    1    3    3    0    0 -0.10982415350E+01 -0.12273622629E+01 -0.43845158675E+03  0.43845468007E+03  0.00000000000E+00 0. -1.
        -11    1    3    3    0    0 -0.15354033139E+02  0.54587830476E+01 -0.88566430975E+01  0.18546826493E+02  0.00000000000E+00 0.  1.
         22    1    1    2    0    0  0.16452274674E+02 -0.42314207847E+01 -0.27823731331E+02  0.32599728358E+02  0.00000000000E+00 0.  1.
<mgrwt>
<rscale>  0 0.61105336E+02</rscale>
<asrwt>0</asrwt>
<pdfrwt beam="1">  1        2 0.74210288E-01 0.93625448E+02</pdfrwt>
<pdfrwt beam="2">  1       -2 0.11130204E-02 0.93625448E+02</pdfrwt>
<totfact> 0.10282749E+05</totfact>
</mgrwt>
</event>
<event>
 6    1  0.1535970E-002  0.9210987E+02  0.7546771E-02  0.1412245E+00
         -2   -1    0    0    0  501 -0.00000000000E+00  0.00000000000E+00  0.95104440756E+02  0.95104440756E+02  0.00000000000E+00 0.  1.
          2   -1    0    0  501    0  0.00000000000E+00 -0.00000000000E+00 -0.31420644869E+02  0.31420644869E+02  0.00000000000E+00 0. -1.
         23    2    1    2    0    0 -0.13209776276E+02 -0.56008019989E+00  0.42241101257E+02  0.10133379681E+03  0.91155997399E+02 0.  0.
         11    1    3    3    0    0 -0.17524810570E+02 -0.34778843789E+02  0.52484305306E+02  0.65355101287E+02  0.00000000000E+00 0.  1.
        -11    1    3    3    0    0  0.43150342935E+01  0.34218763589E+02 -0.10243204048E+02  0.35978695525E+02  0.00000000000E+00 0. -1.
         22    1    1    2    0    0  0.13209776276E+02  0.56008019989E+00  0.21442694629E+02  0.25191288813E+02  0.00000000000E+00 0.  1.
<mgrwt>
<rscale>  0 0.56695813E+02</rscale>
<asrwt>0</asrwt>
<pdfrwt beam="1">  1        2 0.48339454E-02 0.92109868E+02</pdfrwt>
<pdfrwt beam="2">  1       -2 0.14631452E-01 0.92109868E+02</pdfrwt>
<totfact> 0.50457006E+04</totfact>
</mgrwt>
</event>
<event>
 6    1  0.1535970E-002  0.9143476E+02  0.7546771E-02  0.1384372E+00
          2   -1    0    0  501    0  0.00000000000E+00  0.00000000000E+00  0.86752763221E+02  0.86752763221E+02  0.00000000000E+00 0. -1.
         -2   -1    0    0    0  501 -0.00000000000E+00 -0.00000000000E+00 -0.38045284306E+02  0.38045284306E+02  0.00000000000E+00 0.  1.
         23    2    1    2    0    0 -0.18379421826E+02 -0.10242149779E+02  0.49038388223E+02  0.10375489473E+03  0.88980952353E+02 0.  0.
         13    1    3    3    0    0 -0.10524875826E+02 -0.39782212959E+01  0.75040550708E+02  0.75879401068E+02  0.00000000000E+00 0. -1.
        -13    1    3    3    0    0 -0.78545459997E+01 -0.62639284835E+01 -0.26002162485E+02  0.27875493660E+02  0.00000000000E+00 0.  1.
         22    1    1    2    0    0  0.18379421826E+02  0.10242149779E+02 -0.33090930831E+00  0.21043152799E+02  0.00000000000E+00 0.  1.
<mgrwt>
<rscale>  0 0.63328290E+02</rscale>
<asrwt>0</asrwt>
<pdfrwt beam="1">  1        2 0.13346579E-01 0.91434756E+02</pdfrwt>
<pdfrwt beam="2">  1       -2 0.58531207E-02 0.91434756E+02</pdfrwt>
<totfact> 0.59298038E+04</totfact>
</mgrwt>
</event>
<event>
 6    1  0.1535970E-002  0.9281329E+02  0.7546771E-02  0.1419524E+00
          1   -1    0    0  501    0  0.00000000000E+00  0.00000000000E+00  0.50348183816E+03  0.50348183816E+03  0.00000000000E+00 0. -1.
         -1   -1    0    0    0  501 -0.00000000000E+00 -0.00000000000E+00 -0.57269622063E+01  0.57269622063E+01  0.00000000000E+00 0.  1.
         23    2    1    2    0    0 -0.90116010247E+01 -0.72193068198E+01  0.47117335522E+03  0.48022769293E+03  0.92092231155E+02 0.  0.
         13    1    3    3    0    0  0.15381869625E+01 -0.40636792308E+02  0.38586857609E+03  0.38800550630E+03  0.00000000000E+00 0. -1.
        -13    1    3    3    0    0 -0.10549787987E+02  0.33417485488E+02  0.85304779134E+02  0.92222186625E+02  0.00000000000E+00 0.  1.
         22    1    1    2    0    0  0.90116010247E+01  0.72193068198E+01  0.26581520733E+02  0.28981107441E+02  0.00000000000E+00 0.  1.
<mgrwt>
<rscale>  0 0.55121690E+02</rscale>
<asrwt>0</asrwt>
<pdfrwt beam="1">  1        1 0.77458710E-01 0.92813288E+02</pdfrwt>
<pdfrwt beam="2">  1       -1 0.88107150E-03 0.92813288E+02</pdfrwt>
<totfact> 0.88193399E+04</totfact>
</mgrwt>
</event>
<event>
 6    1  0.1535970E-002  0.9135103E+02  0.7546771E-02  0.1403081E+00
         -2   -1    0    0    0  501 -0.00000000000E+00  0.00000000000E+00  0.30842382420E+01  0.30842382420E+01  0.00000000000E+00 0. -1.
          2   -1    0    0  501    0  0.00000000000E+00 -0.00000000000E+00 -0.14293017641E+04  0.14293017641E+04  0.00000000000E+00 0.  1.
         23    2    1    2    0    0  0.60936628372E+01  0.14409953655E+02 -0.13891699267E+04  0.13921702828E+04  0.90001287232E+02 0.  0.
         13    1    3    3    0    0 -0.72369828724E+01  0.26873735838E+02 -0.13290527652E+04  0.13293441331E+04  0.00000000000E+00 0.  1.
        -13    1    3    3    0    0  0.13330645710E+02 -0.12463782183E+02 -0.60117161457E+02  0.62826149675E+02  0.00000000000E+00 0. -1.
         22    1    1    2    0    0 -0.60936628372E+01 -0.14409953655E+02 -0.37047599159E+02  0.40215719496E+02  0.00000000000E+00 0. -1.
<mgrwt>
<rscale>  0 0.58766791E+02</rscale>
<asrwt>0</asrwt>
<pdfrwt beam="1">  1        2 0.21989341E+00 0.91351033E+02</pdfrwt>
<pdfrwt beam="2">  1       -2 0.47449639E-03 0.91351033E+02</pdfrwt>
<totfact> 0.84124296E+04</totfact>
</mgrwt>
</event>
<event>
 6    1  0.1535970E-002  0.9851287E+02  0.7546771E-02  0.1338252E+00
          2   -1    0    0  501    0  0.00000000000E+00  0.00000000000E+00  0.30074556250E+02  0.30074556250E+02  0.00000000000E+00 0. -1.
         -2   -1    0    0    0  501 -0.00000000000E+00 -0.00000000000E+00 -0.15147070027E+03  0.15147070027E+03  0.00000000000E+00 0.  1.
         23    2    1    2    0    0  0.25737345178E+02  0.25844088696E+02 -0.88918067991E+02  0.13270722544E+03  0.91512059373E+02 0.  0.
         11    1    3    3    0    0 -0.24145080237E+01  0.31884471186E+02  0.68528225640E+01  0.32701842898E+02  0.00000000000E+00 0. -1.
        -11    1    3    3    0    0  0.28151853202E+02 -0.60403824895E+01 -0.95770890555E+02  0.10000538254E+03  0.00000000000E+00 0.  1.
         22    1    1    2    0    0 -0.25737345178E+02 -0.25844088696E+02 -0.32478076025E+02  0.48838031079E+02  0.00000000000E+00 0.  1.
<mgrwt>
<rscale>  0 0.76844812E+02</rscale>
<asrwt>0</asrwt>
<pdfrwt beam="1">  1        2 0.46268548E-02 0.98512867E+02</pdfrwt>
<pdfrwt beam="2">  1       -2 0.23303185E-01 0.98512867E+02</pdfrwt>
<totfact> 0.24862992E+04</totfact>
</mgrwt>
</event>
<event>
 6    1  0.1535970E-002  0.9263452E+02  0.7546771E-02  0.1389345E+00
          2   -1    0    0  501    0  0.00000000000E+00  0.00000000000E+00  0.11502821401E+04  0.11502821401E+04  0.00000000000E+00 0. -1.
         -2   -1    0    0    0  501 -0.00000000000E+00 -0.00000000000E+00 -0.35794945491E+01  0.35794945491E+01  0.00000000000E+00 0.  1.
         23    2    1    2    0    0 -0.18433489799E+02  0.29792884270E+01  0.10946231188E+04  0.10985358105E+04  0.90733043316E+02 0.  0.
         13    1    3    3    0    0 -0.55183205191E+02 -0.17029562262E+01  0.70280741083E+03  0.70497258309E+03  0.00000000000E+00 0.  1.
        -13    1    3    3    0    0  0.36749715393E+02  0.46822446533E+01  0.39181570796E+03  0.39356322745E+03  0.00000000000E+00 0. -1.
         22    1    1    2    0    0  0.18433489799E+02 -0.29792884270E+01  0.52079526801E+02  0.55325824147E+02  0.00000000000E+00 0.  1.
<mgrwt>
<rscale>  0 0.62069955E+02</rscale>
<asrwt>0</asrwt>
<pdfrwt beam="1">  1        2 0.17696619E+00 0.92634523E+02</pdfrwt>
<pdfrwt beam="2">  1       -2 0.55069239E-03 0.92634523E+02</pdfrwt>
<totfact> 0.96232209E+04</totfact>
</mgrwt>
</event>
<event>
 6    1  0.1535970E-002  0.9067266E+02  0.7546771E-02  0.1400613E+00
          2   -1    0    0  501    0  0.00000000000E+00  0.00000000000E+00  0.62125192262E+02  0.62125192262E+02  0.00000000000E+00 0. -1.
         -2   -1    0    0    0  501 -0.00000000000E+00 -0.00000000000E+00 -0.55594424910E+02  0.55594424910E+02  0.00000000000E+00 0.  1.
         23    2    1    2    0    0  0.16274840917E+02 -0.34434890359E+01  0.23797151711E+02  0.93743460422E+02  0.89133629337E+02 0.  0.
         13    1    3    3    0    0  0.98038580460E+01 -0.42607973835E+02  0.30738850602E+02  0.53445598539E+02  0.00000000000E+00 0. -1.
        -13    1    3    3    0    0  0.64709828714E+01  0.39164484799E+02 -0.69416988913E+01  0.40297861883E+02  0.00000000000E+00 0.  1.
         22    1    1    2    0    0 -0.16274840917E+02  0.34434890359E+01 -0.17266384359E+02  0.23976156749E+02  0.00000000000E+00 0. -1.
<mgrwt>
<rscale>  0 0.59342239E+02</rscale>
<asrwt>0</asrwt>
<pdfrwt beam="1">  1        2 0.95577219E-02 0.90672664E+02</pdfrwt>
<pdfrwt beam="2">  1       -2 0.85529884E-02 0.90672664E+02</pdfrwt>
<totfact> 0.49677542E+04</totfact>
</mgrwt>
</event>
<event>
 6    1  0.1535970E-002  0.9227536E+02  0.7546771E-02  0.1411691E+00
          2   -1    0    0  501    0  0.00000000000E+00  0.00000000000E+00  0.15313024355E+02  0.15313024355E+02  0.00000000000E+00 0. -1.
         -2   -1    0    0    0  501 -0.00000000000E+00 -0.00000000000E+00 -0.18916807063E+03  0.18916807063E+03  0.00000000000E+00 0.  1.
         23    2    1    2    0    0  0.10466852820E+02 -0.81481407832E+01 -0.16314427616E+03  0.18743211253E+03  0.91317001476E+02 0.  0.
         11    1    3    3    0    0  0.24755233002E+02  0.36901677647E+02 -0.89557604464E+02  0.99975596480E+02  0.00000000000E+00 0. -1.
        -11    1    3    3    0    0 -0.14288380182E+02 -0.45049818430E+02 -0.73586671698E+02  0.87456516054E+02  0.00000000000E+00 0.  1.
         22    1    1    2    0    0 -0.10466852820E+02  0.81481407832E+01 -0.10710770112E+02  0.17048982450E+02  0.00000000000E+00 0.  1.
<mgrwt>
<rscale>  0 0.56818152E+02</rscale>
<asrwt>0</asrwt>
<pdfrwt beam="1">  1        2 0.23558500E-02 0.92275359E+02</pdfrwt>
<pdfrwt beam="2">  1       -2 0.29102779E-01 0.92275359E+02</pdfrwt>
<totfact> 0.40852177E+04</totfact>
</mgrwt>
</event>
<event>
 6    1  0.1535970E-002  0.9434710E+02  0.7546771E-02  0.1420718E+00
         -1   -1    0    0    0  501 -0.00000000000E+00  0.00000000000E+00  0.54159484920E+01  0.54159484920E+01  0.00000000000E+00 0.  1.
          1   -1    0    0  501    0  0.00000000000E+00 -0.00000000000E+00 -0.58537872749E+03  0.58537872749E+03  0.00000000000E+00 0. -1.
         23    2    1    2    0    0 -0.80210167124E+01 -0.72213837153E+01 -0.56180045348E+03  0.56966755691E+03  0.93727748185E+02 0.  0.
         13    1    3    3    0    0  0.35005058018E+02  0.11200676532E+02 -0.12288105100E+03  0.12825974402E+03  0.00000000000E+00 0.  1.
        -13    1    3    3    0    0 -0.43026074730E+02 -0.18422060247E+02 -0.43891940248E+03  0.44140781289E+03  0.00000000000E+00 0. -1.
         22    1    1    2    0    0  0.80210167124E+01  0.72213837153E+01 -0.18162325524E+02  0.21127119072E+02  0.00000000000E+00 0.  1.
<mgrwt>
<rscale>  0 0.54869401E+02</rscale>
<asrwt>0</asrwt>
<pdfrwt beam="1">  1        1 0.90058251E-01 0.94347103E+02</pdfrwt>
<pdfrwt beam="2">  1       -1 0.83322298E-03 0.94347103E+02</pdfrwt>
<totfact> 0.78505894E+04</totfact>
</mgrwt>
</event>
<event>
 6    1  0.1535970E-002  0.9175947E+02  0.7546771E-02  0.1406854E+00
         -3   -1    0    0    0  501 -0.00000000000E+00  0.00000000000E+00  0.65012793739E+02  0.65012793739E+02  0.00000000000E+00 0.  1.
          3   -1    0    0  501    0  0.00000000000E+00 -0.00000000000E+00 -0.69335747344E+02  0.69335747344E+02  0.00000000000E+00 0. -1.
         23    2    1    2    0    0  0.12918168151E+02 -0.66917516455E+01 -0.36720611509E+02  0.98834222194E+02  0.90598794465E+02 0.  0.
         13    1    3    3    0    0 -0.31691127017E+02 -0.25516506440E+02 -0.28615324421E+02  0.49741898077E+02  0.00000000000E+00 0. -1.
        -13    1    3    3    0    0  0.44609295168E+02  0.18824754794E+02 -0.81052870880E+01  0.49092324117E+02  0.00000000000E+00 0.  1.
         22    1    1    2    0    0 -0.12918168151E+02  0.66917516455E+01  0.32397657904E+02  0.35514318889E+02  0.00000000000E+00 0.  1.
<mgrwt>
<rscale>  0 0.57901879E+02</rscale>
<asrwt>0</asrwt>
<pdfrwt beam="1">  1        3 0.10667038E-01 0.91759469E+02</pdfrwt>
<pdfrwt beam="2">  1       -3 0.10001968E-01 0.91759469E+02</pdfrwt>
<totfact> 0.10106201E+04</totfact>
</mgrwt>
</event>
<event>
 6    1  0.1535970E-002  0.9377487E+02  0.7546771E-02  0.1389296E+00
         -2   -1    0    0    0  501 -0.00000000000E+00  0.00000000000E+00  0.72618286202E+01  0.72618286202E+01  0.00000000000E+00 0.  1.
          2   -1    0    0  501    0  0.00000000000E+00 -0.00000000000E+00 -0.44522349547E+03  0.44522349547E+03  0.00000000000E+00 0. -1.
         23    2    1    2    0    0  0.15931598900E+02 -0.84072925944E+01 -0.39336046709E+03  0.40438370839E+03  0.92028409394E+02 0.  0.
         13    1    3    3    0    0  0.20896072067E+02  0.19182121616E+02 -0.35563315225E+02  0.45490097904E+02  0.00000000000E+00 0.  1.
        -13    1    3    3    0    0 -0.49644731677E+01 -0.27589414210E+02 -0.35779715186E+03  0.35889361049E+03  0.00000000000E+00 0. -1.
         22    1    1    2    0    0 -0.15931598900E+02  0.84072925944E+01 -0.44601199765E+02  0.48101615698E+02  0.00000000000E+00 0.  1.
<mgrwt>
<rscale>  0 0.62082105E+02</rscale>
<asrwt>0</asrwt>
<pdfrwt beam="1">  1        2 0.68495917E-01 0.93774872E+02</pdfrwt>
<pdfrwt beam="2">  1       -2 0.11172045E-02 0.93774872E+02</pdfrwt>
<totfact> 0.11146765E+05</totfact>
</mgrwt>
</event>
<event>
 6    1  0.1535970E-002  0.1076164E+03  0.7546771E-02  0.1299098E+00
          2   -1    0    0  501    0  0.00000000000E+00  0.00000000000E+00  0.10351348898E+04  0.10351348898E+04  0.00000000000E+00 0. -1.
         -2   -1    0    0    0  501 -0.00000000000E+00 -0.00000000000E+00 -0.17566069957E+02  0.17566069957E+02  0.00000000000E+00 0.  1.
         23    2    1    2    0    0 -0.49749150312E+02  0.26586975756E+02  0.97775030667E+03  0.98365489375E+03  0.91648472902E+02 0.  0.
         11    1    3    3    0    0 -0.11884883087E+02  0.57070218825E+02  0.58882403237E+03  0.59170262922E+03  0.00000000000E+00 0. -1.
        -11    1    3    3    0    0 -0.37864267224E+02 -0.30483243069E+02  0.38892627429E+03  0.39195226453E+03  0.00000000000E+00 0.  1.
         22    1    1    2    0    0  0.49749150312E+02 -0.26586975756E+02  0.39818513138E+02  0.69046065964E+02  0.00000000000E+00 0.  1.
<mgrwt>
<rscale>  0 0.91567994E+02</rscale>
<asrwt>0</asrwt>
<pdfrwt beam="1">  1        2 0.15925147E+00 0.10761639E+03</pdfrwt>
<pdfrwt beam="2">  1       -2 0.27024731E-02 0.10761639E+03</pdfrwt>
<totfact> 0.11734019E+04</totfact>
</mgrwt>
</event>
<event>
 6    1  0.1535970E-002  0.9812693E+02  0.7546771E-02  0.1334012E+00
         -2   -1    0    0    0  501 -0.00000000000E+00  0.00000000000E+00  0.47494121496E+01  0.47494121496E+01  0.00000000000E+00 0. -1.
          2   -1    0    0  501    0  0.00000000000E+00 -0.00000000000E+00 -0.11159476221E+04  0.11159476221E+04  0.00000000000E+00 0.  1.
         23    2    1    2    0    0  0.10941427885E+02 -0.38199948256E+02 -0.93170353389E+03  0.93685664253E+03  0.89721472973E+02 0.  0.
         13    1    3    3    0    0  0.24818922823E+02 -0.47243668021E+02 -0.28573812389E+03  0.29067889249E+03  0.00000000000E+00 0. -1.
        -13    1    3    3    0    0 -0.13877494937E+02  0.90437197648E+01 -0.64596541000E+03  0.64617775004E+03  0.00000000000E+00 0.  1.
         22    1    1    2    0    0 -0.10941427885E+02  0.38199948256E+02 -0.17949467608E+03  0.18384039173E+03  0.00000000000E+00 0. -1.
<mgrwt>
<rscale>  0 0.78277550E+02</rscale>
<asrwt>0</asrwt>
<pdfrwt beam="1">  1        2 0.17168424E+00 0.98126926E+02</pdfrwt>
<pdfrwt beam="2">  1       -2 0.73067882E-03 0.98126926E+02</pdfrwt>
<totfact> 0.67998229E+04</totfact>
</mgrwt>
</event>
<event>
 6    1  0.1535970E-002  0.9237664E+02  0.7546771E-02  0.1409819E+00
          1   -1    0    0  501    0  0.00000000000E+00  0.00000000000E+00  0.43308830099E+02  0.43308830099E+02  0.00000000000E+00 0. -1.
         -1   -1    0    0    0  501 -0.00000000000E+00 -0.00000000000E+00 -0.83890237827E+02  0.83890237827E+02  0.00000000000E+00 0.  1.
         23    2    1    2    0    0  0.19032245506E+01  0.13478816265E+02 -0.90062899909E+01  0.92814641049E+02  0.91368175980E+02 0.  0.
         13    1    3    3    0    0 -0.22543627965E+02  0.85397057327E+01  0.34842451584E+02  0.42369070891E+02  0.00000000000E+00 0. -1.
        -13    1    3    3    0    0  0.24446852515E+02  0.49391105319E+01 -0.43848741575E+02  0.50445570157E+02  0.00000000000E+00 0.  1.
         22    1    1    2    0    0 -0.19032245506E+01 -0.13478816265E+02 -0.31575117737E+02  0.34384426877E+02  0.00000000000E+00 0.  1.
<mgrwt>
<rscale>  0 0.57234288E+02</rscale>
<asrwt>0</asrwt>
<pdfrwt beam="1">  1        1 0.66628969E-02 0.92376644E+02</pdfrwt>
<pdfrwt beam="2">  1       -1 0.12906190E-01 0.92376644E+02</pdfrwt>
<totfact> 0.39576655E+04</totfact>
</mgrwt>
</event>
<event>
 6    1  0.1535970E-002  0.9819345E+02  0.7546771E-02  0.1353514E+00
         -2   -1    0    0    0  501 -0.00000000000E+00  0.00000000000E+00  0.24440542861E+02  0.24440542861E+02  0.00000000000E+00 0.  1.
          2   -1    0    0  501    0  0.00000000000E+00 -0.00000000000E+00 -0.25551911141E+03  0.25551911141E+03  0.00000000000E+00 0. -1.
         23    2    1    2    0    0  0.16340118587E+02  0.23155096347E+02 -0.23166236449E+03  0.25161360022E+03  0.94014864426E+02 0.  0.
         13    1    3    3    0    0  0.25525007073E+02  0.57090192507E+02 -0.16015155261E+03  0.17192828700E+03  0.00000000000E+00 0. -1.
        -13    1    3    3    0    0 -0.91848884855E+01 -0.33935096160E+02 -0.71510811886E+02  0.79685313229E+02  0.00000000000E+00 0.  1.
         22    1    1    2    0    0 -0.16340118587E+02 -0.23155096347E+02  0.58379594492E+00  0.28346054047E+02  0.00000000000E+00 0.  1.
<mgrwt>
<rscale>  0 0.71971739E+02</rscale>
<asrwt>0</asrwt>
<pdfrwt beam="1">  1        2 0.39310634E-01 0.98193445E+02</pdfrwt>
<pdfrwt beam="2">  1       -2 0.37600834E-02 0.98193445E+02</pdfrwt>
<totfact> 0.34972308E+04</totfact>
</mgrwt>
</event>
<event>
 6    1  0.1535970E-002  0.1000575E+03  0.7546771E-02  0.1347766E+00
         -2   -1    0    0    0  501 -0.00000000000E+00  0.00000000000E+00  0.37558780889E+01  0.37558780889E+01  0.00000000000E+00 0.  1.
          2   -1    0    0  501    0  0.00000000000E+00 -0.00000000000E+00 -0.21641504795E+04  0.21641504795E+04  0.00000000000E+00 0. -1.
         23    2    1    2    0    0  0.98666502518E+01 -0.27846464286E+02 -0.20774399843E+04  0.20798481674E+04  0.95596729482E+02 0.  0.
         11    1    3    3    0    0  0.52615786738E+02 -0.15114816281E+02 -0.12661753153E+04  0.12673582003E+04  0.00000000000E+00 0. -1.
        -11    1    3    3    0    0 -0.42749136486E+02 -0.12731648005E+02 -0.81126466901E+03  0.81248996715E+03  0.00000000000E+00 0.  1.
         22    1    1    2    0    0 -0.98666502518E+01  0.27846464286E+02 -0.82954617135E+02  0.88058190218E+02  0.00000000000E+00 0.  1.
<mgrwt>
<rscale>  0 0.73756489E+02</rscale>
<asrwt>0</asrwt>
<pdfrwt beam="1">  1        2 0.33294684E+00 0.10005754E+03</pdfrwt>
<pdfrwt beam="2">  1       -2 0.57782634E-03 0.10005754E+03</pdfrwt>
<totfact> 0.27317774E+04</totfact>
</mgrwt>
</event>
<event>
 6    1  0.1535970E-002  0.8283544E+02  0.7546771E-02  0.1450011E+00
         -2   -1    0    0    0  501 -0.00000000000E+00  0.00000000000E+00  0.45532267997E+01  0.45532267997E+01  0.00000000000E+00 0.  1.
          2   -1    0    0  501    0  0.00000000000E+00 -0.00000000000E+00 -0.66753569873E+03  0.66753569873E+03  0.00000000000E+00 0. -1.
         23    2    1    2    0    0  0.40652839020E+01  0.94229119477E+01 -0.65126878740E+03  0.65651560835E+03  0.82197279525E+02 0.  0.
         11    1    3    3    0    0  0.38847082700E+02 -0.69913135843E+01 -0.44063175245E+03  0.44239610709E+03  0.00000000000E+00 0. -1.
        -11    1    3    3    0    0 -0.34781798798E+02  0.16414225532E+02 -0.21063703494E+03  0.21411950125E+03  0.00000000000E+00 0.  1.
         22    1    1    2    0    0 -0.40652839020E+01 -0.94229119477E+01 -0.11713684535E+02  0.15573317186E+02  0.00000000000E+00 0. -1.
<mgrwt>
<rscale>  0 0.49144494E+02</rscale>
<asrwt>0</asrwt>
<pdfrwt beam="1">  1        2 0.10269786E+00 0.82835443E+02</pdfrwt>
<pdfrwt beam="2">  1       -2 0.70049600E-03 0.82835443E+02</pdfrwt>
<totfact> 0.13550879E+05</totfact>
</mgrwt>
</event>
<event>
 6    1  0.1535970E-002  0.9755914E+02  0.7546771E-02  0.1386839E+00
          2   -1    0    0  501    0  0.00000000000E+00  0.00000000000E+00  0.74987579907E+03  0.74987579907E+03  0.00000000000E+00 0.  1.
         -2   -1    0    0    0  501 -0.00000000000E+00 -0.00000000000E+00 -0.46929630475E+01  0.46929630475E+01  0.00000000000E+00 0. -1.
         23    2    1    2    0    0 -0.14603606802E+02 -0.79852526886E+01  0.69197427066E+03  0.69881769917E+03  0.96128850103E+02 0.  0.
         11    1    3    3    0    0 -0.21342161125E+02 -0.31862998957E+02  0.64079698521E+03  0.64194354487E+03  0.00000000000E+00 0.  1.
        -11    1    3    3    0    0  0.67385543228E+01  0.23877746268E+02  0.51177285451E+02  0.56874154300E+02  0.00000000000E+00 0. -1.
         22    1    1    2    0    0  0.14603606802E+02  0.79852526886E+01  0.53208565362E+02  0.55751062950E+02  0.00000000000E+00 0. -1.
<mgrwt>
<rscale>  0 0.62699884E+02</rscale>
<asrwt>0</asrwt>
<pdfrwt beam="1">  1        2 0.11536541E+00 0.97559138E+02</pdfrwt>
<pdfrwt beam="2">  1       -2 0.72199491E-03 0.97559138E+02</pdfrwt>
<totfact> 0.11605465E+05</totfact>
</mgrwt>
</event>
<event>
 6    1  0.1535970E-002  0.9659707E+02  0.7546771E-02  0.1350813E+00
         -2   -1    0    0    0  501 -0.00000000000E+00  0.00000000000E+00  0.31356921978E+02  0.31356921978E+02  0.00000000000E+00 0.  1.
          2   -1    0    0  501    0  0.00000000000E+00 -0.00000000000E+00 -0.13265199589E+03  0.13265199589E+03  0.00000000000E+00 0. -1.
         23    2    1    2    0    0  0.23474783076E+02  0.20502256909E+02 -0.85810317934E+02  0.12920682531E+03  0.91430766504E+02 0.  0.
         11    1    3    3    0    0  0.41095423963E+02  0.38004064178E+02 -0.87980108986E+02  0.10427675840E+03  0.00000000000E+00 0. -1.
        -11    1    3    3    0    0 -0.17620640886E+02 -0.17501807269E+02  0.21697910527E+01  0.24930066910E+02  0.00000000000E+00 0.  1.
         22    1    1    2    0    0 -0.23474783076E+02 -0.20502256909E+02 -0.15484755978E+02  0.34802092560E+02  0.00000000000E+00 0. -1.
<mgrwt>
<rscale>  0 0.72802813E+02</rscale>
<asrwt>0</asrwt>
<pdfrwt beam="1">  1        2 0.20408000E-01 0.96597065E+02</pdfrwt>
<pdfrwt beam="2">  1       -2 0.48241418E-02 0.96597065E+02</pdfrwt>
<totfact> 0.49030779E+04</totfact>
</mgrwt>
</event>
<event>
 6    1  0.1535970E-002  0.9113450E+02  0.7546771E-02  0.1386688E+00
          2   -1    0    0  501    0  0.00000000000E+00  0.00000000000E+00  0.21771115147E+03  0.21771115147E+03  0.00000000000E+00 0. -1.
         -2   -1    0    0    0  501 -0.00000000000E+00 -0.00000000000E+00 -0.14308087346E+02  0.14308087346E+02  0.00000000000E+00 0.  1.
         23    2    1    2    0    0 -0.11223057290E+02  0.17116756260E+02  0.16787080184E+03  0.19101336091E+03  0.88806292436E+02 0.  0.
         13    1    3    3    0    0 -0.15951862376E+02  0.27144227884E+02  0.17501492647E+03  0.17782433891E+03  0.00000000000E+00 0. -1.
        -13    1    3    3    0    0  0.47288050860E+01 -0.10027471625E+02 -0.71441246285E+01  0.13189022005E+02  0.00000000000E+00 0.  1.
         22    1    1    2    0    0  0.11223057290E+02 -0.17116756260E+02  0.35532262283E+02  0.41005877905E+02  0.00000000000E+00 0. -1.
<mgrwt>
<rscale>  0 0.62738070E+02</rscale>
<asrwt>0</asrwt>
<pdfrwt beam="1">  1        2 0.33494021E-01 0.91134505E+02</pdfrwt>
<pdfrwt beam="2">  1       -2 0.22012444E-02 0.91134505E+02</pdfrwt>
<totfact> 0.89329904E+04</totfact>
</mgrwt>
</event>
<event>
 6    1  0.1535970E-002  0.9595731E+02  0.7546771E-02  0.1363472E+00
         -2   -1    0    0    0  501 -0.00000000000E+00  0.00000000000E+00  0.95721670836E+01  0.95721670836E+01  0.00000000000E+00 0.  1.
          2   -1    0    0  501    0  0.00000000000E+00 -0.00000000000E+00 -0.46011302766E+03  0.46011302766E+03  0.00000000000E+00 0. -1.
         23    2    1    2    0    0 -0.74254524395E+01  0.24581111944E+02 -0.41431272299E+03  0.42527971804E+03  0.92457761904E+02 0.  0.
         11    1    3    3    0    0 -0.27066912578E+02 -0.50738743980E+01 -0.36132285415E+02  0.45430210293E+02  0.00000000000E+00 0.  1.
        -11    1    3    3    0    0  0.19641460139E+02  0.29654986342E+02 -0.37818043757E+03  0.37984950774E+03  0.00000000000E+00 0. -1.
         22    1    1    2    0    0  0.74254524395E+01 -0.24581111944E+02 -0.36228137589E+02  0.44405476706E+02  0.00000000000E+00 0.  1.
<mgrwt>
<rscale>  0 0.69015967E+02</rscale>
<asrwt>0</asrwt>
<pdfrwt beam="1">  1        2 0.70786596E-01 0.95957314E+02</pdfrwt>
<pdfrwt beam="2">  1       -2 0.14726416E-02 0.95957314E+02</pdfrwt>
<totfact> 0.72862642E+04</totfact>
</mgrwt>
</event>
<event>
 6    1  0.1535970E-002  0.1052710E+03  0.7546771E-02  0.1351685E+00
         -2   -1    0    0    0  501 -0.00000000000E+00  0.00000000000E+00  0.86326043090E+01  0.86326043090E+01  0.00000000000E+00 0.  1.
          2   -1    0    0  501    0  0.00000000000E+00 -0.00000000000E+00 -0.48590669209E+03  0.48590669209E+03  0.00000000000E+00 0. -1.
         23    2    1    2    0    0  0.18212314466E+02  0.15205889766E+02 -0.40569711493E+03  0.41913259561E+03  0.10256254753E+03 0.  0.
         13    1    3    3    0    0 -0.42330676820E+01 -0.81021681638E+01  0.26403685871E+01  0.95150164073E+01  0.00000000000E+00 0.  1.
        -13    1    3    3    0    0  0.22445382148E+02  0.23308057929E+02 -0.40833748352E+03  0.40961757920E+03  0.00000000000E+00 0. -1.
         22    1    1    2    0    0 -0.18212314466E+02 -0.15205889766E+02 -0.71576972842E+02  0.75406700783E+02  0.00000000000E+00 0.  1.
<mgrwt>
<rscale>  0 0.72533092E+02</rscale>
<asrwt>0</asrwt>
<pdfrwt beam="1">  1        2 0.74754873E-01 0.10527100E+03</pdfrwt>
<pdfrwt beam="2">  1       -2 0.13280930E-02 0.10527100E+03</pdfrwt>
<totfact> 0.80623800E+04</totfact>
</mgrwt>
</event>
<event>
 6    1  0.1535970E-002  0.9121619E+02  0.7546771E-02  0.1420231E+00
          2   -1    0    0  501    0  0.00000000000E+00  0.00000000000E+00  0.22026783463E+02  0.22026783463E+02  0.00000000000E+00 0. -1.
         -2   -1    0    0    0  501 -0.00000000000E+00 -0.00000000000E+00 -0.12886350389E+03  0.12886350389E+03  0.00000000000E+00 0.  1.
         23    2    1    2    0    0 -0.93145144219E+01 -0.76169695581E+01 -0.79406672380E+02  0.12093722507E+03  0.90419104095E+02 0.  0.
         13    1    3    3    0    0  0.21209979859E+02 -0.30826404327E+02 -0.56967703444E+01  0.37849486677E+02  0.00000000000E+00 0.  1.
        -13    1    3    3    0    0 -0.30524494281E+02  0.23209434769E+02 -0.73709902035E+02  0.83087738394E+02  0.00000000000E+00 0. -1.
         22    1    1    2    0    0  0.93145144219E+01  0.76169695581E+01 -0.27430048052E+02  0.29953062286E+02  0.00000000000E+00 0. -1.
<mgrwt>
<rscale>  0 0.54972047E+02</rscale>
<asrwt>0</asrwt>
<pdfrwt beam="1">  1        2 0.33887359E-02 0.91216187E+02</pdfrwt>
<pdfrwt beam="2">  1       -2 0.19825154E-01 0.91216187E+02</pdfrwt>
<totfact> 0.48671027E+04</totfact>
</mgrwt>
</event>
<event>
 6    1  0.1535970E-002  0.1160318E+03  0.7546771E-02  0.1276873E+00
         -1   -1    0    0    0  501 -0.00000000000E+00  0.00000000000E+00  0.11967606848E+02  0.11967606848E+02  0.00000000000E+00 0.  1.
          1   -1    0    0  501    0  0.00000000000E+00 -0.00000000000E+00 -0.78075613830E+03  0.78075613830E+03  0.00000000000E+00 0. -1.
         23    2    1    2    0    0  0.10408666479E+02  0.67534185157E+02 -0.35924024645E+03  0.37751415440E+03  0.93777265895E+02 0.  0.
         11    1    3    3    0    0 -0.41641180834E+02  0.23477242207E+02 -0.14343922749E+03  0.15119517461E+03  0.00000000000E+00 0. -1.
        -11    1    3    3    0    0  0.52049847313E+02  0.44056942949E+02 -0.21580101897E+03  0.22631897979E+03  0.00000000000E+00 0.  1.
         22    1    1    2    0    0 -0.10408666479E+02 -0.67534185157E+02 -0.40954828499E+03  0.41520959074E+03  0.00000000000E+00 0.  1.
<mgrwt>
<rscale>  0 0.10164551E+03</rscale>
<asrwt>0</asrwt>
<pdfrwt beam="1">  1        1 0.12011636E+00 0.11603182E+03</pdfrwt>
<pdfrwt beam="2">  1       -1 0.18411698E-02 0.11603182E+03</pdfrwt>
<totfact> 0.17387458E+04</totfact>
</mgrwt>
</event>
<event>
 6    1  0.1535970E-002  0.9138279E+02  0.7546771E-02  0.1382376E+00
         -2   -1    0    0    0  501 -0.00000000000E+00  0.00000000000E+00  0.13581925751E+02  0.13581925751E+02  0.00000000000E+00 0.  1.
          2   -1    0    0  501    0  0.00000000000E+00 -0.00000000000E+00 -0.23569175669E+03  0.23569175669E+03  0.00000000000E+00 0. -1.
         23    2    1    2    0    0 -0.17131324592E+02  0.13434041635E+02 -0.17853911921E+03  0.20056677659E+03  0.88751670556E+02 0.  0.
         11    1    3    3    0    0  0.11327294576E+02 -0.34123925898E+02 -0.69181865968E+02  0.77967175786E+02  0.00000000000E+00 0. -1.
        -11    1    3    3    0    0 -0.28458619168E+02  0.47557967533E+02 -0.10935725324E+03  0.12259960080E+03  0.00000000000E+00 0.  1.
         22    1    1    2    0    0  0.17131324592E+02 -0.13434041635E+02 -0.43570711730E+02  0.48706905851E+02  0.00000000000E+00 0. -1.
<mgrwt>
<rscale>  0 0.63843332E+02</rscale>
<asrwt>0</asrwt>
<pdfrwt beam="1">  1        2 0.36260268E-01 0.91382793E+02</pdfrwt>
<pdfrwt beam="2">  1       -2 0.20895272E-02 0.91382793E+02</pdfrwt>
<totfact> 0.88567963E+04</totfact>
</mgrwt>
</event>
<event>
 6    1  0.1535970E-002  0.9617345E+02  0.7546771E-02  0.1359652E+00
          1   -1    0    0  501    0  0.00000000000E+00  0.00000000000E+00  0.47107802882E+03  0.47107802882E+03  0.00000000000E+00 0. -1.
         -1   -1    0    0    0  501 -0.00000000000E+00 -0.00000000000E+00 -0.81029088582E+01  0.81029088582E+01  0.00000000000E+00 0.  1.
         23    2    1    2    0    0 -0.14798143238E+00 -0.27192003442E+02  0.37180060130E+03  0.38403778342E+03  0.92249146417E+02 0.  0.
         11    1    3    3    0    0 -0.36964973682E+01 -0.11654634691E+02  0.36726370048E+03  0.36746716900E+03  0.00000000000E+00 0. -1.
        -11    1    3    3    0    0  0.35485159358E+01 -0.15537368751E+02  0.45369008188E+01  0.16570614415E+02  0.00000000000E+00 0.  1.
         22    1    1    2    0    0  0.14798143238E+00  0.27192003442E+02  0.91174518661E+02  0.95143154261E+02  0.00000000000E+00 0. -1.
<mgrwt>
<rscale>  0 0.70129912E+02</rscale>
<asrwt>0</asrwt>
<pdfrwt beam="1">  1        1 0.72473521E-01 0.96173447E+02</pdfrwt>
<pdfrwt beam="2">  1       -1 0.12466017E-02 0.96173447E+02</pdfrwt>
<totfact> 0.59095053E+04</totfact>
</mgrwt>
</event>
<event>
 6    1  0.1535970E-002  0.9396948E+02  0.7546771E-02  0.1408786E+00
         -2   -1    0    0    0  501 -0.00000000000E+00  0.00000000000E+00  0.12651237113E+02  0.12651237113E+02  0.00000000000E+00 0.  1.
          2   -1    0    0  501    0  0.00000000000E+00 -0.00000000000E+00 -0.31275590352E+03  0.31275590352E+03  0.00000000000E+00 0. -1.
         23    2    1    2    0    0 -0.62161451999E+01 -0.11579187542E+02 -0.29752800847E+03  0.31201470951E+03  0.93045929955E+02 0.  0.
         13    1    3    3    0    0  0.24677724286E+02 -0.25619217791E+02 -0.25565375393E+03  0.25811659438E+03  0.00000000000E+00 0. -1.
        -13    1    3    3    0    0 -0.30893869486E+02  0.14040030249E+02 -0.41874254538E+02  0.53898115128E+02  0.00000000000E+00 0.  1.
         22    1    1    2    0    0  0.62161451999E+01  0.11579187542E+02 -0.25766579373E+01  0.13392431123E+02  0.00000000000E+00 0.  1.
<mgrwt>
<rscale>  0 0.57465519E+02</rscale>
<asrwt>0</asrwt>
<pdfrwt beam="1">  1        2 0.48116289E-01 0.93969480E+02</pdfrwt>
<pdfrwt beam="2">  1       -2 0.19463443E-02 0.93969480E+02</pdfrwt>
<totfact> 0.73196370E+04</totfact>
</mgrwt>
</event>
<event>
 6    1  0.1535970E-002  0.9058417E+02  0.7546771E-02  0.1411467E+00
          2   -1    0    0  501    0  0.00000000000E+00  0.00000000000E+00  0.22505391473E+04  0.22505391473E+04  0.00000000000E+00 0. -1.
         -2   -1    0    0    0  501 -0.00000000000E+00 -0.00000000000E+00 -0.16909728363E+01  0.16909728363E+01  0.00000000000E+00 0.  1.
         23    2    1    2    0    0 -0.12927862013E+02 -0.55541683727E+01  0.21837837851E+04  0.21856617105E+04  0.89484714534E+02 0.  0.
         11    1    3    3    0    0  0.28198502454E+02  0.26086337359E+02  0.84496603400E+03  0.84583878555E+03  0.00000000000E+00 0.  1.
        -11    1    3    3    0    0 -0.41126364467E+02 -0.31640505732E+02  0.13388177511E+04  0.13398229250E+04  0.00000000000E+00 0. -1.
         22    1    1    2    0    0  0.12927862013E+02  0.55541683727E+01  0.65064389348E+02  0.66568409653E+02  0.00000000000E+00 0.  1.
<mgrwt>
<rscale>  0 0.56867806E+02</rscale>
<asrwt>0</asrwt>
<pdfrwt beam="1">  1        2 0.34623440E+00 0.90584174E+02</pdfrwt>
<pdfrwt beam="2">  1       -2 0.26015147E-03 0.90584174E+02</pdfrwt>
<totfact> 0.74782523E+04</totfact>
</mgrwt>
</event>
<event>
 6    1  0.1535970E-002  0.9284888E+02  0.7546771E-02  0.1407120E+00
          3   -1    0    0  501    0  0.00000000000E+00  0.00000000000E+00  0.51459426466E+03  0.51459426466E+03  0.00000000000E+00 0. -1.
         -3   -1    0    0    0  501 -0.00000000000E+00 -0.00000000000E+00 -0.92684816441E+01  0.92684816441E+01  0.00000000000E+00 0.  1.
         23    2    1    2    0    0  0.92438081456E+01  0.10492981664E+02  0.50054570290E+03  0.50908438986E+03  0.91789785118E+02 0.  0.
         13    1    3    3    0    0 -0.39990371774E+02  0.81746882938E+01  0.16695703452E+03  0.17187410143E+03  0.00000000000E+00 0.  1.
        -13    1    3    3    0    0  0.49234179920E+02  0.23182933706E+01  0.33358866838E+03  0.33721028844E+03  0.00000000000E+00 0. -1.
         22    1    1    2    0    0 -0.92438081456E+01 -0.10492981664E+02  0.47800801108E+01  0.14778356441E+02  0.00000000000E+00 0.  1.
<mgrwt>
<rscale>  0 0.57841550E+02</rscale>
<asrwt>0</asrwt>
<pdfrwt beam="1">  1        3 0.79168326E-01 0.92848884E+02</pdfrwt>
<pdfrwt beam="2">  1       -3 0.14259207E-02 0.92848884E+02</pdfrwt>
<totfact> 0.51357570E+03</totfact>
</mgrwt>
</event>
<event>
 6    1  0.1535970E-002  0.9228745E+02  0.7546771E-02  0.1394923E+00
         -2   -1    0    0    0  501 -0.00000000000E+00  0.00000000000E+00  0.39077613672E+02  0.39077613672E+02  0.00000000000E+00 0.  1.
          2   -1    0    0  501    0  0.00000000000E+00 -0.00000000000E+00 -0.14224173838E+03  0.14224173838E+03  0.00000000000E+00 0. -1.
         23    2    1    2    0    0 -0.68119901831E+01  0.15869527751E+02 -0.12379834920E+03  0.15441180029E+03  0.90657198742E+02 0.  0.
         11    1    3    3    0    0 -0.25209642235E+02  0.36498394430E+02 -0.11814601938E+03  0.12619881439E+03  0.00000000000E+00 0. -1.
        -11    1    3    3    0    0  0.18397652052E+02 -0.20628866678E+02 -0.56523298242E+01  0.28212985909E+02  0.00000000000E+00 0.  1.
         22    1    1    2    0    0  0.68119901831E+01 -0.15869527751E+02  0.20634224492E+02  0.26907551759E+02  0.00000000000E+00 0.  1.
<mgrwt>
<rscale>  0 0.60698595E+02</rscale>
<asrwt>0</asrwt>
<pdfrwt beam="1">  1        2 0.21883344E-01 0.92287447E+02</pdfrwt>
<pdfrwt beam="2">  1       -2 0.60119406E-02 0.92287447E+02</pdfrwt>
<totfact> 0.32476526E+04</totfact>
</mgrwt>
</event>
<event>
 6    1  0.1535970E-002  0.9449349E+02  0.7546771E-02  0.1409422E+00
          2   -1    0    0  501    0  0.00000000000E+00  0.00000000000E+00  0.19786923588E+04  0.19786923588E+04  0.00000000000E+00 0. -1.
         -2   -1    0    0    0  501 -0.00000000000E+00 -0.00000000000E+00 -0.18097375401E+01  0.18097375401E+01  0.00000000000E+00 0.  1.
         23    2    1    2    0    0  0.46959131344E+01 -0.11904265901E+02  0.19139690416E+04  0.19163002143E+04  0.93622946610E+02 0.  0.
         13    1    3    3    0    0  0.45345626786E+02  0.45210190996E+01  0.66365547464E+03  0.66521820067E+03  0.00000000000E+00 0.  1.
        -13    1    3    3    0    0 -0.40649713651E+02 -0.16425285000E+02  0.12503135669E+04  0.12510820136E+04  0.00000000000E+00 0. -1.
         22    1    1    2    0    0 -0.46959131344E+01  0.11904265901E+02  0.62913579723E+02  0.64201882063E+02  0.00000000000E+00 0.  1.
<mgrwt>
<rscale>  0 0.57322937E+02</rscale>
<asrwt>0</asrwt>
<pdfrwt beam="1">  1        2 0.30441248E+00 0.94493488E+02</pdfrwt>
<pdfrwt beam="2">  1       -2 0.27842274E-03 0.94493488E+02</pdfrwt>
<totfact> 0.93801441E+04</totfact>
</mgrwt>
</event>
<event>
 6    1  0.1535970E-002  0.9619041E+02  0.7546771E-02  0.1381615E+00
          2   -1    0    0  501    0  0.00000000000E+00  0.00000000000E+00  0.11962339471E+04  0.11962339471E+04  0.00000000000E+00 0. -1.
         -2   -1    0    0    0  501 -0.00000000000E+00 -0.00000000000E+00 -0.52697605768E+01  0.52697605768E+01  0.00000000000E+00 0.  1.
         23    2    1    2    0    0 -0.12073990203E+02 -0.14539477603E+02  0.11671240577E+04  0.11710811931E+04  0.94315519673E+02 0.  0.
         13    1    3    3    0    0 -0.24908483311E+02  0.17749625950E+01  0.81070765427E+02  0.84829546975E+02  0.00000000000E+00 0.  1.
        -13    1    3    3    0    0  0.12834493108E+02 -0.16314440198E+02  0.10860532922E+04  0.10862516462E+04  0.00000000000E+00 0. -1.
         22    1    1    2    0    0  0.12073990203E+02  0.14539477603E+02  0.23840128890E+02  0.30422514588E+02  0.00000000000E+00 0.  1.
<mgrwt>
<rscale>  0 0.64041186E+02</rscale>
<asrwt>0</asrwt>
<pdfrwt beam="1">  1        2 0.18403578E+00 0.96190410E+02</pdfrwt>
<pdfrwt beam="2">  1       -2 0.81073335E-03 0.96190410E+02</pdfrwt>
<totfact> 0.52898427E+04</totfact>
</mgrwt>
</event>
<event>
 6    1  0.1535970E-002  0.1275206E+03  0.7546771E-02  0.1269235E+00
          2   -1    0    0  501    0  0.00000000000E+00  0.00000000000E+00  0.67487026334E+02  0.67487026334E+02  0.00000000000E+00 0. -1.
         -2   -1    0    0    0  501 -0.00000000000E+00 -0.00000000000E+00 -0.13615065053E+03  0.13615065053E+03  0.00000000000E+00 0.  1.
         23    2    1    2    0    0  0.42206432567E+02  0.42119520638E+02 -0.25546688023E+02  0.13005434211E+03  0.11272116777E+03 0.  0.
         13    1    3    3    0    0 -0.10500702418E+02  0.67199606441E+02 -0.50970146390E+01  0.68205801918E+02  0.00000000000E+00 0. -1.
        -13    1    3    3    0    0  0.52707134986E+02 -0.25080085803E+02 -0.20449673384E+02  0.61848540191E+02  0.00000000000E+00 0.  1.
         22    1    1    2    0    0 -0.42206432567E+02 -0.42119520638E+02 -0.43116936175E+02  0.73583334757E+02  0.00000000000E+00 0. -1.
<mgrwt>
<rscale>  0 0.10545006E+03</rscale>
<asrwt>0</asrwt>
<pdfrwt beam="1">  1        2 0.10382619E-01 0.12752058E+03</pdfrwt>
<pdfrwt beam="2">  1       -2 0.20946254E-01 0.12752058E+03</pdfrwt>
<totfact> 0.11046063E+04</totfact>
</mgrwt>
</event>
<event>
 6    1  0.1535970E-002  0.9369857E+02  0.7546771E-02  0.1365312E+00
          2   -1    0    0  501    0  0.00000000000E+00  0.00000000000E+00  0.14399198205E+03  0.14399198205E+03  0.00000000000E+00 0.  1.
         -2   -1    0    0    0  501 -0.00000000000E+00 -0.00000000000E+00 -0.25256643974E+02  0.25256643974E+02  0.00000000000E+00 0. -1.
         23    2    1    2    0    0  0.24978224634E+02  0.95617666045E+01  0.88579360967E+02  0.12894078508E+03  0.89800243766E+02 0.  0.
         13    1    3    3    0    0 -0.86624004360E+00 -0.20350986614E+02  0.87027177818E+02  0.89379207352E+02  0.00000000000E+00 0.  1.
        -13    1    3    3    0    0  0.25844464677E+02  0.29912753218E+02  0.15521831492E+01  0.39561577725E+02  0.00000000000E+00 0. -1.
         22    1    1    2    0    0 -0.24978224634E+02 -0.95617666045E+01  0.30155977113E+02  0.40307840950E+02  0.00000000000E+00 0.  1.
<mgrwt>
<rscale>  0 0.68487881E+02</rscale>
<asrwt>0</asrwt>
<pdfrwt beam="1">  1        2 0.22152612E-01 0.93698575E+02</pdfrwt>
<pdfrwt beam="2">  1       -2 0.38856376E-02 0.93698575E+02</pdfrwt>
<totfact> 0.61367423E+04</totfact>
</mgrwt>
</event>
<event>
 6    1  0.1535970E-002  0.9135074E+02  0.7546771E-02  0.1411906E+00
          2   -1    0    0  501    0  0.00000000000E+00  0.00000000000E+00  0.21471862773E+02  0.21471862773E+02  0.00000000000E+00 0. -1.
         -2   -1    0    0    0  501 -0.00000000000E+00 -0.00000000000E+00 -0.13471033160E+03  0.13471033160E+03  0.00000000000E+00 0.  1.
         23    2    1    2    0    0 -0.12545125095E+02  0.53180139545E+01 -0.84779806119E+02  0.12462974725E+03  0.90328826733E+02 0.  0.
         11    1    3    3    0    0 -0.28954984132E+02 -0.45633590888E+01 -0.97383849999E+02  0.10169970301E+03  0.00000000000E+00 0.  1.
        -11    1    3    3    0    0  0.16409859037E+02  0.98813730433E+01  0.12604043879E+02  0.22930044242E+02  0.00000000000E+00 0. -1.
         22    1    1    2    0    0  0.12545125095E+02 -0.53180139545E+01 -0.28458662703E+02  0.31552447115E+02  0.00000000000E+00 0.  1.
<mgrwt>
<rscale>  0 0.56770704E+02</rscale>
<asrwt>0</asrwt>
<pdfrwt beam="1">  1        2 0.33033635E-02 0.91350744E+02</pdfrwt>
<pdfrwt beam="2">  1       -2 0.20724667E-01 0.91350744E+02</pdfrwt>
<totfact> 0.46734702E+04</totfact>
</mgrwt>
</event>
<event>
 6    1  0.1535970E-002  0.9733484E+02  0.7546771E-02  0.1342398E+00
          2   -1    0    0  501    0  0.00000000000E+00  0.00000000000E+00  0.80930629339E+02  0.80930629339E+02  0.00000000000E+00 0. -1.
         -2   -1    0    0    0  501 -0.00000000000E+00 -0.00000000000E+00 -0.55214715895E+02  0.55214715895E+02  0.00000000000E+00 0.  1.
         23    2    1    2    0    0  0.21567961014E+02 -0.27811353688E+02  0.26722789715E+02  0.10093650918E+03  0.90749231730E+02 0.  0.
         13    1    3    3    0    0  0.22603924360E+02 -0.45056265064E+02  0.50626972851E+02  0.71442947854E+02  0.00000000000E+00 0. -1.
        -13    1    3    3    0    0 -0.10359633465E+01  0.17244911376E+02 -0.23904183137E+02  0.29493561329E+02  0.00000000000E+00 0.  1.
         22    1    1    2    0    0 -0.21567961014E+02  0.27811353688E+02 -0.10068762707E+01  0.35208836051E+02  0.00000000000E+00 0. -1.
<mgrwt>
<rscale>  0 0.75477889E+02</rscale>
<asrwt>0</asrwt>
<pdfrwt beam="1">  1        2 0.12450866E-01 0.97334842E+02</pdfrwt>
<pdfrwt beam="2">  1       -2 0.84945716E-02 0.97334842E+02</pdfrwt>
<totfact> 0.36881368E+04</totfact>
</mgrwt>
</event>
<event>
 6    1  0.1535970E-002  0.9234508E+02  0.7546771E-02  0.1429388E+00
          2   -1    0    0  501    0  0.00000000000E+00  0.00000000000E+00  0.77314495127E+03  0.77314495127E+03  0.00000000000E+00 0. -1.
         -2   -1    0    0    0  501 -0.00000000000E+00 -0.00000000000E+00 -0.46815549601E+01  0.46815549601E+01  0.00000000000E+00 0.  1.
         23    2    1    2    0    0 -0.56125530630E+01 -0.83762746845E+01  0.75678255551E+03  0.76239586233E+03  0.91792983608E+02 0.  0.
         13    1    3    3    0    0  0.15481677464E+02 -0.44656569627E+02  0.30136742241E+03  0.30505116757E+03  0.00000000000E+00 0.  1.
        -13    1    3    3    0    0 -0.21094230527E+02  0.36280294942E+02  0.45541513310E+03  0.45734469475E+03  0.00000000000E+00 0. -1.
         22    1    1    2    0    0  0.56125530630E+01  0.83762746845E+01  0.11680840800E+02  0.15430643903E+02  0.00000000000E+00 0. -1.
<mgrwt>
<rscale>  0 0.53083012E+02</rscale>
<asrwt>0</asrwt>
<pdfrwt beam="1">  1        2 0.11894528E+00 0.92345084E+02</pdfrwt>
<pdfrwt beam="2">  1       -2 0.72023984E-03 0.92345084E+02</pdfrwt>
<totfact> 0.11140863E+05</totfact>
</mgrwt>
</event>
<event>
 6    1  0.1535970E-002  0.9248000E+02  0.7546771E-02  0.1404418E+00
          2   -1    0    0  501    0  0.00000000000E+00  0.00000000000E+00  0.30783318234E+03  0.30783318234E+03  0.00000000000E+00 0. -1.
         -2   -1    0    0    0  501 -0.00000000000E+00 -0.00000000000E+00 -0.14247353581E+02  0.14247353581E+02  0.00000000000E+00 0.  1.
         23    2    1    2    0    0  0.85686405181E+01  0.12024573364E+02  0.29306041033E+03  0.30730596217E+03  0.91293692672E+02 0.  0.
         13    1    3    3    0    0 -0.10807978489E+02 -0.34139951452E+02  0.18189498449E+03  0.18538644521E+03  0.00000000000E+00 0. -1.
        -13    1    3    3    0    0  0.19376619007E+02  0.46164524816E+02  0.11116542583E+03  0.12191951696E+03  0.00000000000E+00 0.  1.
         22    1    1    2    0    0 -0.85686405181E+01 -0.12024573364E+02  0.52541843384E+00  0.14774573748E+02  0.00000000000E+00 0. -1.
<mgrwt>
<rscale>  0 0.58458263E+02</rscale>
<asrwt>0</asrwt>
<pdfrwt beam="1">  1        2 0.47358946E-01 0.92479999E+02</pdfrwt>
<pdfrwt beam="2">  1       -2 0.21919008E-02 0.92479999E+02</pdfrwt>
<totfact> 0.62591456E+04</totfact>
</mgrwt>
</event>
<event>
 6    1  0.1535970E-002  0.9366798E+02  0.7546771E-02  0.1383660E+00
         -2   -1    0    0    0  501 -0.00000000000E+00  0.00000000000E+00  0.55072746825E+01  0.55072746825E+01  0.00000000000E+00 0.  1.
          2   -1    0    0  501    0  0.00000000000E+00 -0.00000000000E+00 -0.66969346493E+03  0.66969346493E+03  0.00000000000E+00 0. -1.
         23    2    1    2    0    0  0.21221046103E+01 -0.19684608440E+02 -0.61638722402E+03  0.62346363195E+03  0.91551642723E+02 0.  0.
         11    1    3    3    0    0 -0.18037438716E+02 -0.39481116604E+02 -0.14823209191E+03  0.15445666330E+03  0.00000000000E+00 0.  1.
        -11    1    3    3    0    0  0.20159543326E+02  0.19796508164E+02 -0.46815513211E+03  0.46900696865E+03  0.00000000000E+00 0. -1.
         22    1    1    2    0    0 -0.21221046103E+01  0.19684608440E+02 -0.47798966228E+02  0.51737107669E+02  0.00000000000E+00 0.  1.
<mgrwt>
<rscale>  0 0.63511496E+02</rscale>
<asrwt>0</asrwt>
<pdfrwt beam="1">  1        2 0.10302979E+00 0.93667980E+02</pdfrwt>
<pdfrwt beam="2">  1       -2 0.84727284E-03 0.93667980E+02</pdfrwt>
<totfact> 0.10514267E+05</totfact>
</mgrwt>
</event>
<event>
 6    1  0.1535970E-002  0.9709501E+02  0.7546771E-02  0.1341833E+00
          2   -1    0    0  501    0  0.00000000000E+00  0.00000000000E+00  0.82098183651E+03  0.82098183651E+03  0.00000000000E+00 0. -1.
         -2   -1    0    0    0  501 -0.00000000000E+00 -0.00000000000E+00 -0.57116672327E+01  0.57116672327E+01  0.00000000000E+00 0.  1.
         23    2    1    2    0    0 -0.21021889941E+02  0.28981516301E+02  0.67396713469E+03  0.68092520909E+03  0.90252942232E+02 0.  0.
         11    1    3    3    0    0 -0.16250140871E+02  0.55580579199E+02  0.58717003785E+03  0.59001857700E+03  0.00000000000E+00 0. -1.
        -11    1    3    3    0    0 -0.47717490703E+01 -0.26599062899E+02  0.86797096844E+02  0.90906632084E+02  0.00000000000E+00 0.  1.
         22    1    1    2    0    0  0.21021889941E+02 -0.28981516301E+02  0.14130303458E+03  0.14576829466E+03  0.00000000000E+00 0.  1.
<mgrwt>
<rscale>  0 0.75661904E+02</rscale>
<asrwt>0</asrwt>
<pdfrwt beam="1">  1        2 0.12630480E+00 0.97095014E+02</pdfrwt>
<pdfrwt beam="2">  1       -2 0.87871869E-03 0.97095014E+02</pdfrwt>
<totfact> 0.78698979E+04</totfact>
</mgrwt>
</event>
<event>
 6    1  0.1535970E-002  0.7815371E+02  0.7546771E-02  0.1421504E+00
         -2   -1    0    0    0  501 -0.00000000000E+00  0.00000000000E+00  0.13853135330E+02  0.13853135330E+02  0.00000000000E+00 0.  1.
          2   -1    0    0  501    0  0.00000000000E+00 -0.00000000000E+00 -0.18365901356E+03  0.18365901356E+03  0.00000000000E+00 0. -1.
         23    2    1    2    0    0 -0.15812132085E+02  0.10094596039E+02 -0.15509119591E+03  0.17367003770E+03  0.75868824664E+02 0.  0.
         11    1    3    3    0    0 -0.39240170478E+01  0.38831249625E+02 -0.46473877381E+02  0.60688426706E+02  0.00000000000E+00 0.  1.
        -11    1    3    3    0    0 -0.11888115037E+02 -0.28736653586E+02 -0.10861731853E+03  0.11298161099E+03  0.00000000000E+00 0. -1.
         22    1    1    2    0    0  0.15812132085E+02 -0.10094596039E+02 -0.14714682323E+02  0.23842111193E+02  0.00000000000E+00 0.  1.
<mgrwt>
<rscale>  0 0.54703912E+02</rscale>
<asrwt>0</asrwt>
<pdfrwt beam="1">  1        2 0.28255230E-01 0.78153714E+02</pdfrwt>
<pdfrwt beam="2">  1       -2 0.21312518E-02 0.78153714E+02</pdfrwt>
<totfact> 0.10948087E+05</totfact>
</mgrwt>
</event>
<event>
 6    1  0.1535970E-002  0.9505798E+02  0.7546771E-02  0.1364836E+00
         -1   -1    0    0    0  501 -0.00000000000E+00  0.00000000000E+00  0.84014195589E+01  0.84014195589E+01  0.00000000000E+00 0.  1.
          1   -1    0    0  501    0  0.00000000000E+00 -0.00000000000E+00 -0.57039277427E+03  0.57039277427E+03  0.00000000000E+00 0. -1.
         23    2    1    2    0    0  0.15601786053E+02 -0.20571610007E+02 -0.52588035792E+03  0.53440262982E+03  0.91484496176E+02 0.  0.
         13    1    3    3    0    0 -0.30728171859E+02  0.21736512956E+01 -0.34295011329E+03  0.34433083729E+03  0.00000000000E+00 0.  1.
        -13    1    3    3    0    0  0.46329957912E+02 -0.22745261303E+02 -0.18293024464E+03  0.19007179253E+03  0.00000000000E+00 0. -1.
         22    1    1    2    0    0 -0.15601786053E+02  0.20571610007E+02 -0.36110996789E+02  0.44391564012E+02  0.00000000000E+00 0.  1.
<mgrwt>
<rscale>  0 0.68623863E+02</rscale>
<asrwt>0</asrwt>
<pdfrwt beam="1">  1        1 0.87752727E-01 0.95057982E+02</pdfrwt>
<pdfrwt beam="2">  1       -1 0.12925262E-02 0.95057982E+02</pdfrwt>
<totfact> 0.43738874E+04</totfact>
</mgrwt>
</event>
<event>
 6    1  0.1535970E-002  0.9424280E+02  0.7546771E-02  0.1381547E+00
         -4   -1    0    0    0  501 -0.00000000000E+00  0.00000000000E+00  0.16296804802E+02  0.16296804802E+02  0.00000000000E+00 0.  1.
          4   -1    0    0  501    0  0.00000000000E+00 -0.00000000000E+00 -0.20490801374E+03  0.20490801374E+03  0.00000000000E+00 0. -1.
         23    2    1    2    0    0 -0.12408651316E+02  0.15834813943E+02 -0.14188858421E+03  0.17033518496E+03  0.92070565023E+02 0.  0.
         11    1    3    3    0    0  0.39633885928E+02  0.13750103184E+02 -0.68945375227E+02  0.80705483187E+02  0.00000000000E+00 0.  1.
        -11    1    3    3    0    0 -0.52042537245E+02  0.20847107599E+01 -0.72943208988E+02  0.89629701770E+02  0.00000000000E+00 0. -1.
         22    1    1    2    0    0  0.12408651316E+02 -0.15834813943E+02 -0.46722624724E+02  0.50869633586E+02  0.00000000000E+00 0.  1.
<mgrwt>
<rscale>  0 0.64058965E+02</rscale>
<asrwt>0</asrwt>
<pdfrwt beam="1">  1        4 0.31524309E-01 0.94242798E+02</pdfrwt>
<pdfrwt beam="2">  1       -4 0.25072008E-02 0.94242798E+02</pdfrwt>
<totfact> 0.10168157E+04</totfact>
</mgrwt>
</event>
<event>
 6    1  0.1535970E-002  0.9168199E+02  0.7546771E-02  0.1423737E+00
         -2   -1    0    0    0  501 -0.00000000000E+00  0.00000000000E+00  0.88469157987E+01  0.88469157987E+01  0.00000000000E+00 0. -1.
          2   -1    0    0  501    0  0.00000000000E+00 -0.00000000000E+00 -0.32123201426E+03  0.32123201426E+03  0.00000000000E+00 0.  1.
         23    2    1    2    0    0 -0.10579501121E+02 -0.37653604652E+01 -0.29826514875E+03  0.31203795549E+03  0.90991664053E+02 0.  0.
         13    1    3    3    0    0  0.87749446179E+01  0.64607968943E+00 -0.29063976322E+03  0.29077291661E+03  0.00000000000E+00 0.  1.
        -13    1    3    3    0    0 -0.19354445739E+02 -0.44114401546E+01 -0.76253855300E+01  0.21265038880E+02  0.00000000000E+00 0. -1.
         22    1    1    2    0    0  0.10579501121E+02  0.37653604652E+01 -0.14119949715E+02  0.18040974568E+02  0.00000000000E+00 0.  1.
<mgrwt>
<rscale>  0 0.54238045E+02</rscale>
<asrwt>0</asrwt>
<pdfrwt beam="1">  1        2 0.49420309E-01 0.91681987E+02</pdfrwt>
<pdfrwt beam="2">  1       -2 0.13610640E-02 0.91681987E+02</pdfrwt>
<totfact> 0.11828815E+05</totfact>
</mgrwt>
</event>
<event>
 6    1  0.1535970E-002  0.9413707E+02  0.7546771E-02  0.1397189E+00
          2   -1    0    0  501    0  0.00000000000E+00  0.00000000000E+00  0.92004139451E+03  0.92004139451E+03  0.00000000000E+00 0.  1.
         -2   -1    0    0    0  501 -0.00000000000E+00 -0.00000000000E+00 -0.47013117297E+01  0.47013117297E+01  0.00000000000E+00 0. -1.
         23    2    1    2    0    0  0.52294881014E+01 -0.14798045458E+02  0.88979879445E+03  0.89476459581E+03  0.92819489451E+02 0.  0.
         13    1    3    3    0    0  0.21946986640E+02 -0.43240766652E+02  0.28732998531E+03  0.29139312720E+03  0.00000000000E+00 0. -1.
        -13    1    3    3    0    0 -0.16717498539E+02  0.28442721194E+02  0.60246880914E+03  0.60337146861E+03  0.00000000000E+00 0.  1.
         22    1    1    2    0    0 -0.52294881014E+01  0.14798045458E+02  0.25541288334E+02  0.29978110429E+02  0.00000000000E+00 0. -1.
<mgrwt>
<rscale>  0 0.60153388E+02</rscale>
<asrwt>0</asrwt>
<pdfrwt beam="1">  1        2 0.14154469E+00 0.94137067E+02</pdfrwt>
<pdfrwt beam="2">  1       -2 0.72327946E-03 0.94137067E+02</pdfrwt>
<totfact> 0.89331402E+04</totfact>
</mgrwt>
</event>
<event>
 6    1  0.1535970E-002  0.9162900E+02  0.7546771E-02  0.1379345E+00
          2   -1    0    0  501    0  0.00000000000E+00  0.00000000000E+00  0.13732692460E+03  0.13732692460E+03  0.00000000000E+00 0. -1.
         -2   -1    0    0    0  501 -0.00000000000E+00 -0.00000000000E+00 -0.28346215257E+02  0.28346215257E+02  0.00000000000E+00 0.  1.
         23    2    1    2    0    0  0.11424375618E+02 -0.19602303350E+02  0.10974978649E+03  0.14297163914E+03  0.88775600873E+02 0.  0.
         11    1    3    3    0    0  0.16773692219E+01 -0.37013018925E+02  0.11622982102E+03  0.12199241137E+03  0.00000000000E+00 0. -1.
        -11    1    3    3    0    0  0.97470063961E+01  0.17410715574E+02 -0.64800345321E+01  0.20979227775E+02  0.00000000000E+00 0.  1.
         22    1    1    2    0    0 -0.11424375618E+02  0.19602303350E+02 -0.76907714564E+00  0.22701500712E+02  0.00000000000E+00 0.  1.
<mgrwt>
<rscale>  0 0.64636230E+02</rscale>
<asrwt>0</asrwt>
<pdfrwt beam="1">  1        2 0.21127219E-01 0.91629002E+02</pdfrwt>
<pdfrwt beam="2">  1       -2 0.43609563E-02 0.91629002E+02</pdfrwt>
<totfact> 0.54398095E+04</totfact>
</mgrwt>
</event>
<event>
 6    1  0.1535970E-002  0.8902515E+02  0.7546771E-02  0.1428855E+00
         -2   -1    0    0    0  501 -0.00000000000E+00  0.00000000000E+00  0.43088123441E+01  0.43088123441E+01  0.00000000000E+00 0.  1.
          2   -1    0    0  501    0  0.00000000000E+00 -0.00000000000E+00 -0.64457889913E+03  0.64457889913E+03  0.00000000000E+00 0. -1.
         23    2    1    2    0    0  0.10900918392E+02 -0.31425649481E+01 -0.61175454782E+03  0.61819827194E+03  0.88299325694E+02 0.  0.
         11    1    3    3    0    0  0.20112904381E+02 -0.29427847011E+02 -0.10915268458E+03  0.11482523962E+03  0.00000000000E+00 0.  1.
        -11    1    3    3    0    0 -0.92119859889E+01  0.26285282063E+02 -0.50260186324E+03  0.50337303232E+03  0.00000000000E+00 0. -1.
         22    1    1    2    0    0 -0.10900918392E+02  0.31425649481E+01 -0.28515538965E+02  0.30689439531E+02  0.00000000000E+00 0. -1.
<mgrwt>
<rscale>  0 0.53190523E+02</rscale>
<asrwt>0</asrwt>
<pdfrwt beam="1">  1        2 0.99165967E-01 0.89025146E+02</pdfrwt>
<pdfrwt beam="2">  1       -2 0.66289432E-03 0.89025146E+02</pdfrwt>
<totfact> 0.15408810E+05</totfact>
</mgrwt>
</event>
<event>
 6    1  0.1535970E-002  0.7295358E+02  0.7546771E-02  0.1473629E+00
         -2   -1    0    0    0  501 -0.00000000000E+00  0.00000000000E+00  0.70011271413E+01  0.70011271413E+01  0.00000000000E+00 0. -1.
          2   -1    0    0  501    0  0.00000000000E+00 -0.00000000000E+00 -0.44961747556E+03  0.44961747556E+03  0.00000000000E+00 0.  1.
         23    2    1    2    0    0 -0.10439201486E+02  0.22020639440E+01 -0.43948601607E+03  0.44549992500E+03  0.72169237454E+02 0.  0.
         11    1    3    3    0    0 -0.11773244270E+02 -0.24169383201E+01 -0.90700647951E+01  0.15057122795E+02  0.00000000000E+00 0. -1.
        -11    1    3    3    0    0  0.13340427838E+01  0.46190022641E+01 -0.43041595128E+03  0.43044280220E+03  0.00000000000E+00 0.  1.
         22    1    1    2    0    0  0.10439201486E+02 -0.22020639440E+01 -0.31303323438E+01  0.11118677703E+02  0.00000000000E+00 0. -1.
<mgrwt>
<rscale>  0 0.45114396E+02</rscale>
<asrwt>0</asrwt>
<pdfrwt beam="1">  1        2 0.69171958E-01 0.72953580E+02</pdfrwt>
<pdfrwt beam="2">  1       -2 0.10770959E-02 0.72953580E+02</pdfrwt>
<totfact> 0.11178044E+05</totfact>
</mgrwt>
</event>
<event>
 6    1  0.1535970E-002  0.9838367E+02  0.7546771E-02  0.1339477E+00
          1   -1    0    0  501    0  0.00000000000E+00  0.00000000000E+00  0.39536971834E+03  0.39536971834E+03  0.00000000000E+00 0. -1.
         -1   -1    0    0    0  501 -0.00000000000E+00 -0.00000000000E+00 -0.26059375329E+02  0.26059375329E+02  0.00000000000E+00 0.  1.
         23    2    1    2    0    0  0.35841185863E+02  0.65046315795E+00  0.37265787123E+03  0.38542604308E+03  0.91620587145E+02 0.  0.
         11    1    3    3    0    0 -0.26980852508E+02  0.83561005720E+01  0.19056598508E+03  0.19264782762E+03  0.00000000000E+00 0.  1.
        -11    1    3    3    0    0  0.62822038370E+02 -0.77056374140E+01  0.18209188615E+03  0.19277821546E+03  0.00000000000E+00 0. -1.
         22    1    1    2    0    0 -0.35841185863E+02 -0.65046315795E+00 -0.33475282212E+01  0.36003050587E+02  0.00000000000E+00 0.  1.
<mgrwt>
<rscale>  0 0.76437367E+02</rscale>
<asrwt>0</asrwt>
<pdfrwt beam="1">  1        1 0.60826106E-01 0.98383666E+02</pdfrwt>
<pdfrwt beam="2">  1       -1 0.40091350E-02 0.98383666E+02</pdfrwt>
<totfact> 0.13829211E+04</totfact>
</mgrwt>
</event>
<event>
 6    1  0.1535970E-002  0.9237153E+02  0.7546771E-02  0.1428615E+00
         -2   -1    0    0    0  501 -0.00000000000E+00  0.00000000000E+00  0.99502426585E+02  0.99502426585E+02  0.00000000000E+00 0.  1.
          2   -1    0    0  501    0  0.00000000000E+00 -0.00000000000E+00 -0.26792798221E+02  0.26792798221E+02  0.00000000000E+00 0. -1.
         23    2    1    2    0    0 -0.31837048256E+00  0.10188155771E+02  0.60641391381E+02  0.11049831936E+03  0.91807409043E+02 0.  0.
         11    1    3    3    0    0 -0.40179126054E+02 -0.90424587620E+01  0.84028681763E+01  0.42032563858E+02  0.00000000000E+00 0. -1.
        -11    1    3    3    0    0  0.39860755571E+02  0.19230614533E+02  0.52238523205E+02  0.68465755503E+02  0.00000000000E+00 0.  1.
         22    1    1    2    0    0  0.31837048256E+00 -0.10188155771E+02  0.12068236982E+02  0.15796905445E+02  0.00000000000E+00 0.  1.
<mgrwt>
<rscale>  0 0.53239074E+02</rscale>
<asrwt>0</asrwt>
<pdfrwt beam="1">  1        2 0.41219690E-02 0.92371534E+02</pdfrwt>
<pdfrwt beam="2">  1       -2 0.15308065E-01 0.92371534E+02</pdfrwt>
<totfact> 0.57714971E+04</totfact>
</mgrwt>
</event>
<event>
 6    1  0.1535970E-002  0.1000082E+03  0.7546771E-02  0.1338021E+00
         -2   -1    0    0    0  501 -0.00000000000E+00  0.00000000000E+00  0.46624394865E+02  0.46624394865E+02  0.00000000000E+00 0.  1.
          2   -1    0    0  501    0  0.00000000000E+00 -0.00000000000E+00 -0.10046579925E+03  0.10046579925E+03  0.00000000000E+00 0. -1.
         23    2    1    2    0    0  0.27891807331E+02 -0.21146228586E+02 -0.50197992545E+02  0.11189942332E+03  0.93683117921E+02 0.  0.
         13    1    3    3    0    0  0.52601908448E+02  0.15943015161E+02 -0.22270593569E+02  0.59305310409E+02  0.00000000000E+00 0.  1.
        -13    1    3    3    0    0 -0.24710101117E+02 -0.37089243747E+02 -0.27927398976E+02  0.52594112907E+02  0.00000000000E+00 0. -1.
         22    1    1    2    0    0 -0.27891807331E+02  0.21146228586E+02 -0.36434118412E+01  0.35190770799E+02  0.00000000000E+00 0. -1.
<mgrwt>
<rscale>  0 0.76921704E+02</rscale>
<asrwt>0</asrwt>
<pdfrwt beam="1">  1        2 0.15456277E-01 0.10000821E+03</pdfrwt>
<pdfrwt beam="2">  1       -2 0.71729839E-02 0.10000821E+03</pdfrwt>
<totfact> 0.37213021E+04</totfact>
</mgrwt>
</event>
<event>
 6    1  0.1535970E-002  0.9227064E+02  0.7546771E-02  0.1416418E+00
          2   -1    0    0  501    0  0.00000000000E+00  0.00000000000E+00  0.13771377274E+04  0.13771377274E+04  0.00000000000E+00 0. -1.
         -2   -1    0    0    0  501 -0.00000000000E+00 -0.00000000000E+00 -0.62740001777E+01  0.62740001777E+01  0.00000000000E+00 0.  1.
         23    2    1    2    0    0 -0.11390211749E+02 -0.47177290105E+01  0.13675314094E+04  0.13706407358E+04  0.91443298798E+02 0.  0.
         13    1    3    3    0    0 -0.47346341732E+02 -0.36673395017E+01  0.10509323120E+04  0.10520046815E+04  0.00000000000E+00 0. -1.
        -13    1    3    3    0    0  0.35956129982E+02 -0.10503895087E+01  0.31659909745E+03  0.31863605431E+03  0.00000000000E+00 0.  1.
         22    1    1    2    0    0  0.11390211749E+02  0.47177290105E+01  0.33323178418E+01  0.12770991853E+02  0.00000000000E+00 0.  1.
<mgrwt>
<rscale>  0 0.55786089E+02</rscale>
<asrwt>0</asrwt>
<pdfrwt beam="1">  1        2 0.21186710E+00 0.92270639E+02</pdfrwt>
<pdfrwt beam="2">  1       -2 0.96523189E-03 0.92270639E+02</pdfrwt>
<totfact> 0.32986952E+04</totfact>
</mgrwt>
</event>
<event>
 6    1  0.1535970E-002  0.1110464E+03  0.7546771E-02  0.1288960E+00
          2   -1    0    0  501    0  0.00000000000E+00  0.00000000000E+00  0.22286032102E+03  0.22286032102E+03  0.00000000000E+00 0. -1.
         -2   -1    0    0    0  501 -0.00000000000E+00 -0.00000000000E+00 -0.37305497749E+02  0.37305497749E+02  0.00000000000E+00 0.  1.
         23    2    1    2    0    0 -0.35430400168E+02  0.50881937704E+02  0.76928333664E+02  0.13508984552E+03  0.92124985758E+02 0.  0.
         13    1    3    3    0    0 -0.52571252840E+02 -0.28393657066E+01  0.49974030936E+02  0.72589271871E+02  0.00000000000E+00 0. -1.
        -13    1    3    3    0    0  0.17140852672E+02  0.53721303411E+02  0.26954302728E+02  0.62500573646E+02  0.00000000000E+00 0.  1.
         22    1    1    2    0    0  0.35430400168E+02 -0.50881937704E+02  0.10862648960E+03  0.12507597325E+03  0.00000000000E+00 0. -1.
<mgrwt>
<rscale>  0 0.95990939E+02</rscale>
<asrwt>0</asrwt>
<pdfrwt beam="1">  1        2 0.34286202E-01 0.11104638E+03</pdfrwt>
<pdfrwt beam="2">  1       -2 0.57393075E-02 0.11104638E+03</pdfrwt>
<totfact> 0.21858569E+04</totfact>
</mgrwt>
</event>
<event>
 6    1  0.1535970E-002  0.9567004E+02  0.7546771E-02  0.1387661E+00
         -1   -1    0    0    0  501 -0.00000000000E+00  0.00000000000E+00  0.27202689716E+01  0.27202689716E+01  0.00000000000E+00 0.  1.
          1   -1    0    0  501    0  0.00000000000E+00 -0.00000000000E+00 -0.15939293036E+04  0.15939293036E+04  0.00000000000E+00 0. -1.
         23    2    1    2    0    0 -0.75401707055E+01 -0.15700444858E+02 -0.15306157820E+04  0.15336027614E+04  0.94071245994E+02 0.  0.
         13    1    3    3    0    0  0.13787382857E+01 -0.36563770882E+02 -0.23873069195E+03  0.24151843312E+03  0.00000000000E+00 0.  1.
        -13    1    3    3    0    0 -0.89189089912E+01  0.20863326025E+02 -0.12918850901E+04  0.12920843282E+04  0.00000000000E+00 0. -1.
         22    1    1    2    0    0  0.75401707055E+01  0.15700444858E+02 -0.60593252616E+02  0.63046811224E+02  0.00000000000E+00 0.  1.
<mgrwt>
<rscale>  0 0.62492290E+02</rscale>
<asrwt>0</asrwt>
<pdfrwt beam="1">  1        1 0.24521932E+00 0.95670045E+02</pdfrwt>
<pdfrwt beam="2">  1       -1 0.41850389E-03 0.95670045E+02</pdfrwt>
<totfact> 0.37849255E+04</totfact>
</mgrwt>
</event>
<event>
 6    1  0.1535970E-002  0.8465967E+02  0.7546771E-02  0.1420094E+00
          2   -1    0    0  501    0  0.00000000000E+00  0.00000000000E+00  0.12689234166E+04  0.12689234166E+04  0.00000000000E+00 0. -1.
         -2   -1    0    0    0  501 -0.00000000000E+00 -0.00000000000E+00 -0.29297071949E+01  0.29297071949E+01  0.00000000000E+00 0.  1.
         23    2    1    2    0    0 -0.75586963112E+01 -0.13050910443E+02  0.12288708941E+04  0.12317836396E+04  0.83305462464E+02 0.  0.
         13    1    3    3    0    0  0.27007815045E+02 -0.80122814954E+01  0.98713422334E+03  0.98753612269E+03  0.00000000000E+00 0. -1.
        -13    1    3    3    0    0 -0.34566511356E+02 -0.50386289473E+01  0.24173667080E+03  0.24424751688E+03  0.00000000000E+00 0.  1.
         22    1    1    2    0    0  0.75586963112E+01  0.13050910443E+02  0.37122815244E+02  0.40069484211E+02  0.00000000000E+00 0.  1.
<mgrwt>
<rscale>  0 0.55001003E+02</rscale>
<asrwt>0</asrwt>
<pdfrwt beam="1">  1        2 0.19521855E+00 0.84659673E+02</pdfrwt>
<pdfrwt beam="2">  1       -2 0.45072520E-03 0.84659673E+02</pdfrwt>
<totfact> 0.10865358E+05</totfact>
</mgrwt>
</event>
<event>
 6    1  0.1535970E-002  0.9247562E+02  0.7546771E-02  0.1371160E+00
         -1   -1    0    0    0  501 -0.00000000000E+00  0.00000000000E+00  0.22910259194E+03  0.22910259194E+03  0.00000000000E+00 0.  1.
          1   -1    0    0  501    0  0.00000000000E+00 -0.00000000000E+00 -0.25118981529E+02  0.25118981529E+02  0.00000000000E+00 0. -1.
         23    2    1    2    0    0  0.25030572403E+02  0.32988631194E+01  0.65173357591E+02  0.11313401789E+03  0.88962505645E+02 0.  0.
         11    1    3    3    0    0  0.94593471842E+01  0.33659658229E+02 -0.47934311997E+01  0.35290633657E+02  0.00000000000E+00 0. -1.
        -11    1    3    3    0    0  0.15571225218E+02 -0.30360795109E+02  0.69966788791E+02  0.77843384229E+02  0.00000000000E+00 0.  1.
         22    1    1    2    0    0 -0.25030572403E+02 -0.32988631194E+01  0.13881025282E+03  0.14108755558E+03  0.00000000000E+00 0.  1.
<mgrwt>
<rscale>  0 0.66845620E+02</rscale>
<asrwt>0</asrwt>
<pdfrwt beam="1">  1        1 0.38644589E-02 0.92475616E+02</pdfrwt>
<pdfrwt beam="2">  1       -1 0.35246551E-01 0.92475616E+02</pdfrwt>
<totfact> 0.16463932E+04</totfact>
</mgrwt>
</event>
<event>
 6    1  0.1535970E-002  0.9211454E+02  0.7546771E-02  0.1405180E+00
         -2   -1    0    0    0  501 -0.00000000000E+00  0.00000000000E+00  0.71833802369E+01  0.71833802369E+01  0.00000000000E+00 0.  1.
          2   -1    0    0  501    0  0.00000000000E+00 -0.00000000000E+00 -0.45210093098E+03  0.45210093098E+03  0.00000000000E+00 0. -1.
         23    2    1    2    0    0 -0.16987033806E+01  0.14665609199E+02 -0.42261924496E+03  0.43254145933E+03  0.90923716053E+02 0.  0.
         11    1    3    3    0    0 -0.39862809585E+02  0.22773213990E+02 -0.30941718694E+03  0.31280450514E+03  0.00000000000E+00 0. -1.
        -11    1    3    3    0    0  0.38164106204E+02 -0.81076047909E+01 -0.11320205802E+03  0.11973695419E+03  0.00000000000E+00 0.  1.
         22    1    1    2    0    0  0.16987033806E+01 -0.14665609199E+02 -0.22298305784E+02  0.26742851889E+02  0.00000000000E+00 0.  1.
<mgrwt>
<rscale>  0 0.58283369E+02</rscale>
<asrwt>0</asrwt>
<pdfrwt beam="1">  1        2 0.69554003E-01 0.92114536E+02</pdfrwt>
<pdfrwt beam="2">  1       -2 0.11051352E-02 0.92114536E+02</pdfrwt>
<totfact> 0.11107379E+05</totfact>
</mgrwt>
</event>
<event>
 6    1  0.1535970E-002  0.9517080E+02  0.7546771E-02  0.1398821E+00
         -2   -1    0    0    0  501 -0.00000000000E+00  0.00000000000E+00  0.29242761440E+01  0.29242761440E+01  0.00000000000E+00 0.  1.
          2   -1    0    0  501    0  0.00000000000E+00 -0.00000000000E+00 -0.11210428440E+04  0.11210428440E+04  0.00000000000E+00 0. -1.
         23    2    1    2    0    0 -0.14796401076E+02 -0.34644020353E+00 -0.10474861803E+04  0.10518007313E+04  0.94012908462E+02 0.  0.
         13    1    3    3    0    0 -0.22702222054E+02 -0.39388643404E+02 -0.78435156194E+03  0.78566801439E+03  0.00000000000E+00 0. -1.
        -13    1    3    3    0    0  0.79058209778E+01  0.39042203201E+02 -0.26313461835E+03  0.26613271691E+03  0.00000000000E+00 0.  1.
         22    1    1    2    0    0  0.14796401076E+02  0.34644020353E+00 -0.70632387564E+02  0.72166388843E+02  0.00000000000E+00 0. -1.
<mgrwt>
<rscale>  0 0.59764949E+02</rscale>
<asrwt>0</asrwt>
<pdfrwt beam="1">  1        2 0.17246831E+00 0.95170796E+02</pdfrwt>
<pdfrwt beam="2">  1       -2 0.44988817E-03 0.95170796E+02</pdfrwt>
<totfact> 0.13310408E+05</totfact>
</mgrwt>
</event>
<event>
 6    1  0.1535970E-002  0.1038206E+03  0.7546771E-02  0.1314585E+00
         -1   -1    0    0    0  501 -0.00000000000E+00  0.00000000000E+00  0.74412450947E+01  0.74412450947E+01  0.00000000000E+00 0.  1.
          1   -1    0    0  501    0  0.00000000000E+00 -0.00000000000E+00 -0.80417303773E+03  0.80417303773E+03  0.00000000000E+00 0. -1.
         23    2    1    2    0    0 -0.42978353615E+02  0.19905197265E+02 -0.62065061062E+03  0.62927411057E+03  0.92387066272E+02 0.  0.
         13    1    3    3    0    0 -0.14093135744E+02 -0.22096071746E+02 -0.50929767211E+02  0.57277343251E+02  0.00000000000E+00 0.  1.
        -13    1    3    3    0    0 -0.28885217871E+02  0.42001269011E+02 -0.56972084341E+03  0.57199676732E+03  0.00000000000E+00 0. -1.
         22    1    1    2    0    0  0.42978353615E+02 -0.19905197265E+02 -0.17608118202E+03  0.18234017226E+03  0.00000000000E+00 0. -1.
<mgrwt>
<rscale>  0 0.85324755E+02</rscale>
<asrwt>0</asrwt>
<pdfrwt beam="1">  1        1 0.12371894E+00 0.10382064E+03</pdfrwt>
<pdfrwt beam="2">  1       -1 0.11448068E-02 0.10382064E+03</pdfrwt>
<totfact> 0.32432697E+04</totfact>
</mgrwt>
</event>
<event>
 6    1  0.1535970E-002  0.9277761E+02  0.7546771E-02  0.1396030E+00
         -1   -1    0    0    0  501 -0.00000000000E+00  0.00000000000E+00  0.49341495290E+01  0.49341495290E+01  0.00000000000E+00 0.  1.
          1   -1    0    0  501    0  0.00000000000E+00 -0.00000000000E+00 -0.12912841718E+04  0.12912841718E+04  0.00000000000E+00 0. -1.
         23    2    1    2    0    0 -0.16556578069E+02  0.21851886031E+01 -0.12680657640E+04  0.12714552555E+04  0.91262202880E+02 0.  0.
         11    1    3    3    0    0  0.16431361006E+02 -0.18182424897E+02 -0.10269626482E+04  0.10272550175E+04  0.00000000000E+00 0. -1.
        -11    1    3    3    0    0 -0.32987939075E+02  0.20367613500E+02 -0.24110311583E+03  0.24420023805E+03  0.00000000000E+00 0.  1.
         22    1    1    2    0    0  0.16556578069E+02 -0.21851886031E+01 -0.18284258242E+02  0.24763065765E+02  0.00000000000E+00 0.  1.
<mgrwt>
<rscale>  0 0.60431384E+02</rscale>
<asrwt>0</asrwt>
<pdfrwt beam="1">  1        1 0.19865896E+00 0.92777610E+02</pdfrwt>
<pdfrwt beam="2">  1       -1 0.75910048E-03 0.92777610E+02</pdfrwt>
<totfact> 0.25665499E+04</totfact>
</mgrwt>
</event>
<event>
 6    1  0.1535970E-002  0.9349871E+02  0.7546771E-02  0.1373830E+00
          2   -1    0    0  501    0  0.00000000000E+00  0.00000000000E+00  0.11142630892E+04  0.11142630892E+04  0.00000000000E+00 0. -1.
         -2   -1    0    0    0  501 -0.00000000000E+00 -0.00000000000E+00 -0.10949781189E+02  0.10949781189E+02  0.00000000000E+00 0.  1.
         23    2    1    2    0    0  0.68489986863E+01 -0.22349091098E+02  0.10970312455E+04  0.11010084294E+04  0.90529648420E+02 0.  0.
         13    1    3    3    0    0  0.48535270477E+01 -0.53814811951E+02  0.88476472346E+03  0.88641311283E+03  0.00000000000E+00 0. -1.
        -13    1    3    3    0    0  0.19954716385E+01  0.31465720853E+02  0.21226652209E+03  0.21459531657E+03  0.00000000000E+00 0.  1.
         22    1    1    2    0    0 -0.68489986863E+01  0.22349091098E+02  0.62820624938E+01  0.24204441020E+02  0.00000000000E+00 0.  1.
<mgrwt>
<rscale>  0 0.66113798E+02</rscale>
<asrwt>0</asrwt>
<pdfrwt beam="1">  1        2 0.17142500E+00 0.93498705E+02</pdfrwt>
<pdfrwt beam="2">  1       -2 0.16845826E-02 0.93498705E+02</pdfrwt>
<totfact> 0.20705191E+04</totfact>
</mgrwt>
</event>
<event>
 6    1  0.1535970E-002  0.6954423E+02  0.7546771E-02  0.1397717E+00
         -1   -1    0    0    0  501 -0.00000000000E+00  0.00000000000E+00  0.62551552537E+01  0.62551552537E+01  0.00000000000E+00 0.  1.
          1   -1    0    0  501    0  0.00000000000E+00 -0.00000000000E+00 -0.47700821426E+03  0.47700821426E+03  0.00000000000E+00 0. -1.
         23    2    1    2    0    0  0.18700721149E+02 -0.33770201461E+02 -0.26855219445E+03  0.27741067192E+03  0.57846834610E+02 0.  0.
         13    1    3    3    0    0 -0.19260764362E+02 -0.52316578472E+01 -0.51699048547E+02  0.55417857305E+02  0.00000000000E+00 0. -1.
        -13    1    3    3    0    0  0.37961485510E+02 -0.28538543614E+02 -0.21685314590E+03  0.22199281461E+03  0.00000000000E+00 0.  1.
         22    1    1    2    0    0 -0.18700721149E+02  0.33770201461E+02 -0.20220086456E+03  0.20585269759E+03  0.00000000000E+00 0. -1.
<mgrwt>
<rscale>  0 0.60027372E+02</rscale>
<asrwt>0</asrwt>
<pdfrwt beam="1">  1        1 0.73385893E-01 0.69544229E+02</pdfrwt>
<pdfrwt beam="2">  1       -1 0.96233139E-03 0.69544229E+02</pdfrwt>
<totfact> 0.79978702E+04</totfact>
</mgrwt>
</event>
<event>
 6    1  0.1535970E-002  0.9220532E+02  0.7546771E-02  0.1407543E+00
         -2   -1    0    0    0  501 -0.00000000000E+00  0.00000000000E+00  0.81396170944E+01  0.81396170944E+01  0.00000000000E+00 0. -1.
          2   -1    0    0  501    0  0.00000000000E+00 -0.00000000000E+00 -0.35107597777E+03  0.35107597777E+03  0.00000000000E+00 0.  1.
         23    2    1    2    0    0 -0.14119375306E+02  0.13565626493E+01 -0.30812585169E+03  0.32162612084E+03  0.91107760966E+02 0.  0.
         13    1    3    3    0    0 -0.36229911580E+02  0.16974335773E+02 -0.60547626786E+02  0.72572375443E+02  0.00000000000E+00 0. -1.
        -13    1    3    3    0    0  0.22110536274E+02 -0.15617773124E+02 -0.24757822490E+03  0.24905374540E+03  0.00000000000E+00 0.  1.
         22    1    1    2    0    0  0.14119375306E+02 -0.13565626493E+01 -0.34810508986E+02  0.37589474021E+02  0.00000000000E+00 0. -1.
<mgrwt>
<rscale>  0 0.57745704E+02</rscale>
<asrwt>0</asrwt>
<pdfrwt beam="1">  1        2 0.54011681E-01 0.92205321E+02</pdfrwt>
<pdfrwt beam="2">  1       -2 0.12522490E-02 0.92205321E+02</pdfrwt>
<totfact> 0.12145894E+05</totfact>
</mgrwt>
</event>
<event>
 6    1  0.1535970E-002  0.9051422E+02  0.7546771E-02  0.1430789E+00
         -2   -1    0    0    0  501 -0.00000000000E+00  0.00000000000E+00  0.52194403033E+01  0.52194403033E+01  0.00000000000E+00 0.  1.
          2   -1    0    0  501    0  0.00000000000E+00 -0.00000000000E+00 -0.51738976753E+03  0.51738976753E+03  0.00000000000E+00 0. -1.
         23    2    1    2    0    0 -0.76454437879E+01 -0.71709910146E+01 -0.48705559332E+03  0.49539476715E+03  0.89905219014E+02 0.  0.
         13    1    3    3    0    0  0.85109069563E+00 -0.32308004296E+01 -0.48595289854E+03  0.48596438349E+03  0.00000000000E+00 0. -1.
        -13    1    3    3    0    0 -0.84965344835E+01 -0.39401905850E+01 -0.11026947864E+01  0.94303836543E+01  0.00000000000E+00 0.  1.
         22    1    1    2    0    0  0.76454437879E+01  0.71709910146E+01 -0.25114733904E+02  0.27214440687E+02  0.00000000000E+00 0.  1.
<mgrwt>
<rscale>  0 0.52802007E+02</rscale>
<asrwt>0</asrwt>
<pdfrwt beam="1">  1        2 0.79598436E-01 0.90514222E+02</pdfrwt>
<pdfrwt beam="2">  1       -2 0.80299071E-03 0.90514222E+02</pdfrwt>
<totfact> 0.15052200E+05</totfact>
</mgrwt>
</event>
<event>
 6    1  0.1535970E-002  0.8754616E+02  0.7546771E-02  0.1437967E+00
          4   -1    0    0  501    0  0.00000000000E+00  0.00000000000E+00  0.80280733290E+02  0.80280733290E+02  0.00000000000E+00 0.  1.
         -4   -1    0    0    0  501 -0.00000000000E+00 -0.00000000000E+00 -0.35676626528E+02  0.35676626528E+02  0.00000000000E+00 0. -1.
         23    2    1    2    0    0  0.47027627974E+01  0.92730146538E+01  0.53220598552E+02  0.10245370441E+03  0.86926547487E+02 0.  0.
         13    1    3    3    0    0 -0.38656732458E+01  0.23741727475E+01 -0.24014449516E+02  0.24439188028E+02  0.00000000000E+00 0. -1.
        -13    1    3    3    0    0  0.85684360431E+01  0.68988419063E+01  0.77235048068E+02  0.78014516380E+02  0.00000000000E+00 0.  1.
         22    1    1    2    0    0 -0.47027627974E+01 -0.92730146538E+01 -0.86164917891E+01  0.13503655411E+02  0.00000000000E+00 0. -1.
<mgrwt>
<rscale>  0 0.51393527E+02</rscale>
<asrwt>0</asrwt>
<pdfrwt beam="1">  1        4 0.12350882E-01 0.87546156E+02</pdfrwt>
<pdfrwt beam="2">  1       -4 0.54887118E-02 0.87546156E+02</pdfrwt>
<totfact> 0.15473165E+04</totfact>
</mgrwt>
</event>
<event>
 6    1  0.1535970E-002  0.1205160E+03  0.7546771E-02  0.1270210E+00
         -2   -1    0    0    0  501 -0.00000000000E+00  0.00000000000E+00  0.29580403087E+02  0.29580403087E+02  0.00000000000E+00 0.  1.
          2   -1    0    0  501    0  0.00000000000E+00 -0.00000000000E+00 -0.31063436432E+03  0.31063436432E+03  0.00000000000E+00 0. -1.
         23    2    1    2    0    0 -0.40330542945E+02 -0.56380553917E+02 -0.20057977883E+03  0.23400076839E+03  0.98583935691E+02 0.  0.
         11    1    3    3    0    0 -0.17727052415E+02 -0.48865972603E+02 -0.20347092805E+03  0.21000607188E+03  0.00000000000E+00 0. -1.
        -11    1    3    3    0    0 -0.22603490530E+02 -0.75145813145E+01  0.28911492230E+01  0.23994696503E+02  0.00000000000E+00 0.  1.
         22    1    1    2    0    0  0.40330542945E+02  0.56380553917E+02 -0.80474182401E+02  0.10621399902E+03  0.00000000000E+00 0. -1.
<mgrwt>
<rscale>  0 0.10495397E+03</rscale>
<asrwt>0</asrwt>
<pdfrwt beam="1">  1        2 0.47789902E-01 0.12051602E+03</pdfrwt>
<pdfrwt beam="2">  1       -2 0.45508313E-02 0.12051602E+03</pdfrwt>
<totfact> 0.21949054E+04</totfact>
</mgrwt>
</event>
<event>
 6    1  0.1535970E-002  0.9310528E+02  0.7546771E-02  0.1400560E+00
         -2   -1    0    0    0  501 -0.00000000000E+00  0.00000000000E+00  0.47633820004E+01  0.47633820004E+01  0.00000000000E+00 0.  1.
          2   -1    0    0  501    0  0.00000000000E+00 -0.00000000000E+00 -0.61811657483E+03  0.61811657483E+03  0.00000000000E+00 0. -1.
         23    2    1    2    0    0  0.23338584292E+01 -0.15199867495E+02 -0.52034564760E+03  0.52860967341E+03  0.91826526540E+02 0.  0.
         11    1    3    3    0    0  0.76105666431E+01  0.16744208198E+02 -0.45790316408E+03  0.45827240469E+03  0.00000000000E+00 0. -1.
        -11    1    3    3    0    0 -0.52767082139E+01 -0.31944075693E+02 -0.62442483523E+02  0.70337268712E+02  0.00000000000E+00 0.  1.
         22    1    1    2    0    0 -0.23338584292E+01  0.15199867495E+02 -0.93007545227E+02  0.94270283420E+02  0.00000000000E+00 0.  1.
<mgrwt>
<rscale>  0 0.59354781E+02</rscale>
<asrwt>0</asrwt>
<pdfrwt beam="1">  1        2 0.95094845E-01 0.93105284E+02</pdfrwt>
<pdfrwt beam="2">  1       -2 0.73282810E-03 0.93105284E+02</pdfrwt>
<totfact> 0.14126184E+05</totfact>
</mgrwt>
</event>
<event>
 6    1  0.1535970E-002  0.9436862E+02  0.7546771E-02  0.1383165E+00
         -2   -1    0    0    0  501 -0.00000000000E+00  0.00000000000E+00  0.64452331668E+02  0.64452331668E+02  0.00000000000E+00 0.  1.
          2   -1    0    0  501    0  0.00000000000E+00 -0.00000000000E+00 -0.74869454179E+02  0.74869454179E+02  0.00000000000E+00 0. -1.
         23    2    1    2    0    0  0.13318937906E+02  0.14265972508E+02 -0.41121994643E+02  0.10293908046E+03  0.92328347565E+02 0.  0.
         11    1    3    3    0    0 -0.30518374742E+02 -0.11170715896E+02 -0.40921053139E+02  0.52255991815E+02  0.00000000000E+00 0. -1.
        -11    1    3    3    0    0  0.43837312648E+02  0.25436688404E+02 -0.20094150436E+00  0.50683088645E+02  0.00000000000E+00 0.  1.
         22    1    1    2    0    0 -0.13318937906E+02 -0.14265972508E+02  0.30704872133E+02  0.36382705386E+02  0.00000000000E+00 0.  1.
<mgrwt>
<rscale>  0 0.63639064E+02</rscale>
<asrwt>0</asrwt>
<pdfrwt beam="1">  1        2 0.11518378E-01 0.94368617E+02</pdfrwt>
<pdfrwt beam="2">  1       -2 0.99157433E-02 0.94368617E+02</pdfrwt>
<totfact> 0.31728284E+04</totfact>
</mgrwt>
</event>
<event>
 6    1  0.1535970E-002  0.9019027E+02  0.7546771E-02  0.1381567E+00
          4   -1    0    0  501    0  0.00000000000E+00  0.00000000000E+00  0.95228116617E+02  0.95228116617E+02  0.00000000000E+00 0. -1.
         -4   -1    0    0    0  501 -0.00000000000E+00 -0.00000000000E+00 -0.57187852049E+02  0.57187852049E+02  0.00000000000E+00 0.  1.
         23    2    1    2    0    0 -0.14363855772E+02 -0.17893313285E+02 -0.17902957448E+02  0.91949985646E+02  0.87222663121E+02 0.  0.
         11    1    3    3    0    0  0.93541855022E+01  0.32843986292E+02 -0.79870324517E+01  0.35071653930E+02  0.00000000000E+00 0.  1.
        -11    1    3    3    0    0 -0.23718041274E+02 -0.50737299578E+02 -0.99159249960E+01  0.56878331716E+02  0.00000000000E+00 0. -1.
         22    1    1    2    0    0  0.14363855772E+02  0.17893313285E+02  0.55943222016E+02  0.60465983019E+02  0.00000000000E+00 0. -1.
<mgrwt>
<rscale>  0 0.64053611E+02</rscale>
<asrwt>0</asrwt>
<pdfrwt beam="1">  1        4 0.14650479E-01 0.90190265E+02</pdfrwt>
<pdfrwt beam="2">  1       -4 0.87981311E-02 0.90190265E+02</pdfrwt>
<totfact> 0.54122829E+03</totfact>
</mgrwt>
</event>
<event>
 6    1  0.1535970E-002  0.9117569E+02  0.7546771E-02  0.1402824E+00
          4   -1    0    0  501    0  0.00000000000E+00  0.00000000000E+00  0.60617725550E+02  0.60617725550E+02  0.00000000000E+00 0. -1.
         -4   -1    0    0    0  501 -0.00000000000E+00 -0.00000000000E+00 -0.78325107591E+02  0.78325107591E+02  0.00000000000E+00 0.  1.
         23    2    1    2    0    0  0.92804021926E+01  0.12786998511E+02  0.24051717569E+02  0.94294702206E+02  0.89796283611E+02 0.  0.
         11    1    3    3    0    0  0.36617407033E+02  0.26557819740E+02  0.39458828148E+02  0.60026255971E+02  0.00000000000E+00 0. -1.
        -11    1    3    3    0    0 -0.27337004840E+02 -0.13770821230E+02 -0.15407110579E+02  0.34268446235E+02  0.00000000000E+00 0.  1.
         22    1    1    2    0    0 -0.92804021926E+01 -0.12786998511E+02 -0.41759099609E+02  0.44648130935E+02  0.00000000000E+00 0.  1.
<mgrwt>
<rscale>  0 0.58826373E+02</rscale>
<asrwt>0</asrwt>
<pdfrwt beam="1">  1        4 0.93258039E-02 0.91175686E+02</pdfrwt>
<pdfrwt beam="2">  1       -4 0.12050017E-01 0.91175686E+02</pdfrwt>
<totfact> 0.68872450E+03</totfact>
</mgrwt>
</event>
<event>
 6    1  0.1535970E-002  0.9787494E+02  0.7546771E-02  0.1371935E+00
          2   -1    0    0  501    0  0.00000000000E+00  0.00000000000E+00  0.62839563568E+03  0.62839563568E+03  0.00000000000E+00 0. -1.
         -2   -1    0    0    0  501 -0.00000000000E+00 -0.00000000000E+00 -0.70076216098E+01  0.70076216098E+01  0.00000000000E+00 0.  1.
         23    2    1    2    0    0 -0.18181196273E+02  0.10557493992E+02  0.58695301212E+03  0.59505742805E+03  0.95590206974E+02 0.  0.
         11    1    3    3    0    0 -0.44352099749E+02  0.34371622787E+02  0.45483780593E+03  0.45828587902E+03  0.00000000000E+00 0. -1.
        -11    1    3    3    0    0  0.26170903476E+02 -0.23814128795E+02  0.13211520619E+03  0.13677154903E+03  0.00000000000E+00 0.  1.
         22    1    1    2    0    0  0.18181196273E+02 -0.10557493992E+02  0.34435001949E+02  0.40345829234E+02  0.00000000000E+00 0.  1.
<mgrwt>
<rscale>  0 0.66632093E+02</rscale>
<asrwt>0</asrwt>
<pdfrwt beam="1">  1        2 0.96676207E-01 0.97874942E+02</pdfrwt>
<pdfrwt beam="2">  1       -2 0.10780961E-02 0.97874942E+02</pdfrwt>
<totfact> 0.80865907E+04</totfact>
</mgrwt>
</event>
<event>
 6    1  0.1535970E-002  0.9205989E+02  0.7546771E-02  0.1401768E+00
          1   -1    0    0  501    0  0.00000000000E+00  0.00000000000E+00  0.18418233228E+03  0.18418233228E+03  0.00000000000E+00 0. -1.
         -1   -1    0    0    0  501 -0.00000000000E+00 -0.00000000000E+00 -0.16050187428E+02  0.16050187428E+02  0.00000000000E+00 0.  1.
         23    2    1    2    0    0  0.79583549677E+01 -0.13425167375E+02  0.15257060322E+03  0.17819318871E+03  0.90727355317E+02 0.  0.
         13    1    3    3    0    0 -0.21709804149E+02  0.74070730999E+01  0.13671455346E+03  0.13862557288E+03  0.00000000000E+00 0. -1.
        -13    1    3    3    0    0  0.29668159116E+02 -0.20832240475E+02  0.15856049760E+02  0.39567615831E+02  0.00000000000E+00 0.  1.
         22    1    1    2    0    0 -0.79583549677E+01  0.13425167375E+02  0.15561541625E+02  0.22039330993E+02  0.00000000000E+00 0. -1.
<mgrwt>
<rscale>  0 0.59071899E+02</rscale>
<asrwt>0</asrwt>
<pdfrwt beam="1">  1        1 0.28335742E-01 0.92059891E+02</pdfrwt>
<pdfrwt beam="2">  1       -1 0.24692597E-02 0.92059891E+02</pdfrwt>
<totfact> 0.70557629E+04</totfact>
</mgrwt>
</event>
<event>
 6    1  0.1535970E-002  0.7505482E+02  0.7546771E-02  0.1461356E+00
         -2   -1    0    0    0  501 -0.00000000000E+00  0.00000000000E+00  0.18512595470E+02  0.18512595470E+02  0.00000000000E+00 0.  1.
          2   -1    0    0  501    0  0.00000000000E+00 -0.00000000000E+00 -0.10576532558E+03  0.10576532558E+03  0.00000000000E+00 0. -1.
         23    2    1    2    0    0 -0.89262874252E+01  0.75454578520E+01 -0.82841037517E+02  0.11178490008E+03  0.74139151928E+02 0.  0.
         13    1    3    3    0    0 -0.22200928166E+02 -0.91956085940E+01 -0.86792106111E+02  0.90057260185E+02  0.00000000000E+00 0. -1.
        -13    1    3    3    0    0  0.13274640741E+02  0.16741066446E+02  0.39510685943E+01  0.21727639899E+02  0.00000000000E+00 0.  1.
         22    1    1    2    0    0  0.89262874252E+01 -0.75454578520E+01 -0.44116925979E+01  0.12493020971E+02  0.00000000000E+00 0. -1.
<mgrwt>
<rscale>  0 0.47148760E+02</rscale>
<asrwt>0</asrwt>
<pdfrwt beam="1">  1        2 0.16271589E-01 0.75054823E+02</pdfrwt>
<pdfrwt beam="2">  1       -2 0.28480915E-02 0.75054823E+02</pdfrwt>
<totfact> 0.13169579E+05</totfact>
</mgrwt>
</event>
<event>
 6    1  0.1535970E-002  0.9074822E+02  0.7546771E-02  0.1395692E+00
         -2   -1    0    0    0  501 -0.00000000000E+00  0.00000000000E+00  0.90191791805E+01  0.90191791805E+01  0.00000000000E+00 0.  1.
          2   -1    0    0  501    0  0.00000000000E+00 -0.00000000000E+00 -0.44437950940E+03  0.44437950940E+03  0.00000000000E+00 0. -1.
         23    2    1    2    0    0 -0.16389560404E+02 -0.73009668678E+01 -0.42026504789E+03  0.42995110115E+03  0.88956827176E+02 0.  0.
         11    1    3    3    0    0  0.29923046600E+02 -0.62863493495E+01 -0.66821906125E+02  0.73485196088E+02  0.00000000000E+00 0.  1.
        -11    1    3    3    0    0 -0.46312607004E+02 -0.10146175183E+01 -0.35344314176E+03  0.35646590507E+03  0.00000000000E+00 0. -1.
         22    1    1    2    0    0  0.16389560404E+02  0.73009668678E+01 -0.15095282335E+02  0.23447587428E+02  0.00000000000E+00 0. -1.
<mgrwt>
<rscale>  0 0.60512818E+02</rscale>
<asrwt>0</asrwt>
<pdfrwt beam="1">  1        2 0.68366107E-01 0.90748217E+02</pdfrwt>
<pdfrwt beam="2">  1       -2 0.13875655E-02 0.90748217E+02</pdfrwt>
<totfact> 0.81692553E+04</totfact>
</mgrwt>
</event>
<event>
 6    1  0.1535970E-002  0.1782442E+03  0.7546771E-02  0.1176289E+00
          2   -1    0    0  501    0  0.00000000000E+00  0.00000000000E+00  0.17331321783E+04  0.17331321783E+04  0.00000000000E+00 0. -1.
         -2   -1    0    0    0  501 -0.00000000000E+00 -0.00000000000E+00 -0.16293619993E+02  0.16293619993E+02  0.00000000000E+00 0.  1.
         23    2    1    2    0    0  0.13860359261E+03 -0.64257308885E+02  0.10734297446E+04  0.10881279386E+04  0.91820676443E+02 0.  0.
         11    1    3    3    0    0  0.73048640779E+02  0.15526424699E+02  0.41953090959E+03  0.42612598828E+03  0.00000000000E+00 0.  1.
        -11    1    3    3    0    0  0.65554951831E+02 -0.79783733584E+02  0.65389883501E+03  0.66200195036E+03  0.00000000000E+00 0. -1.
         22    1    1    2    0    0 -0.13860359261E+03  0.64257308885E+02  0.64340881372E+03  0.66129785966E+03  0.00000000000E+00 0.  1.
<mgrwt>
<rscale>  0 0.17150392E+03</rscale>
<asrwt>0</asrwt>
<pdfrwt beam="1">  1        2 0.26663557E+00 0.17824420E+03</pdfrwt>
<pdfrwt beam="2">  1       -2 0.25067121E-02 0.17824420E+03</pdfrwt>
<totfact> 0.56415682E+03</totfact>
</mgrwt>
</event>
<event>
 6    1  0.1535970E-002  0.9123949E+02  0.7546771E-02  0.1421141E+00
          2   -1    0    0  501    0  0.00000000000E+00  0.00000000000E+00  0.18611327602E+04  0.18611327602E+04  0.00000000000E+00 0. -1.
         -2   -1    0    0    0  501 -0.00000000000E+00 -0.00000000000E+00 -0.93987909179E+01  0.93987909179E+01  0.00000000000E+00 0.  1.
         23    2    1    2    0    0  0.81409119375E+01  0.86195833106E+01  0.18557666478E+04  0.18580082065E+04  0.90465865934E+02 0.  0.
         13    1    3    3    0    0 -0.69194615923E+01 -0.23342089322E+02  0.15719877259E+03  0.15907289582E+03  0.00000000000E+00 0.  1.
        -13    1    3    3    0    0  0.15060373530E+02  0.31961672633E+02  0.16985678752E+04  0.16989353107E+04  0.00000000000E+00 0. -1.
         22    1    1    2    0    0 -0.81409119375E+01 -0.86195833106E+01 -0.40326784945E+01  0.12523344580E+02  0.00000000000E+00 0.  1.
<mgrwt>
<rscale>  0 0.54780294E+02</rscale>
<asrwt>0</asrwt>
<pdfrwt beam="1">  1        2 0.28632782E+00 0.91239490E+02</pdfrwt>
<pdfrwt beam="2">  1       -2 0.14459693E-02 0.91239490E+02</pdfrwt>
<totfact> 0.10548949E+04</totfact>
</mgrwt>
</event>
<event>
 6    1  0.1535970E-002  0.9805294E+02  0.7546771E-02  0.1392504E+00
         -3   -1    0    0    0  501 -0.00000000000E+00  0.00000000000E+00  0.41886933367E+02  0.41886933367E+02  0.00000000000E+00 0.  1.
          3   -1    0    0  501    0  0.00000000000E+00 -0.00000000000E+00 -0.10895564392E+03  0.10895564392E+03  0.00000000000E+00 0. -1.
         23    2    1    2    0    0 -0.21845764204E+00 -0.14965103550E+02 -0.83375632581E+02  0.12870849149E+03  0.96903960835E+02 0.  0.
         11    1    3    3    0    0 -0.42888735588E+02 -0.91457687751E+01 -0.12200040073E+02  0.45518454550E+02  0.00000000000E+00 0.  1.
        -11    1    3    3    0    0  0.42670277946E+02 -0.58193347749E+01 -0.71175592508E+02  0.83190036940E+02  0.00000000000E+00 0. -1.
         22    1    1    2    0    0  0.21845764204E+00  0.14965103550E+02  0.16306922028E+02  0.22134085796E+02  0.00000000000E+00 0. -1.
<mgrwt>
<rscale>  0 0.61288215E+02</rscale>
<asrwt>0</asrwt>
<pdfrwt beam="1">  1        3 0.16762407E-01 0.98052943E+02</pdfrwt>
<pdfrwt beam="2">  1       -3 0.64441437E-02 0.98052943E+02</pdfrwt>
<totfact> 0.97702804E+03</totfact>
</mgrwt>
</event>
<event>
 6    1  0.1535970E-002  0.5803388E+02  0.7546771E-02  0.1527036E+00
          2   -1    0    0  501    0  0.00000000000E+00  0.00000000000E+00  0.10429021437E+04  0.10429021437E+04  0.00000000000E+00 0. -1.
         -2   -1    0    0    0  501 -0.00000000000E+00 -0.00000000000E+00 -0.15871797081E+01  0.15871797081E+01  0.00000000000E+00 0.  1.
         23    2    1    2    0    0  0.80951185315E+01  0.61634085440E+01  0.10076663146E+04  0.10093360852E+04  0.57135040098E+02 0.  0.
         11    1    3    3    0    0  0.43814604590E+01  0.64292385765E+01  0.10042589903E+04  0.10042891277E+04  0.00000000000E+00 0. -1.
        -11    1    3    3    0    0  0.37136580725E+01 -0.26583003250E+00  0.34073242848E+01  0.50469575655E+01  0.00000000000E+00 0.  1.
         22    1    1    2    0    0 -0.80951185315E+01 -0.61634085440E+01  0.33648649393E+02  0.35153238185E+02  0.00000000000E+00 0.  1.
<mgrwt>
<rscale>  0 0.37552468E+02</rscale>
<asrwt>0</asrwt>
<pdfrwt beam="1">  1        2 0.16044594E+00 0.58033881E+02</pdfrwt>
<pdfrwt beam="2">  1       -2 0.24418233E-03 0.58033881E+02</pdfrwt>
<totfact> 0.31772379E+05</totfact>
</mgrwt>
</event>
<event>
 6    1  0.1535970E-002  0.9140835E+02  0.7546771E-02  0.1413657E+00
         -2   -1    0    0    0  501 -0.00000000000E+00  0.00000000000E+00  0.19669955512E+03  0.19669955512E+03  0.00000000000E+00 0. -1.
          2   -1    0    0  501    0  0.00000000000E+00 -0.00000000000E+00 -0.16731312514E+02  0.16731312514E+02  0.00000000000E+00 0.  1.
         23    2    1    2    0    0 -0.11005186983E+02  0.73518476477E+01  0.11386730996E+03  0.14601798236E+03  0.90445138567E+02 0.  0.
         13    1    3    3    0    0 -0.46427221248E+02  0.20233610554E+01  0.94473049802E+02  0.10528408238E+03  0.00000000000E+00 0.  1.
        -13    1    3    3    0    0  0.35422034265E+02  0.53284865923E+01  0.19394260160E+02  0.40733899985E+02  0.00000000000E+00 0. -1.
         22    1    1    2    0    0  0.11005186983E+02 -0.73518476477E+01  0.66100932643E+02  0.67412885272E+02  0.00000000000E+00 0. -1.
<mgrwt>
<rscale>  0 0.56385827E+02</rscale>
<asrwt>0</asrwt>
<pdfrwt beam="1">  1        2 0.25740482E-02 0.91408352E+02</pdfrwt>
<pdfrwt beam="2">  1       -2 0.30261468E-01 0.91408352E+02</pdfrwt>
<totfact> 0.33802365E+04</totfact>
</mgrwt>
</event>
<event>
 6    1  0.1535970E-002  0.8887168E+02  0.7546771E-02  0.1394993E+00
         -2   -1    0    0    0  501 -0.00000000000E+00  0.00000000000E+00  0.19611924255E+01  0.19611924255E+01  0.00000000000E+00 0.  1.
          2   -1    0    0  501    0  0.00000000000E+00 -0.00000000000E+00 -0.21234179360E+04  0.21234179360E+04  0.00000000000E+00 0. -1.
         23    2    1    2    0    0 -0.17514429988E+02 -0.81480467736E+01 -0.20280283128E+04  0.20299746337E+04  0.86746932496E+02 0.  0.
         11    1    3    3    0    0 -0.19692360611E+02 -0.36363216593E+02 -0.17543092048E+04  0.17547965291E+04  0.00000000000E+00 0. -1.
        -11    1    3    3    0    0  0.21779306226E+01  0.28215169820E+02 -0.27371910801E+03  0.27517810465E+03  0.00000000000E+00 0.  1.
         22    1    1    2    0    0  0.17514429988E+02  0.81480467736E+01 -0.93428430795E+02  0.95404494679E+02  0.00000000000E+00 0.  1.
<mgrwt>
<rscale>  0 0.60681652E+02</rscale>
<asrwt>0</asrwt>
<pdfrwt beam="1">  1        2 0.32667899E+00 0.88871684E+02</pdfrwt>
<pdfrwt beam="2">  1       -2 0.30172256E-03 0.88871684E+02</pdfrwt>
<totfact> 0.70482707E+04</totfact>
</mgrwt>
</event>
<event>
 6    1  0.1535970E-002  0.9333150E+02  0.7546771E-02  0.1407380E+00
          2   -1    0    0  501    0  0.00000000000E+00  0.00000000000E+00  0.32091027559E+03  0.32091027559E+03  0.00000000000E+00 0. -1.
         -2   -1    0    0    0  501 -0.00000000000E+00 -0.00000000000E+00 -0.91317294465E+01  0.91317294465E+01  0.00000000000E+00 0.  1.
         23    2    1    2    0    0  0.85193618815E+01 -0.10744252219E+02  0.25246574456E+03  0.26916485896E+03  0.92318744796E+02 0.  0.
         13    1    3    3    0    0 -0.49976764444E+01  0.24038827616E+02  0.21460381678E+03  0.21600379668E+03  0.00000000000E+00 0. -1.
        -13    1    3    3    0    0  0.13517038326E+02 -0.34783079835E+02  0.37861927785E+02  0.53161062287E+02  0.00000000000E+00 0.  1.
         22    1    1    2    0    0 -0.85193618815E+01  0.10744252219E+02  0.59312801580E+02  0.60877146072E+02  0.00000000000E+00 0.  1.
<mgrwt>
<rscale>  0 0.57782490E+02</rscale>
<asrwt>0</asrwt>
<pdfrwt beam="1">  1        2 0.49370803E-01 0.93331501E+02</pdfrwt>
<pdfrwt beam="2">  1       -2 0.14048817E-02 0.93331501E+02</pdfrwt>
<totfact> 0.11349072E+05</totfact>
</mgrwt>
</event>
<event>
 6    1  0.1535970E-002  0.9121634E+02  0.7546771E-02  0.1390864E+00
          2   -1    0    0  501    0  0.00000000000E+00  0.00000000000E+00  0.18489229676E+03  0.18489229676E+03  0.00000000000E+00 0.  1.
         -2   -1    0    0    0  501 -0.00000000000E+00 -0.00000000000E+00 -0.24480174353E+02  0.24480174353E+02  0.00000000000E+00 0. -1.
         23    2    1    2    0    0 -0.14740358112E+02 -0.12123550433E+02  0.16606471455E+03  0.18946743581E+03  0.89197315995E+02 0.  0.
         11    1    3    3    0    0 -0.10087750767E+02 -0.21693742308E+02  0.88035919430E+00  0.23940680926E+02  0.00000000000E+00 0. -1.
        -11    1    3    3    0    0 -0.46526073451E+01  0.95701918750E+01  0.16518435535E+03  0.16552675488E+03  0.00000000000E+00 0.  1.
         22    1    1    2    0    0  0.14740358112E+02  0.12123550433E+02 -0.56525921467E+01  0.19905035302E+02  0.00000000000E+00 0. -1.
<mgrwt>
<rscale>  0 0.61692262E+02</rscale>
<asrwt>0</asrwt>
<pdfrwt beam="1">  1        2 0.28444968E-01 0.91216335E+02</pdfrwt>
<pdfrwt beam="2">  1       -2 0.37661808E-02 0.91216335E+02</pdfrwt>
<totfact> 0.48750732E+04</totfact>
</mgrwt>
</event>
<event>
 6    1  0.1535970E-002  0.9768635E+02  0.7546771E-02  0.1385645E+00
          4   -1    0    0  501    0  0.00000000000E+00  0.00000000000E+00  0.85655808649E+02  0.85655808649E+02  0.00000000000E+00 0. -1.
         -4   -1    0    0    0  501 -0.00000000000E+00 -0.00000000000E+00 -0.38371748593E+02  0.38371748593E+02  0.00000000000E+00 0.  1.
         23    2    1    2    0    0 -0.16306229471E+02  0.44485839599E+01  0.41848852520E+02  0.10627299445E+03  0.96212992232E+02 0.  0.
         13    1    3    3    0    0  0.17969258606E+02 -0.38457041075E+02  0.22544143912E+02  0.48063257150E+02  0.00000000000E+00 0.  1.
        -13    1    3    3    0    0 -0.34275488078E+02  0.42905625035E+02  0.19304708608E+02  0.58209737304E+02  0.00000000000E+00 0. -1.
         22    1    1    2    0    0  0.16306229471E+02 -0.44485839599E+01  0.54352075371E+01  0.17754562788E+02  0.00000000000E+00 0.  1.
<mgrwt>
<rscale>  0 0.63002961E+02</rscale>
<asrwt>0</asrwt>
<pdfrwt beam="1">  1        4 0.13177817E-01 0.97686350E+02</pdfrwt>
<pdfrwt beam="2">  1       -4 0.59033460E-02 0.97686350E+02</pdfrwt>
<totfact> 0.12743889E+04</totfact>
</mgrwt>
</event>
<event>
 6    1  0.1535970E-002  0.9585787E+02  0.7546771E-02  0.1359606E+00
          2   -1    0    0  501    0  0.00000000000E+00  0.00000000000E+00  0.10781956883E+03  0.10781956883E+03  0.00000000000E+00 0. -1.
         -2   -1    0    0    0  501 -0.00000000000E+00 -0.00000000000E+00 -0.62932958960E+02  0.62932958960E+02  0.00000000000E+00 0.  1.
         23    2    1    2    0    0 -0.26583466999E+02 -0.69740205697E+01  0.80911804432E+02  0.12544102457E+03  0.91833615134E+02 0.  0.
         13    1    3    3    0    0 -0.28754577481E+02 -0.47236904602E+02  0.42418321319E+02  0.69695515394E+02  0.00000000000E+00 0. -1.
        -13    1    3    3    0    0  0.21711104825E+01  0.40262884032E+02  0.38493483113E+02  0.55745509178E+02  0.00000000000E+00 0.  1.
         22    1    1    2    0    0  0.26583466999E+02  0.69740205697E+01 -0.36025194562E+02  0.45311503217E+02  0.00000000000E+00 0.  1.
<mgrwt>
<rscale>  0 0.70143434E+02</rscale>
<asrwt>0</asrwt>
<pdfrwt beam="1">  1        2 0.16587626E-01 0.95857866E+02</pdfrwt>
<pdfrwt beam="2">  1       -2 0.96819937E-02 0.95857866E+02</pdfrwt>
<totfact> 0.21533374E+04</totfact>
</mgrwt>
</event>
<event>
 6    1  0.1535970E-002  0.9128066E+02  0.7546771E-02  0.1402837E+00
          1   -1    0    0  501    0  0.00000000000E+00  0.00000000000E+00  0.47541272907E+02  0.47541272907E+02  0.00000000000E+00 0. -1.
         -1   -1    0    0    0  501 -0.00000000000E+00 -0.00000000000E+00 -0.74983768151E+02  0.74983768151E+02  0.00000000000E+00 0.  1.
         23    2    1    2    0    0 -0.15674625114E+02 -0.14572113482E+01 -0.45502964605E+00  0.91281791598E+02  0.89912963959E+02 0.  0.
         11    1    3    3    0    0  0.37280462638E+02 -0.62359552148E+01 -0.39057111518E+01  0.37999665940E+02  0.00000000000E+00 0. -1.
        -11    1    3    3    0    0 -0.52955087752E+02  0.47787438666E+01  0.34506815058E+01  0.53282125658E+02  0.00000000000E+00 0.  1.
         22    1    1    2    0    0  0.15674625114E+02  0.14572113482E+01 -0.26987465598E+02  0.31243249459E+02  0.00000000000E+00 0. -1.
<mgrwt>
<rscale>  0 0.58823455E+02</rscale>
<asrwt>0</asrwt>
<pdfrwt beam="1">  1        1 0.73140420E-02 0.91280657E+02</pdfrwt>
<pdfrwt beam="2">  1       -1 0.11535964E-01 0.91280657E+02</pdfrwt>
<totfact> 0.41423162E+04</totfact>
</mgrwt>
</event>
<event>
 6    1  0.1535970E-002  0.9301394E+02  0.7546771E-02  0.1423080E+00
          1   -1    0    0  501    0  0.00000000000E+00  0.00000000000E+00  0.12345237011E+03  0.12345237011E+03  0.00000000000E+00 0. -1.
         -1   -1    0    0    0  501 -0.00000000000E+00 -0.00000000000E+00 -0.21875746854E+02  0.21875746854E+02  0.00000000000E+00 0.  1.
         23    2    1    2    0    0  0.37797680770E+01  0.10183841888E+02  0.89419490290E+02  0.12902495272E+03  0.92377464237E+02 0.  0.
         13    1    3    3    0    0 -0.36625999770E+02 -0.18647841846E+02  0.26581053623E+02  0.48946483800E+02  0.00000000000E+00 0. -1.
        -13    1    3    3    0    0  0.40405767847E+02  0.28831683734E+02  0.62838436667E+02  0.80078468922E+02  0.00000000000E+00 0.  1.
         22    1    1    2    0    0 -0.37797680770E+01 -0.10183841888E+02  0.12157132964E+02  0.16303164239E+02  0.00000000000E+00 0. -1.
<mgrwt>
<rscale>  0 0.54374470E+02</rscale>
<asrwt>0</asrwt>
<pdfrwt beam="1">  1        1 0.18992672E-01 0.93013941E+02</pdfrwt>
<pdfrwt beam="2">  1       -1 0.33654996E-02 0.93013941E+02</pdfrwt>
<totfact> 0.74472773E+04</totfact>
</mgrwt>
</event>
<event>
 6    1  0.1535970E-002  0.9289293E+02  0.7546771E-02  0.1393263E+00
          1   -1    0    0  501    0  0.00000000000E+00  0.00000000000E+00  0.54145927666E+02  0.54145927666E+02  0.00000000000E+00 0.  1.
         -1   -1    0    0    0  501 -0.00000000000E+00 -0.00000000000E+00 -0.56657924590E+02  0.56657924590E+02  0.00000000000E+00 0. -1.
         23    2    1    2    0    0  0.37416330306E+01 -0.16981956629E+02 -0.59293584336E+01  0.93081972323E+02  0.91250806086E+02 0.  0.
         13    1    3    3    0    0  0.73816210742E+01  0.25632272468E+02  0.27863832885E+02  0.38573240784E+02  0.00000000000E+00 0.  1.
        -13    1    3    3    0    0 -0.36399880436E+01 -0.42614229097E+02 -0.33793191318E+02  0.54508731539E+02  0.00000000000E+00 0. -1.
         22    1    1    2    0    0 -0.37416330306E+01  0.16981956629E+02  0.34173615090E+01  0.17721879933E+02  0.00000000000E+00 0.  1.
<mgrwt>
<rscale>  0 0.61102267E+02</rscale>
<asrwt>0</asrwt>
<pdfrwt beam="1">  1        1 0.83301427E-02 0.92892929E+02</pdfrwt>
<pdfrwt beam="2">  1       -1 0.87166038E-02 0.92892929E+02</pdfrwt>
<totfact> 0.53357895E+04</totfact>
</mgrwt>
</event>
<event>
 6    1  0.1535970E-002  0.6199853E+02  0.7546771E-02  0.1476750E+00
         -2   -1    0    0    0  501 -0.00000000000E+00  0.00000000000E+00  0.62024237442E+01  0.62024237442E+01  0.00000000000E+00 0. -1.
          2   -1    0    0  501    0  0.00000000000E+00 -0.00000000000E+00 -0.25913066775E+03  0.25913066775E+03  0.00000000000E+00 0.  1.
         23    2    1    2    0    0 -0.10494705424E+01  0.16594732419E+02 -0.17520370007E+03  0.18584981487E+03  0.59727134850E+02 0.  0.
         13    1    3    3    0    0 -0.23982297495E+01  0.20153961905E+02 -0.14128149863E+02  0.24729300535E+02  0.00000000000E+00 0. -1.
        -13    1    3    3    0    0  0.13487592071E+01 -0.35592294860E+01 -0.16107555020E+03  0.16112051434E+03  0.00000000000E+00 0.  1.
         22    1    1    2    0    0  0.10494705424E+01 -0.16594732419E+02 -0.77724543940E+02  0.79483276626E+02  0.00000000000E+00 0. -1.
<mgrwt>
<rscale>  0 0.44616476E+02</rscale>
<asrwt>0</asrwt>
<pdfrwt beam="1">  1        2 0.39866271E-01 0.61998526E+02</pdfrwt>
<pdfrwt beam="2">  1       -2 0.95421870E-03 0.61998526E+02</pdfrwt>
<totfact> 0.22798395E+05</totfact>
</mgrwt>
</event>
<event>
 6    1  0.1535970E-002  0.9463845E+02  0.7546771E-02  0.1415922E+00
          2   -1    0    0  501    0  0.00000000000E+00  0.00000000000E+00  0.31747766558E+02  0.31747766558E+02  0.00000000000E+00 0. -1.
         -2   -1    0    0    0  501 -0.00000000000E+00 -0.00000000000E+00 -0.94181917015E+02  0.94181917015E+02  0.00000000000E+00 0.  1.
         23    2    1    2    0    0  0.10044260118E+02  0.56290163720E+01 -0.44406595503E+02  0.10453889761E+03  0.93935416123E+02 0.  0.
         13    1    3    3    0    0 -0.21122749203E+02  0.40982472985E+02 -0.13001294831E+02  0.47903729428E+02  0.00000000000E+00 0.  1.
        -13    1    3    3    0    0  0.31167009320E+02 -0.35353456613E+02 -0.31405300672E+02  0.56635168179E+02  0.00000000000E+00 0. -1.
         22    1    1    2    0    0 -0.10044260118E+02 -0.56290163720E+01 -0.18027554954E+02  0.21390785966E+02  0.00000000000E+00 0. -1.
<mgrwt>
<rscale>  0 0.55893020E+02</rscale>
<asrwt>0</asrwt>
<pdfrwt beam="1">  1        2 0.48842717E-02 0.94638446E+02</pdfrwt>
<pdfrwt beam="2">  1       -2 0.14489526E-01 0.94638446E+02</pdfrwt>
<totfact> 0.50769419E+04</totfact>
</mgrwt>
</event>
<event>
 6    1  0.1535970E-002  0.9456958E+02  0.7546771E-02  0.1391578E+00
          2   -1    0    0  501    0  0.00000000000E+00  0.00000000000E+00  0.51790366114E+01  0.51790366114E+01  0.00000000000E+00 0. -1.
         -2   -1    0    0    0  501 -0.00000000000E+00 -0.00000000000E+00 -0.60047951103E+03  0.60047951103E+03  0.00000000000E+00 0.  1.
         23    2    1    2    0    0 -0.16204591929E+02  0.49074989174E+01 -0.49957189334E+03  0.50844417843E+03  0.93041569323E+02 0.  0.
         11    1    3    3    0    0  0.22586520829E+02 -0.22997558364E+01 -0.32139315855E+02  0.39349401822E+02  0.00000000000E+00 0. -1.
        -11    1    3    3    0    0 -0.38791112759E+02  0.72072547537E+01 -0.46743257748E+03  0.46909477661E+03  0.00000000000E+00 0.  1.
         22    1    1    2    0    0  0.16204591929E+02 -0.49074989174E+01 -0.95728581078E+02  0.97214369208E+02  0.00000000000E+00 0. -1.
<mgrwt>
<rscale>  0 0.61515822E+02</rscale>
<asrwt>0</asrwt>
<pdfrwt beam="1">  1        2 0.79677534E-03 0.94569583E+02</pdfrwt>
<pdfrwt beam="2">  1       -2 0.92381407E-01 0.94569583E+02</pdfrwt>
<totfact> 0.18041528E+04</totfact>
</mgrwt>
</event>
<event>
 6    1  0.1535970E-002  0.9463985E+02  0.7546771E-02  0.1344467E+00
         -2   -1    0    0    0  501 -0.00000000000E+00  0.00000000000E+00  0.38742248805E+02  0.38742248805E+02  0.00000000000E+00 0.  1.
          2   -1    0    0  501    0  0.00000000000E+00 -0.00000000000E+00 -0.14516967788E+03  0.14516967788E+03  0.00000000000E+00 0. -1.
         23    2    1    2    0    0  0.17207454960E+02  0.32694013842E+02 -0.11190897472E+03  0.14656166043E+03  0.87130400188E+02 0.  0.
         13    1    3    3    0    0 -0.29034388193E+02  0.19647133658E+01 -0.10478663527E+02  0.30929891459E+02  0.00000000000E+00 0.  1.
        -13    1    3    3    0    0  0.46241843153E+02  0.30729300476E+02 -0.10143031119E+03  0.11563176897E+03  0.00000000000E+00 0. -1.
         22    1    1    2    0    0 -0.17207454960E+02 -0.32694013842E+02  0.54815456399E+01  0.37350266262E+02  0.00000000000E+00 0.  1.
<mgrwt>
<rscale>  0 0.74807807E+02</rscale>
<asrwt>0</asrwt>
<pdfrwt beam="1">  1        2 0.22333797E-01 0.94639853E+02</pdfrwt>
<pdfrwt beam="2">  1       -2 0.59603460E-02 0.94639853E+02</pdfrwt>
<totfact> 0.32264792E+04</totfact>
</mgrwt>
</event>
<event>
 6    1  0.1535970E-002  0.1195109E+03  0.7546771E-02  0.1266200E+00
          3   -1    0    0  501    0  0.00000000000E+00  0.00000000000E+00  0.12349640091E+03  0.12349640091E+03  0.00000000000E+00 0. -1.
         -3   -1    0    0    0  501 -0.00000000000E+00 -0.00000000000E+00 -0.81272776189E+02  0.81272776189E+02  0.00000000000E+00 0.  1.
         23    2    1    2    0    0  0.41653027928E+02  0.64564390396E+02  0.45463990053E+02  0.12786641245E+03  0.91538570005E+02 0.  0.
         11    1    3    3    0    0  0.97010231741E+01  0.81716912011E+02  0.23971406744E+02  0.85711095551E+02  0.00000000000E+00 0.  1.
        -11    1    3    3    0    0  0.31952004754E+02 -0.17152521615E+02  0.21492583309E+02  0.42155316899E+02  0.00000000000E+00 0. -1.
         22    1    1    2    0    0 -0.41653027928E+02 -0.64564390396E+02 -0.32403653330E+01  0.76902764647E+02  0.00000000000E+00 0.  1.
<mgrwt>
<rscale>  0 0.10701497E+03</rscale>
<asrwt>0</asrwt>
<pdfrwt beam="1">  1        3 0.18999446E-01 0.11951086E+03</pdfrwt>
<pdfrwt beam="2">  1       -3 0.12503504E-01 0.11951086E+03</pdfrwt>
<totfact> 0.27801864E+03</totfact>
</mgrwt>
</event>
<event>
 6    1  0.1535970E-002  0.1285911E+03  0.7546771E-02  0.1262790E+00
          2   -1    0    0  501    0  0.00000000000E+00  0.00000000000E+00  0.32630780501E+02  0.32630780501E+02  0.00000000000E+00 0.  1.
         -2   -1    0    0    0  501 -0.00000000000E+00 -0.00000000000E+00 -0.45857374768E+03  0.45857374768E+03  0.00000000000E+00 0. -1.
         23    2    1    2    0    0  0.46218312477E+02 -0.47008476648E+02 -0.11235152052E+03  0.17075870639E+03  0.11040716625E+03 0.  0.
         11    1    3    3    0    0 -0.17900889755E+01 -0.10111615565E+02  0.21512529268E+02  0.23837745350E+02  0.00000000000E+00 0.  1.
        -11    1    3    3    0    0  0.48008401452E+02 -0.36896861083E+02 -0.13386404978E+03  0.14692096104E+03  0.00000000000E+00 0. -1.
         22    1    1    2    0    0 -0.46218312477E+02  0.47008476648E+02 -0.31359144667E+03  0.32044582180E+03  0.00000000000E+00 0. -1.
<mgrwt>
<rscale>  0 0.10880993E+03</rscale>
<asrwt>0</asrwt>
<pdfrwt beam="1">  1        2 0.50201204E-02 0.12859110E+03</pdfrwt>
<pdfrwt beam="2">  1       -2 0.70549802E-01 0.12859110E+03</pdfrwt>
<totfact> 0.27951708E+03</totfact>
</mgrwt>
</event>
<event>
 6    1  0.1535970E-002  0.9245796E+02  0.7546771E-02  0.1402030E+00
         -3   -1    0    0    0  501 -0.00000000000E+00  0.00000000000E+00  0.53978531592E+01  0.53978531592E+01  0.00000000000E+00 0.  1.
          3   -1    0    0  501    0  0.00000000000E+00 -0.00000000000E+00 -0.55575376247E+03  0.55575376247E+03  0.00000000000E+00 0. -1.
         23    2    1    2    0    0 -0.13696207418E+02  0.69144624229E+01 -0.50121036672E+03  0.50966685823E+03  0.91176086663E+02 0.  0.
         13    1    3    3    0    0  0.36843317228E+02  0.14485785582E+02 -0.26916997022E+03  0.27206569221E+03  0.00000000000E+00 0. -1.
        -13    1    3    3    0    0 -0.50539524646E+02 -0.75713231588E+01 -0.23204039650E+03  0.23760116601E+03  0.00000000000E+00 0.  1.
         22    1    1    2    0    0  0.13696207418E+02 -0.69144624229E+01 -0.49145542595E+02  0.51484757406E+02  0.00000000000E+00 0. -1.
<mgrwt>
<rscale>  0 0.59011016E+02</rscale>
<asrwt>0</asrwt>
<pdfrwt beam="1">  1        3 0.85500525E-01 0.92457962E+02</pdfrwt>
<pdfrwt beam="2">  1       -3 0.83043947E-03 0.92457962E+02</pdfrwt>
<totfact> 0.96931786E+03</totfact>
</mgrwt>
</event>
<event>
 6    1  0.1535970E-002  0.9189896E+02  0.7546771E-02  0.1414328E+00
         -2   -1    0    0    0  501 -0.00000000000E+00  0.00000000000E+00  0.84895298432E+01  0.84895298432E+01  0.00000000000E+00 0.  1.
          2   -1    0    0  501    0  0.00000000000E+00 -0.00000000000E+00 -0.33629981575E+03  0.33629981575E+03  0.00000000000E+00 0. -1.
         23    2    1    2    0    0 -0.11422130247E+02 -0.59719240325E+01 -0.30550576775E+03  0.31902851358E+03  0.90990600664E+02 0.  0.
         13    1    3    3    0    0  0.34951429752E+02 -0.22570288966E+02 -0.11634856701E+03  0.12356378689E+03  0.00000000000E+00 0.  1.
        -13    1    3    3    0    0 -0.46373559999E+02  0.16598364934E+02 -0.18915720075E+03  0.19546472669E+03  0.00000000000E+00 0. -1.
         22    1    1    2    0    0  0.11422130247E+02  0.59719240325E+01 -0.22304518150E+02  0.25760832011E+02  0.00000000000E+00 0.  1.
<mgrwt>
<rscale>  0 0.56239131E+02</rscale>
<asrwt>0</asrwt>
<pdfrwt beam="1">  1        2 0.51738430E-01 0.91898957E+02</pdfrwt>
<pdfrwt beam="2">  1       -2 0.13060816E-02 0.91898957E+02</pdfrwt>
<totfact> 0.11960962E+05</totfact>
</mgrwt>
</event>
<event>
 6    1  0.1535970E-002  0.9066806E+02  0.7546771E-02  0.1420444E+00
          2   -1    0    0  501    0  0.00000000000E+00  0.00000000000E+00  0.35025623398E+02  0.35025623398E+02  0.00000000000E+00 0. -1.
         -2   -1    0    0    0  501 -0.00000000000E+00 -0.00000000000E+00 -0.75587081454E+02  0.75587081454E+02  0.00000000000E+00 0.  1.
         23    2    1    2    0    0 -0.85850547484E+01  0.86847702815E+01 -0.36566716365E+02  0.97764111114E+02  0.89841907128E+02 0.  0.
         11    1    3    3    0    0 -0.53159315173E+01  0.62751872700E+01  0.29983062170E+02  0.31090531039E+02  0.00000000000E+00 0. -1.
        -11    1    3    3    0    0 -0.32691232310E+01  0.24095830115E+01 -0.66549778535E+02  0.66673580075E+02  0.00000000000E+00 0.  1.
         22    1    1    2    0    0  0.85850547484E+01 -0.86847702815E+01 -0.39947416906E+01  0.12848593738E+02  0.00000000000E+00 0.  1.
<mgrwt>
<rscale>  0 0.54926987E+02</rscale>
<asrwt>0</asrwt>
<pdfrwt beam="1">  1        2 0.53885574E-02 0.90668058E+02</pdfrwt>
<pdfrwt beam="2">  1       -2 0.11628782E-01 0.90668058E+02</pdfrwt>
<totfact> 0.63126610E+04</totfact>
</mgrwt>
</event>
<event>
 6    1  0.1535970E-002  0.8993741E+02  0.7546771E-02  0.1434311E+00
          2   -1    0    0  501    0  0.00000000000E+00  0.00000000000E+00  0.83932545845E+03  0.83932545845E+03  0.00000000000E+00 0. -1.
         -2   -1    0    0    0  501 -0.00000000000E+00 -0.00000000000E+00 -0.37396651847E+01  0.37396651847E+01  0.00000000000E+00 0.  1.
         23    2    1    2    0    0 -0.77104633183E+01  0.65723147825E+01  0.81666638354E+03  0.82160374832E+03  0.89364929792E+02 0.  0.
         11    1    3    3    0    0 -0.33501844292E+02 -0.99782081572E+01  0.70330767408E+03  0.70417584638E+03  0.00000000000E+00 0. -1.
        -11    1    3    3    0    0  0.25791380973E+02  0.16550522940E+02  0.11335870947E+03  0.11742790194E+03  0.00000000000E+00 0.  1.
         22    1    1    2    0    0  0.77104633183E+01 -0.65723147825E+01  0.18919409720E+02  0.21461375313E+02  0.00000000000E+00 0.  1.
<mgrwt>
<rscale>  0 0.52104271E+02</rscale>
<asrwt>0</asrwt>
<pdfrwt beam="1">  1        2 0.12912684E+00 0.89937407E+02</pdfrwt>
<pdfrwt beam="2">  1       -2 0.57533377E-03 0.89937407E+02</pdfrwt>
<totfact> 0.13764840E+05</totfact>
</mgrwt>
</event>
<event>
 6    1  0.1535970E-002  0.9677311E+02  0.7546771E-02  0.1346454E+00
          1   -1    0    0  501    0  0.00000000000E+00  0.00000000000E+00  0.30332077039E+03  0.30332077039E+03  0.00000000000E+00 0. -1.
         -1   -1    0    0    0  501 -0.00000000000E+00 -0.00000000000E+00 -0.13996058975E+02  0.13996058975E+02  0.00000000000E+00 0.  1.
         23    2    1    2    0    0 -0.31041168403E+02  0.12318959434E+02  0.22142261566E+03  0.24164645534E+03  0.90827989929E+02 0.  0.
         11    1    3    3    0    0 -0.10800855169E+02  0.21002231342E+02  0.21809764455E+03  0.21937259344E+03  0.00000000000E+00 0. -1.
        -11    1    3    3    0    0 -0.20240313234E+02 -0.86832719080E+01  0.33249711041E+01  0.22273861894E+02  0.00000000000E+00 0.  1.
         22    1    1    2    0    0  0.31041168403E+02 -0.12318959434E+02  0.67902095754E+02  0.75670374025E+02  0.00000000000E+00 0.  1.
<mgrwt>
<rscale>  0 0.74172090E+02</rscale>
<asrwt>0</asrwt>
<pdfrwt beam="1">  1        1 0.46664729E-01 0.96773109E+02</pdfrwt>
<pdfrwt beam="2">  1       -1 0.21532401E-02 0.96773109E+02</pdfrwt>
<totfact> 0.46928406E+04</totfact>
</mgrwt>
</event>
<event>
 6    1  0.1535970E-002  0.1021937E+03  0.7546771E-02  0.1325302E+00
          2   -1    0    0  501    0  0.00000000000E+00  0.00000000000E+00  0.26826944310E+03  0.26826944310E+03  0.00000000000E+00 0. -1.
         -2   -1    0    0    0  501 -0.00000000000E+00 -0.00000000000E+00 -0.66611233635E+02  0.66611233635E+02  0.00000000000E+00 0.  1.
         23    2    1    2    0    0  0.20911855167E+02  0.35274379207E+02  0.25083270323E+03  0.27085163370E+03  0.93605421604E+02 0.  0.
         13    1    3    3    0    0  0.39191131488E+02  0.40102696238E+02  0.24459953705E+03  0.25094442524E+03  0.00000000000E+00 0. -1.
        -13    1    3    3    0    0 -0.18279276321E+02 -0.48283170302E+01  0.62331661808E+01  0.19907208464E+02  0.00000000000E+00 0.  1.
         22    1    1    2    0    0 -0.20911855167E+02 -0.35274379207E+02 -0.49174493765E+02  0.64029043035E+02  0.00000000000E+00 0.  1.
<mgrwt>
<rscale>  0 0.81336070E+02</rscale>
<asrwt>0</asrwt>
<pdfrwt beam="1">  1        2 0.41272221E-01 0.10219375E+03</pdfrwt>
<pdfrwt beam="2">  1       -2 0.10247882E-01 0.10219375E+03</pdfrwt>
<totfact> 0.73373490E+03</totfact>
</mgrwt>
</event>
<event>
 6    1  0.1535970E-002  0.9461692E+02  0.7546771E-02  0.1388711E+00
         -1   -1    0    0    0  501 -0.00000000000E+00  0.00000000000E+00  0.17816884542E+03  0.17816884542E+03  0.00000000000E+00 0.  1.
          1   -1    0    0  501    0  0.00000000000E+00 -0.00000000000E+00 -0.21248190025E+02  0.21248190025E+02  0.00000000000E+00 0. -1.
         23    2    1    2    0    0  0.17038306430E+02 -0.48062030118E+01  0.91424492422E+02  0.13157051131E+03  0.92945995921E+02 0.  0.
         11    1    3    3    0    0  0.13472697309E+02 -0.21853826568E+02  0.10587285134E+03  0.10894110317E+03  0.00000000000E+00 0.  1.
        -11    1    3    3    0    0  0.35656091207E+01  0.17047623556E+02 -0.14448358918E+02  0.22629408140E+02  0.00000000000E+00 0. -1.
         22    1    1    2    0    0 -0.17038306430E+02  0.48062030118E+01  0.65496162971E+02  0.67846524136E+02  0.00000000000E+00 0.  1.
<mgrwt>
<rscale>  0 0.62228536E+02</rscale>
<asrwt>0</asrwt>
<pdfrwt beam="1">  1        1 0.32689524E-02 0.94616920E+02</pdfrwt>
<pdfrwt beam="2">  1       -1 0.27410591E-01 0.94616920E+02</pdfrwt>
<totfact> 0.31586171E+04</totfact>
</mgrwt>
</event>
<event>
 6    1  0.1535970E-002  0.9185171E+02  0.7546771E-02  0.1426933E+00
          4   -1    0    0  501    0  0.00000000000E+00  0.00000000000E+00  0.55023560129E+02  0.55023560129E+02  0.00000000000E+00 0. -1.
         -4   -1    0    0    0  501 -0.00000000000E+00 -0.00000000000E+00 -0.85606029507E+02  0.85606029507E+02  0.00000000000E+00 0.  1.
         23    2    1    2    0    0  0.10634822449E+02 -0.14671563857E+00  0.15662318925E+02  0.93177493590E+02  0.91233853934E+02 0.  0.
         11    1    3    3    0    0 -0.25526957911E+02 -0.33036403266E+02 -0.31575967320E+00  0.41750799095E+02  0.00000000000E+00 0.  1.
        -11    1    3    3    0    0  0.36161780360E+02  0.32889687627E+02  0.15978078598E+02  0.51426694495E+02  0.00000000000E+00 0. -1.
         22    1    1    2    0    0 -0.10634822449E+02  0.14671563857E+00 -0.46244788303E+02  0.47452096046E+02  0.00000000000E+00 0. -1.
<mgrwt>
<rscale>  0 0.53580694E+02</rscale>
<asrwt>0</asrwt>
<pdfrwt beam="1">  1        4 0.84651631E-02 0.91851712E+02</pdfrwt>
<pdfrwt beam="2">  1       -4 0.13170158E-01 0.91851712E+02</pdfrwt>
<totfact> 0.69633357E+03</totfact>
</mgrwt>
</event>
<event>
 6    1  0.1535970E-002  0.9850853E+02  0.7546771E-02  0.1384684E+00
         -2   -1    0    0    0  501 -0.00000000000E+00  0.00000000000E+00  0.35076280392E+03  0.35076280392E+03  0.00000000000E+00 0.  1.
          2   -1    0    0  501    0  0.00000000000E+00 -0.00000000000E+00 -0.99180838892E+01  0.99180838892E+01  0.00000000000E+00 0. -1.
         23    2    1    2    0    0  0.16678522730E+02 -0.14432970789E+01  0.25810574396E+03  0.27626528269E+03  0.97075615507E+02 0.  0.
         11    1    3    3    0    0  0.52605579860E+02 -0.22009054749E+02  0.15525605648E+03  0.16539706345E+03  0.00000000000E+00 0.  1.
        -11    1    3    3    0    0 -0.35927057130E+02  0.20565757670E+02  0.10284968748E+03  0.11086821924E+03  0.00000000000E+00 0. -1.
         22    1    1    2    0    0 -0.16678522730E+02  0.14432970789E+01  0.82738976073E+02  0.84415605124E+02  0.00000000000E+00 0.  1.
<mgrwt>
<rscale>  0 0.63248438E+02</rscale>
<asrwt>0</asrwt>
<pdfrwt beam="1">  1        2 0.15258593E-02 0.98508534E+02</pdfrwt>
<pdfrwt beam="2">  1       -2 0.53963499E-01 0.98508534E+02</pdfrwt>
<totfact> 0.23255345E+04</totfact>
</mgrwt>
</event>
<event>
 6    1  0.1535970E-002  0.9815535E+02  0.7546771E-02  0.1330144E+00
          1   -1    0    0  501    0  0.00000000000E+00  0.00000000000E+00  0.45509987660E+02  0.45509987660E+02  0.00000000000E+00 0. -1.
         -1   -1    0    0    0  501 -0.00000000000E+00 -0.00000000000E+00 -0.11064590784E+03  0.11064590784E+03  0.00000000000E+00 0.  1.
         23    2    1    2    0    0  0.21318112282E+02 -0.36752855314E+02 -0.35606647992E+02  0.10441411160E+03  0.88482987265E+02 0.  0.
         11    1    3    3    0    0  0.95940703934E+01 -0.58407430309E+02  0.22732638297E+01  0.59233789601E+02  0.00000000000E+00 0. -1.
        -11    1    3    3    0    0  0.11724041889E+02  0.21654574995E+02 -0.37879911821E+02  0.45180322000E+02  0.00000000000E+00 0.  1.
         22    1    1    2    0    0 -0.21318112282E+02  0.36752855314E+02 -0.29529272186E+02  0.51741783897E+02  0.00000000000E+00 0.  1.
<mgrwt>
<rscale>  0 0.79616336E+02</rscale>
<asrwt>0</asrwt>
<pdfrwt beam="1">  1        1 0.70015366E-02 0.98155353E+02</pdfrwt>
<pdfrwt beam="2">  1       -1 0.17022447E-01 0.98155353E+02</pdfrwt>
<totfact> 0.24293972E+04</totfact>
</mgrwt>
</event>
<event>
 6    1  0.1535970E-002  0.9351423E+02  0.7546771E-02  0.1365535E+00
          2   -1    0    0  501    0  0.00000000000E+00  0.00000000000E+00  0.21057774697E+03  0.21057774697E+03  0.00000000000E+00 0. -1.
         -2   -1    0    0    0  501 -0.00000000000E+00 -0.00000000000E+00 -0.22168079737E+02  0.22168079737E+02  0.00000000000E+00 0.  1.
         23    2    1    2    0    0 -0.16785556998E+02 -0.20897788751E+02  0.18284364005E+03  0.20536968459E+03  0.89590390916E+02 0.  0.
         11    1    3    3    0    0  0.20029436510E+02 -0.38251244913E+02  0.13897832942E+03  0.14553113795E+03  0.00000000000E+00 0. -1.
        -11    1    3    3    0    0 -0.36814993508E+02  0.17353456162E+02  0.43865310630E+02  0.59838546644E+02  0.00000000000E+00 0.  1.
         22    1    1    2    0    0  0.16785556998E+02  0.20897788751E+02  0.55660271824E+01  0.27376142113E+02  0.00000000000E+00 0.  1.
<mgrwt>
<rscale>  0 0.68424169E+02</rscale>
<asrwt>0</asrwt>
<pdfrwt beam="1">  1        2 0.32396575E-01 0.93514227E+02</pdfrwt>
<pdfrwt beam="2">  1       -2 0.34104739E-02 0.93514227E+02</pdfrwt>
<totfact> 0.49215367E+04</totfact>
</mgrwt>
</event>
<event>
 6    1  0.1535970E-002  0.9421638E+02  0.7546771E-02  0.1394178E+00
          4   -1    0    0  501    0  0.00000000000E+00  0.00000000000E+00  0.31467641884E+02  0.31467641884E+02  0.00000000000E+00 0. -1.
         -4   -1    0    0    0  501 -0.00000000000E+00 -0.00000000000E+00 -0.97387668520E+02  0.97387668520E+02  0.00000000000E+00 0.  1.
         23    2    1    2    0    0 -0.12506283428E+02  0.10647324668E+02 -0.57798590047E+02  0.11053236359E+03  0.92773669439E+02 0.  0.
         11    1    3    3    0    0  0.22569763281E+02 -0.31596400239E+02 -0.29477744385E+02  0.48751042416E+02  0.00000000000E+00 0. -1.
        -11    1    3    3    0    0 -0.35076046709E+02  0.42243724906E+02 -0.28320845662E+02  0.61781321172E+02  0.00000000000E+00 0.  1.
         22    1    1    2    0    0  0.12506283428E+02 -0.10647324668E+02 -0.81214365893E+01  0.18322946816E+02  0.00000000000E+00 0.  1.
<mgrwt>
<rscale>  0 0.60879286E+02</rscale>
<asrwt>0</asrwt>
<pdfrwt beam="1">  1        4 0.48411757E-02 0.94216381E+02</pdfrwt>
<pdfrwt beam="2">  1       -4 0.14982718E-01 0.94216381E+02</pdfrwt>
<totfact> 0.13886980E+04</totfact>
</mgrwt>
</event>
<event>
 6    1  0.1535970E-002  0.9205568E+02  0.7546771E-02  0.1403836E+00
          2   -1    0    0  501    0  0.00000000000E+00  0.00000000000E+00  0.17115119014E+04  0.17115119014E+04  0.00000000000E+00 0. -1.
         -2   -1    0    0    0  501 -0.00000000000E+00 -0.00000000000E+00 -0.22578566706E+01  0.22578566706E+01  0.00000000000E+00 0.  1.
         23    2    1    2    0    0 -0.21846124057E+01  0.14949389726E+02  0.16517782462E+04  0.16543414466E+04  0.90807437013E+02 0.  0.
         11    1    3    3    0    0 -0.28094612726E+02 -0.24211294722E+02  0.10806240606E+04  0.10812603083E+04  0.00000000000E+00 0. -1.
        -11    1    3    3    0    0  0.25910000320E+02  0.39160684448E+02  0.57115418565E+03  0.57308113833E+03  0.00000000000E+00 0.  1.
         22    1    1    2    0    0  0.21846124057E+01 -0.14949389726E+02  0.57475798488E+02  0.59428311404E+02  0.00000000000E+00 0.  1.
<mgrwt>
<rscale>  0 0.58592346E+02</rscale>
<asrwt>0</asrwt>
<pdfrwt beam="1">  1        2 0.26330849E+00 0.92055676E+02</pdfrwt>
<pdfrwt beam="2">  1       -2 0.34736393E-03 0.92055676E+02</pdfrwt>
<totfact> 0.93594546E+04</totfact>
</mgrwt>
</event>
<event>
 6    1  0.1535970E-002  0.9761277E+02  0.7546771E-02  0.1416978E+00
          2   -1    0    0  501    0  0.00000000000E+00  0.00000000000E+00  0.17979607708E+03  0.17979607708E+03  0.00000000000E+00 0. -1.
         -2   -1    0    0    0  501 -0.00000000000E+00 -0.00000000000E+00 -0.16292640910E+02  0.16292640910E+02  0.00000000000E+00 0.  1.
         23    2    1    2    0    0  0.45592631083E+01  0.92620551364E+01  0.15187709077E+03  0.18054058458E+03  0.97065335889E+02 0.  0.
         11    1    3    3    0    0 -0.38346953017E+02 -0.93476786771E+01  0.11309433485E+03  0.11978395752E+03  0.00000000000E+00 0. -1.
        -11    1    3    3    0    0  0.42906216125E+02  0.18609733813E+02  0.38782755921E+02  0.60756627059E+02  0.00000000000E+00 0.  1.
         22    1    1    2    0    0 -0.45592631083E+01 -0.92620551364E+01  0.11626345399E+02  0.15548133418E+02  0.00000000000E+00 0. -1.
<mgrwt>
<rscale>  0 0.55665438E+02</rscale>
<asrwt>0</asrwt>
<pdfrwt beam="1">  1        2 0.27660934E-01 0.97612765E+02</pdfrwt>
<pdfrwt beam="2">  1       -2 0.25065603E-02 0.97612765E+02</pdfrwt>
<totfact> 0.91787843E+04</totfact>
</mgrwt>
</event>
<event>
 6    1  0.1535970E-002  0.9205852E+02  0.7546771E-02  0.1429270E+00
         -4   -1    0    0    0  501 -0.00000000000E+00  0.00000000000E+00  0.71526924741E+02  0.71526924741E+02  0.00000000000E+00 0.  1.
          4   -1    0    0  501    0  0.00000000000E+00 -0.00000000000E+00 -0.55863326145E+02  0.55863326145E+02  0.00000000000E+00 0. -1.
         23    2    1    2    0    0 -0.52451384016E+01  0.87428856321E+01 -0.16609576123E+02  0.93544906561E+02  0.91492196381E+02 0.  0.
         13    1    3    3    0    0  0.36428109155E+02 -0.17093908821E+02 -0.18903964089E+02  0.44458617991E+02  0.00000000000E+00 0. -1.
        -13    1    3    3    0    0 -0.41673247556E+02  0.25836794453E+02  0.22943879653E+01  0.49086288571E+02  0.00000000000E+00 0.  1.
         22    1    1    2    0    0  0.52451384016E+01 -0.87428856321E+01  0.32273174719E+02  0.33845344325E+02  0.00000000000E+00 0.  1.
<mgrwt>
<rscale>  0 0.53106883E+02</rscale>
<asrwt>0</asrwt>
<pdfrwt beam="1">  1        4 0.85943578E-02 0.92058522E+02</pdfrwt>
<pdfrwt beam="2">  1       -4 0.11004142E-01 0.92058522E+02</pdfrwt>
<totfact> 0.92177045E+03</totfact>
</mgrwt>
</event>
<event>
 6    1  0.1535970E-002  0.9021076E+02  0.7546771E-02  0.1413129E+00
          2   -1    0    0  501    0  0.00000000000E+00  0.00000000000E+00  0.39847176153E+03  0.39847176153E+03  0.00000000000E+00 0. -1.
         -2   -1    0    0    0  501 -0.00000000000E+00 -0.00000000000E+00 -0.79169185976E+01  0.79169185976E+01  0.00000000000E+00 0.  1.
         23    2    1    2    0    0  0.11974853717E+02 -0.70231573844E+01  0.37427630332E+03  0.38499445863E+03  0.89136188471E+02 0.  0.
         11    1    3    3    0    0  0.14496755517E+02 -0.83059285843E+01  0.76816948608E+01  0.18388931619E+02  0.00000000000E+00 0.  1.
        -11    1    3    3    0    0 -0.25219018001E+01  0.12827711998E+01  0.36659460845E+03  0.36660552702E+03  0.00000000000E+00 0. -1.
         22    1    1    2    0    0 -0.11974853717E+02  0.70231573844E+01  0.16278539614E+02  0.21394221490E+02  0.00000000000E+00 0.  1.
<mgrwt>
<rscale>  0 0.56501522E+02</rscale>
<asrwt>0</asrwt>
<pdfrwt beam="1">  1        2 0.61303332E-01 0.90210764E+02</pdfrwt>
<pdfrwt beam="2">  1       -2 0.12179878E-02 0.90210764E+02</pdfrwt>
<totfact> 0.11025233E+05</totfact>
</mgrwt>
</event>
<event>
 6    1  0.1535970E-002  0.1113677E+03  0.7546771E-02  0.1288295E+00
          1   -1    0    0  501    0  0.00000000000E+00  0.00000000000E+00  0.44993115473E+03  0.44993115473E+03  0.00000000000E+00 0. -1.
         -1   -1    0    0    0  501 -0.00000000000E+00 -0.00000000000E+00 -0.35364165218E+02  0.35364165218E+02  0.00000000000E+00 0.  1.
         23    2    1    2    0    0 -0.32702121799E+02  0.52955341423E+02  0.62373885349E+02  0.12764510035E+03  0.92352981086E+02 0.  0.
         13    1    3    3    0    0 -0.63191671655E+02  0.19712742391E+02  0.34943818649E+02  0.74852187951E+02  0.00000000000E+00 0.  1.
        -13    1    3    3    0    0  0.30489549857E+02  0.33242599032E+02  0.27430066699E+02  0.52792912403E+02  0.00000000000E+00 0. -1.
         22    1    1    2    0    0  0.32702121799E+02 -0.52955341423E+02  0.35219310417E+03  0.35765021960E+03  0.00000000000E+00 0. -1.
<mgrwt>
<rscale>  0 0.96290893E+02</rscale>
<asrwt>0</asrwt>
<pdfrwt beam="1">  1        1 0.69220174E-01 0.11136772E+03</pdfrwt>
<pdfrwt beam="2">  1       -1 0.54406411E-02 0.11136772E+03</pdfrwt>
<totfact> 0.75891612E+03</totfact>
</mgrwt>
</event>
<event>
 6    1  0.1535970E-002  0.9219036E+02  0.7546771E-02  0.1405956E+00
         -2   -1    0    0    0  501 -0.00000000000E+00  0.00000000000E+00  0.91001615695E+02  0.91001615695E+02  0.00000000000E+00 0.  1.
          2   -1    0    0  501    0  0.00000000000E+00 -0.00000000000E+00 -0.32903048053E+02  0.32903048053E+02  0.00000000000E+00 0. -1.
         23    2    1    2    0    0 -0.37679980652E+01 -0.14052363107E+02  0.39511309116E+02  0.10030057728E+03  0.91035133531E+02 0.  0.
         13    1    3    3    0    0  0.68274356782E+01 -0.22293251022E+01 -0.29050244186E+02  0.29924913627E+02  0.00000000000E+00 0. -1.
        -13    1    3    3    0    0 -0.10595433743E+02 -0.11823038005E+02  0.68561553302E+02  0.70375663656E+02  0.00000000000E+00 0.  1.
         22    1    1    2    0    0  0.37679980652E+01  0.14052363107E+02  0.18587258526E+02  0.23604086464E+02  0.00000000000E+00 0.  1.
<mgrwt>
<rscale>  0 0.58105963E+02</rscale>
<asrwt>0</asrwt>
<pdfrwt beam="1">  1        2 0.50620074E-02 0.92190359E+02</pdfrwt>
<pdfrwt beam="2">  1       -2 0.14000248E-01 0.92190359E+02</pdfrwt>
<totfact> 0.51046170E+04</totfact>
</mgrwt>
</event>
<event>
 6    1  0.1535970E-002  0.8784668E+02  0.7546771E-02  0.1434805E+00
          3   -1    0    0  501    0  0.00000000000E+00  0.00000000000E+00  0.37323757063E+03  0.37323757063E+03  0.00000000000E+00 0. -1.
         -3   -1    0    0    0  501 -0.00000000000E+00 -0.00000000000E+00 -0.74972416768E+01  0.74972416768E+01  0.00000000000E+00 0.  1.
         23    2    1    2    0    0 -0.33227318765E+01  0.10267370569E+02  0.35421578103E+03  0.36494637823E+03  0.87181305408E+02 0.  0.
         11    1    3    3    0    0 -0.39120952588E+01 -0.19974334866E+02  0.17407002375E+02  0.26782126023E+02  0.00000000000E+00 0.  1.
        -11    1    3    3    0    0  0.58936338230E+00  0.30241705435E+02  0.33680877865E+03  0.33816425221E+03  0.00000000000E+00 0. -1.
         22    1    1    2    0    0  0.33227318765E+01 -0.10267370569E+02  0.11524547925E+02  0.15788434070E+02  0.00000000000E+00 0.  1.
<mgrwt>
<rscale>  0 0.52007486E+02</rscale>
<asrwt>0</asrwt>
<pdfrwt beam="1">  1        3 0.57421150E-01 0.87846682E+02</pdfrwt>
<pdfrwt beam="2">  1       -3 0.11534221E-02 0.87846682E+02</pdfrwt>
<totfact> 0.13567473E+04</totfact>
</mgrwt>
</event>
<event>
 6    1  0.1535970E-002  0.9078481E+02  0.7546771E-02  0.1410176E+00
         -4   -1    0    0    0  501 -0.00000000000E+00  0.00000000000E+00  0.89302892837E+01  0.89302892837E+01  0.00000000000E+00 0.  1.
          4   -1    0    0  501    0  0.00000000000E+00 -0.00000000000E+00 -0.77387454428E+03  0.77387454428E+03  0.00000000000E+00 0. -1.
         23    2    1    2    0    0  0.92382059697E-01 -0.14261224106E+02 -0.76303422438E+03  0.76841597452E+03  0.89657633697E+02 0.  0.
         11    1    3    3    0    0 -0.95453292679E+01 -0.49721734351E+02 -0.33460891465E+03  0.33841762652E+03  0.00000000000E+00 0.  1.
        -11    1    3    3    0    0  0.96377113276E+01  0.35460510245E+02 -0.42842530973E+03  0.42999834800E+03  0.00000000000E+00 0. -1.
         22    1    1    2    0    0 -0.92382059697E-01  0.14261224106E+02 -0.19100306137E+01  0.14388859038E+02  0.00000000000E+00 0.  1.
<mgrwt>
<rscale>  0 0.57154625E+02</rscale>
<asrwt>0</asrwt>
<pdfrwt beam="1">  1        4 0.11905767E+00 0.90784813E+02</pdfrwt>
<pdfrwt beam="2">  1       -4 0.13738902E-02 0.90784813E+02</pdfrwt>
<totfact> 0.15409715E+03</totfact>
</mgrwt>
</event>
<event>
 6    1  0.1535970E-002  0.9095168E+02  0.7546771E-02  0.1403817E+00
          2   -1    0    0  501    0  0.00000000000E+00  0.00000000000E+00  0.36963000338E+03  0.36963000338E+03  0.00000000000E+00 0. -1.
         -2   -1    0    0    0  501 -0.00000000000E+00 -0.00000000000E+00 -0.88570505970E+01  0.88570505970E+01  0.00000000000E+00 0.  1.
         23    2    1    2    0    0 -0.13451205470E+02 -0.80375610336E+01  0.34271510155E+03  0.35457840895E+03  0.89591684577E+02 0.  0.
         11    1    3    3    0    0 -0.47233726194E+02  0.56698476361E+01  0.25803361534E+03  0.26238239024E+03  0.00000000000E+00 0. -1.
        -11    1    3    3    0    0  0.33782520724E+02 -0.13707408670E+02  0.84681486215E+02  0.92196018713E+02  0.00000000000E+00 0.  1.
         22    1    1    2    0    0  0.13451205470E+02  0.80375610336E+01  0.18057851231E+02  0.23908645028E+02  0.00000000000E+00 0.  1.
<mgrwt>
<rscale>  0 0.58596640E+02</rscale>
<asrwt>0</asrwt>
<pdfrwt beam="1">  1        2 0.56866142E-01 0.90951675E+02</pdfrwt>
<pdfrwt beam="2">  1       -2 0.13626235E-02 0.90951675E+02</pdfrwt>
<totfact> 0.10183385E+05</totfact>
</mgrwt>
</event>
<event>
 6    1  0.1535970E-002  0.9090948E+02  0.7546771E-02  0.1422798E+00
          1   -1    0    0  501    0  0.00000000000E+00  0.00000000000E+00  0.17365508184E+03  0.17365508184E+03  0.00000000000E+00 0.  1.
         -1   -1    0    0    0  501 -0.00000000000E+00 -0.00000000000E+00 -0.15430533779E+02  0.15430533779E+02  0.00000000000E+00 0. -1.
         23    2    1    2    0    0 -0.11616193323E+02 -0.12666963133E+01  0.13094391130E+03  0.15940778536E+03  0.90155386192E+02 0.  0.
         11    1    3    3    0    0  0.22707267842E+02 -0.35615822078E+02  0.56981314552E+02  0.70929380395E+02  0.00000000000E+00 0. -1.
        -11    1    3    3    0    0 -0.34323461165E+02  0.34349125765E+02  0.73962596747E+02  0.88478404962E+02  0.00000000000E+00 0.  1.
         22    1    1    2    0    0  0.11616193323E+02  0.12666963133E+01  0.27280636763E+02  0.29677830262E+02  0.00000000000E+00 0.  1.
<mgrwt>
<rscale>  0 0.54433288E+02</rscale>
<asrwt>0</asrwt>
<pdfrwt beam="1">  1        1 0.26716165E-01 0.90909483E+02</pdfrwt>
<pdfrwt beam="2">  1       -1 0.23739284E-02 0.90909483E+02</pdfrwt>
<totfact> 0.80125620E+04</totfact>
</mgrwt>
</event>
<event>
 6    1  0.1535970E-002  0.9162478E+02  0.7546771E-02  0.1355890E+00
          2   -1    0    0  501    0  0.00000000000E+00  0.00000000000E+00  0.20985708875E+04  0.20985708875E+04  0.00000000000E+00 0. -1.
         -2   -1    0    0    0  501 -0.00000000000E+00 -0.00000000000E+00 -0.38112006147E+01  0.38112006147E+01  0.00000000000E+00 0.  1.
         23    2    1    2    0    0  0.11838084022E+02 -0.31345365852E+02  0.19958350486E+04  0.19979370966E+04  0.85278535063E+02 0.  0.
         11    1    3    3    0    0 -0.36988871304E+02 -0.10637791175E+02  0.79355603551E+03  0.79448884239E+03  0.00000000000E+00 0.  1.
        -11    1    3    3    0    0  0.48826955326E+02 -0.20707574677E+02  0.12022790131E+04  0.12034482542E+04  0.00000000000E+00 0. -1.
         22    1    1    2    0    0 -0.11838084022E+02  0.31345365852E+02  0.98924638320E+02  0.10444499155E+03  0.00000000000E+00 0.  1.
<mgrwt>
<rscale>  0 0.71251061E+02</rscale>
<asrwt>0</asrwt>
<pdfrwt beam="1">  1        2 0.32285614E+00 0.91624782E+02</pdfrwt>
<pdfrwt beam="2">  1       -2 0.58634023E-03 0.91624782E+02</pdfrwt>
<totfact> 0.28727896E+04</totfact>
</mgrwt>
</event>
<event>
 6    1  0.1535970E-002  0.9186805E+02  0.7546771E-02  0.1409561E+00
          2   -1    0    0  501    0  0.00000000000E+00  0.00000000000E+00  0.12593767185E+03  0.12593767185E+03  0.00000000000E+00 0.  1.
         -2   -1    0    0    0  501 -0.00000000000E+00 -0.00000000000E+00 -0.47060388739E+02  0.47060388739E+02  0.00000000000E+00 0. -1.
         23    2    1    2    0    0  0.10529588988E+02 -0.90675149178E+01  0.10736343275E+03  0.14130337977E+03  0.90811047631E+02 0.  0.
         11    1    3    3    0    0 -0.22947239508E+02 -0.39496150532E+02  0.43800309602E+02  0.63284981070E+02  0.00000000000E+00 0. -1.
        -11    1    3    3    0    0  0.33476828495E+02  0.30428635614E+02  0.63563123152E+02  0.78018398704E+02  0.00000000000E+00 0.  1.
         22    1    1    2    0    0 -0.10529588988E+02  0.90675149178E+01 -0.28486149639E+02  0.31694680820E+02  0.00000000000E+00 0. -1.
<mgrwt>
<rscale>  0 0.57291992E+02</rscale>
<asrwt>0</asrwt>
<pdfrwt beam="1">  1        2 0.19375026E-01 0.91868049E+02</pdfrwt>
<pdfrwt beam="2">  1       -2 0.72400599E-02 0.91868049E+02</pdfrwt>
<totfact> 0.28075875E+04</totfact>
</mgrwt>
</event>
<event>
 6    1  0.1535970E-002  0.9558698E+02  0.7546771E-02  0.1416961E+00
         -1   -1    0    0    0  501 -0.00000000000E+00  0.00000000000E+00  0.65315070727E+02  0.65315070727E+02  0.00000000000E+00 0.  1.
          1   -1    0    0  501    0  0.00000000000E+00 -0.00000000000E+00 -0.46771151517E+02  0.46771151517E+02  0.00000000000E+00 0. -1.
         23    2    1    2    0    0  0.12989354597E+01  0.10919723723E+02  0.65455563510E+01  0.95810832516E+02  0.94952323405E+02 0.  0.
         11    1    3    3    0    0 -0.26060129562E+02 -0.27618214506E+02  0.24570452084E+02  0.45228345547E+02  0.00000000000E+00 0.  1.
        -11    1    3    3    0    0  0.27359065022E+02  0.38537938229E+02 -0.18024895733E+02  0.50582486969E+02  0.00000000000E+00 0. -1.
         22    1    1    2    0    0 -0.12989354597E+01 -0.10919723723E+02  0.11998362859E+02  0.16275389729E+02  0.00000000000E+00 0. -1.
<mgrwt>
<rscale>  0 0.55669170E+02</rscale>
<asrwt>0</asrwt>
<pdfrwt beam="1">  1        1 0.71955617E-02 0.95586983E+02</pdfrwt>
<pdfrwt beam="2">  1       -1 0.10048473E-01 0.95586983E+02</pdfrwt>
<totfact> 0.52531470E+04</totfact>
</mgrwt>
</event>
<event>
 6    1  0.1535970E-002  0.9128943E+02  0.7546771E-02  0.1429739E+00
          1   -1    0    0  501    0  0.00000000000E+00  0.00000000000E+00  0.18147355423E+04  0.18147355423E+04  0.00000000000E+00 0. -1.
         -1   -1    0    0    0  501 -0.00000000000E+00 -0.00000000000E+00 -0.30398088588E+01  0.30398088588E+01  0.00000000000E+00 0.  1.
         23    2    1    2    0    0 -0.18216636824E+01  0.10220181711E+02  0.17992670602E+04  0.18015814483E+04  0.90697244718E+02 0.  0.
         11    1    3    3    0    0  0.11420433006E+01  0.82044122778E+01  0.13691610337E+02  0.16002400987E+02  0.00000000000E+00 0.  1.
        -11    1    3    3    0    0 -0.29637069830E+01  0.20157694327E+01  0.17855754499E+04  0.17855790473E+04  0.00000000000E+00 0. -1.
         22    1    1    2    0    0  0.18216636824E+01 -0.10220181711E+02  0.12428673243E+02  0.16193902907E+02  0.00000000000E+00 0.  1.
<mgrwt>
<rscale>  0 0.53012454E+02</rscale>
<asrwt>0</asrwt>
<pdfrwt beam="1">  1        1 0.27918922E+00 0.91289434E+02</pdfrwt>
<pdfrwt beam="2">  1       -1 0.46766435E-03 0.91289434E+02</pdfrwt>
<totfact> 0.23434592E+04</totfact>
</mgrwt>
</event>
<event>
 6    1  0.1535970E-002  0.9349180E+02  0.7546771E-02  0.1400214E+00
          2   -1    0    0  501    0  0.00000000000E+00  0.00000000000E+00  0.78503097308E+03  0.78503097308E+03  0.00000000000E+00 0. -1.
         -2   -1    0    0    0  501 -0.00000000000E+00 -0.00000000000E+00 -0.11545555954E+02  0.11545555954E+02  0.00000000000E+00 0.  1.
         23    2    1    2    0    0  0.14843701068E+02 -0.35881727708E+01  0.77555135250E+03  0.78116619048E+03  0.92236144384E+02 0.  0.
         13    1    3    3    0    0  0.41767263910E+02 -0.10599131597E+02  0.18469468617E+03  0.18965487872E+03  0.00000000000E+00 0.  1.
        -13    1    3    3    0    0 -0.26923562842E+02  0.70109588261E+01  0.59085666634E+03  0.59151131176E+03  0.00000000000E+00 0. -1.
         22    1    1    2    0    0 -0.14843701068E+02  0.35881727708E+01 -0.20659353838E+01  0.15410338550E+02  0.00000000000E+00 0.  1.
<mgrwt>
<rscale>  0 0.59435873E+02</rscale>
<asrwt>0</asrwt>
<pdfrwt beam="1">  1        2 0.12077395E+00 0.93491801E+02</pdfrwt>
<pdfrwt beam="2">  1       -2 0.17762400E-02 0.93491801E+02</pdfrwt>
<totfact> 0.30400976E+04</totfact>
</mgrwt>
</event>
<event>
 6    1  0.1535970E-002  0.9926253E+02  0.7546771E-02  0.1386292E+00
         -3   -1    0    0    0  501 -0.00000000000E+00  0.00000000000E+00  0.42486865957E+03  0.42486865957E+03  0.00000000000E+00 0.  1.
          3   -1    0    0  501    0  0.00000000000E+00 -0.00000000000E+00 -0.79263419532E+01  0.79263419532E+01  0.00000000000E+00 0. -1.
         23    2    1    2    0    0  0.73092599468E+01  0.14167636752E+02  0.37531242032E+03  0.38821702982E+03  0.97973987287E+02 0.  0.
         11    1    3    3    0    0  0.75932570979E+01  0.55899234440E+02  0.24381986627E+03  0.25026088218E+03  0.00000000000E+00 0.  1.
        -11    1    3    3    0    0 -0.28399715116E+00 -0.41731597688E+02  0.13149255406E+03  0.13795614764E+03  0.00000000000E+00 0. -1.
         22    1    1    2    0    0 -0.73092599468E+01 -0.14167636752E+02  0.41629897294E+02  0.44577971700E+02  0.00000000000E+00 0. -1.
<mgrwt>
<rscale>  0 0.62838335E+02</rscale>
<asrwt>0</asrwt>
<pdfrwt beam="1">  1        3 0.12194376E-02 0.99262528E+02</pdfrwt>
<pdfrwt beam="2">  1       -3 0.65364391E-01 0.99262528E+02</pdfrwt>
<totfact> 0.98565822E+03</totfact>
</mgrwt>
</event>
<event>
 6    1  0.1535970E-002  0.1027293E+03  0.7546771E-02  0.1314739E+00
         -2   -1    0    0    0  501 -0.00000000000E+00  0.00000000000E+00  0.32713257963E+02  0.32713257963E+02  0.00000000000E+00 0.  1.
          2   -1    0    0  501    0  0.00000000000E+00 -0.00000000000E+00 -0.27792947212E+03  0.27792947212E+03  0.00000000000E+00 0. -1.
         23    2    1    2    0    0  0.35891471578E+02 -0.32997527898E+02 -0.24066806996E+03  0.26167620892E+03  0.90422805953E+02 0.  0.
         13    1    3    3    0    0 -0.43501310980E+01 -0.21678404721E+02 -0.20651503188E+03  0.20769529428E+03  0.00000000000E+00 0. -1.
        -13    1    3    3    0    0  0.40241602676E+02 -0.11319123177E+02 -0.34153038075E+02  0.53980914638E+02  0.00000000000E+00 0.  1.
         22    1    1    2    0    0 -0.35891471578E+02  0.32997527898E+02 -0.45481441984E+01  0.48966521166E+02  0.00000000000E+00 0.  1.
<mgrwt>
<rscale>  0 0.85265890E+02</rscale>
<asrwt>0</asrwt>
<pdfrwt beam="1">  1        2 0.42758378E-01 0.10272935E+03</pdfrwt>
<pdfrwt beam="2">  1       -2 0.50328092E-02 0.10272935E+03</pdfrwt>
<totfact> 0.20900149E+04</totfact>
</mgrwt>
</event>
<event>
 6    1  0.1535970E-002  0.9229368E+02  0.7546771E-02  0.1406485E+00
          1   -1    0    0  501    0  0.00000000000E+00  0.00000000000E+00  0.23655797366E+03  0.23655797366E+03  0.00000000000E+00 0. -1.
         -1   -1    0    0    0  501 -0.00000000000E+00 -0.00000000000E+00 -0.12610262376E+02  0.12610262376E+02  0.00000000000E+00 0.  1.
         23    2    1    2    0    0  0.94101940818E+01  0.10873704168E+02  0.20876554648E+03  0.22825681994E+03  0.91166513898E+02 0.  0.
         13    1    3    3    0    0 -0.37148852776E+02 -0.95019570554E+01  0.11993238356E+03  0.12591306952E+03  0.00000000000E+00 0. -1.
        -13    1    3    3    0    0  0.46559046858E+02  0.20375661224E+02  0.88833162923E+02  0.10234375042E+03  0.00000000000E+00 0.  1.
         22    1    1    2    0    0 -0.94101940818E+01 -0.10873704168E+02  0.15182164801E+02  0.20911416094E+02  0.00000000000E+00 0.  1.
<mgrwt>
<rscale>  0 0.57985571E+02</rscale>
<asrwt>0</asrwt>
<pdfrwt beam="1">  1        1 0.36393531E-01 0.92293675E+02</pdfrwt>
<pdfrwt beam="2">  1       -1 0.19400405E-02 0.92293675E+02</pdfrwt>
<totfact> 0.73326246E+04</totfact>
</mgrwt>
</event>
<event>
 6    1  0.1535970E-002  0.9997994E+02  0.7546771E-02  0.1330985E+00
          2   -1    0    0  501    0  0.00000000000E+00  0.00000000000E+00  0.40495037179E+03  0.40495037179E+03  0.00000000000E+00 0. -1.
         -2   -1    0    0    0  501 -0.00000000000E+00 -0.00000000000E+00 -0.12822168455E+02  0.12822168455E+02  0.00000000000E+00 0.  1.
         23    2    1    2    0    0  0.12155789913E+02 -0.37702793785E+02  0.32275460883E+03  0.33788537292E+03  0.91797188571E+02 0.  0.
         11    1    3    3    0    0 -0.33705966030E+02 -0.18911614516E+02  0.66788029755E+02  0.77164643641E+02  0.00000000000E+00 0. -1.
        -11    1    3    3    0    0  0.45861755943E+02 -0.18791179269E+02  0.25596657907E+03  0.26072072928E+03  0.00000000000E+00 0.  1.
         22    1    1    2    0    0 -0.12155789913E+02  0.37702793785E+02  0.69373594511E+02  0.79887167324E+02  0.00000000000E+00 0. -1.
<mgrwt>
<rscale>  0 0.79322545E+02</rscale>
<asrwt>0</asrwt>
<pdfrwt beam="1">  1        2 0.62300047E-01 0.99979937E+02</pdfrwt>
<pdfrwt beam="2">  1       -2 0.19726416E-02 0.99979937E+02</pdfrwt>
<totfact> 0.55182774E+04</totfact>
</mgrwt>
</event>
<event>
 6    1  0.1535970E-002  0.9288392E+02  0.7546771E-02  0.1384260E+00
         -2   -1    0    0    0  501 -0.00000000000E+00  0.00000000000E+00  0.11392458005E+03  0.11392458005E+03  0.00000000000E+00 0.  1.
          2   -1    0    0  501    0  0.00000000000E+00 -0.00000000000E+00 -0.30800762357E+02  0.30800762357E+02  0.00000000000E+00 0. -1.
         23    2    1    2    0    0 -0.19003515366E+02  0.65711617695E+01  0.83079226593E+02  0.12461773809E+03  0.90681359668E+02 0.  0.
         11    1    3    3    0    0 -0.18790249481E+01 -0.38300458156E+02  0.60302965075E+02  0.71462601594E+02  0.00000000000E+00 0. -1.
        -11    1    3    3    0    0 -0.17124490418E+02  0.44871619925E+02  0.22776261518E+02  0.53155136493E+02  0.00000000000E+00 0.  1.
         22    1    1    2    0    0  0.19003515366E+02 -0.65711617695E+01  0.44591103668E-01  0.20107604324E+02  0.00000000000E+00 0.  1.
<mgrwt>
<rscale>  0 0.63357090E+02</rscale>
<asrwt>0</asrwt>
<pdfrwt beam="1">  1        2 0.47385789E-02 0.92883921E+02</pdfrwt>
<pdfrwt beam="2">  1       -2 0.17526858E-01 0.92883921E+02</pdfrwt>
<totfact> 0.38614753E+04</totfact>
</mgrwt>
</event>
<event>
 6    1  0.1535970E-002  0.7732003E+02  0.7546771E-02  0.1423756E+00
         -2   -1    0    0    0  501 -0.00000000000E+00  0.00000000000E+00  0.30241764071E+02  0.30241764071E+02  0.00000000000E+00 0.  1.
          2   -1    0    0  501    0  0.00000000000E+00 -0.00000000000E+00 -0.92291051243E+02  0.92291051243E+02  0.00000000000E+00 0. -1.
         23    2    1    2    0    0 -0.18625049035E+02 -0.18424942280E+01 -0.67922737782E+02  0.10291688662E+03  0.75020663865E+02 0.  0.
         11    1    3    3    0    0 -0.16378501098E+02 -0.14342940847E+02 -0.81480835981E+02  0.84339207267E+02  0.00000000000E+00 0. -1.
        -11    1    3    3    0    0 -0.22465479362E+01  0.12500446619E+02  0.13558098198E+02  0.18577679351E+02  0.00000000000E+00 0.  1.
         22    1    1    2    0    0  0.18625049035E+02  0.18424942280E+01  0.58734506103E+01  0.19615928696E+02  0.00000000000E+00 0. -1.
<mgrwt>
<rscale>  0 0.54234052E+02</rscale>
<asrwt>0</asrwt>
<pdfrwt beam="1">  1        2 0.14198623E-01 0.77320031E+02</pdfrwt>
<pdfrwt beam="2">  1       -2 0.46525792E-02 0.77320031E+02</pdfrwt>
<totfact> 0.75671637E+04</totfact>
</mgrwt>
</event>
<event>
 6    1  0.1535970E-002  0.9821539E+02  0.7546771E-02  0.1403390E+00
         -4   -1    0    0    0  501 -0.00000000000E+00  0.00000000000E+00  0.41683486024E+02  0.41683486024E+02  0.00000000000E+00 0.  1.
          4   -1    0    0  501    0  0.00000000000E+00 -0.00000000000E+00 -0.12312173815E+03  0.12312173815E+03  0.00000000000E+00 0. -1.
         23    2    1    2    0    0 -0.33049960508E+01  0.12084010670E+02 -0.10144507240E+03  0.14119973392E+03  0.97413119399E+02 0.  0.
         11    1    3    3    0    0  0.25167558988E+02 -0.69045708805E+01 -0.10366954734E+03  0.10690394834E+03  0.00000000000E+00 0. -1.
        -11    1    3    3    0    0 -0.28472555039E+02  0.18988581550E+02  0.22244749392E+01  0.34295785579E+02  0.00000000000E+00 0.  1.
         22    1    1    2    0    0  0.33049960508E+01 -0.12084010670E+02  0.20006820276E+02  0.23605490258E+02  0.00000000000E+00 0. -1.
<mgrwt>
<rscale>  0 0.58695328E+02</rscale>
<asrwt>0</asrwt>
<pdfrwt beam="1">  1        4 0.18941805E-01 0.98215386E+02</pdfrwt>
<pdfrwt beam="2">  1       -4 0.64128442E-02 0.98215386E+02</pdfrwt>
<totfact> 0.59322903E+03</totfact>
</mgrwt>
</event>
<event>
 6    1  0.1535970E-002  0.6725245E+02  0.7546771E-02  0.1470108E+00
          2   -1    0    0  501    0  0.00000000000E+00  0.00000000000E+00  0.42341502386E+03  0.42341502386E+03  0.00000000000E+00 0.  1.
         -2   -1    0    0    0  501 -0.00000000000E+00 -0.00000000000E+00 -0.44373825710E+01  0.44373825710E+01  0.00000000000E+00 0. -1.
         23    2    1    2    0    0  0.37795361828E+01 -0.13813658175E+02  0.38719430394E+03  0.39299150313E+03  0.65709896383E+02 0.  0.
         11    1    3    3    0    0  0.93961765465E+01 -0.39669446416E+02  0.24016780541E+03  0.24360321810E+03  0.00000000000E+00 0. -1.
        -11    1    3    3    0    0 -0.56166403637E+01  0.25855788240E+02  0.14702649853E+03  0.14938828503E+03  0.00000000000E+00 0.  1.
         22    1    1    2    0    0 -0.37795361828E+01  0.13813658175E+02  0.31783337350E+02  0.34860903302E+02  0.00000000000E+00 0. -1.
<mgrwt>
<rscale>  0 0.45685391E+02</rscale>
<asrwt>0</asrwt>
<pdfrwt beam="1">  1        2 0.65140741E-01 0.67252454E+02</pdfrwt>
<pdfrwt beam="2">  1       -2 0.68267458E-03 0.67252454E+02</pdfrwt>
<totfact> 0.22244664E+05</totfact>
</mgrwt>
</event>
<event>
 6    1  0.1535970E-002  0.9388381E+02  0.7546771E-02  0.1377054E+00
         -2   -1    0    0    0  501 -0.00000000000E+00  0.00000000000E+00  0.88399667656E+01  0.88399667656E+01  0.00000000000E+00 0.  1.
          2   -1    0    0  501    0  0.00000000000E+00 -0.00000000000E+00 -0.41112638812E+03  0.41112638812E+03  0.00000000000E+00 0. -1.
         23    2    1    2    0    0 -0.66282016761E+01 -0.20870621340E+02 -0.36346939632E+03  0.37539868358E+03  0.91294324490E+02 0.  0.
         11    1    3    3    0    0 -0.41505227506E+01 -0.41753238425E+01 -0.35742105377E+03  0.35746953695E+03  0.00000000000E+00 0. -1.
        -11    1    3    3    0    0 -0.24776789255E+01 -0.16695297498E+02 -0.60483425445E+01  0.17929146632E+02  0.00000000000E+00 0.  1.
         22    1    1    2    0    0  0.66282016761E+01  0.20870621340E+02 -0.38817025038E+02  0.44567671303E+02  0.00000000000E+00 0. -1.
<mgrwt>
<rscale>  0 0.65244424E+02</rscale>
<asrwt>0</asrwt>
<pdfrwt beam="1">  1        2 0.63250212E-01 0.93883809E+02</pdfrwt>
<pdfrwt beam="2">  1       -2 0.13599949E-02 0.93883809E+02</pdfrwt>
<totfact> 0.91721510E+04</totfact>
</mgrwt>
</event>
<event>
 6    1  0.1535970E-002  0.8687239E+02  0.7546771E-02  0.1426406E+00
         -1   -1    0    0    0  501 -0.00000000000E+00  0.00000000000E+00  0.40304908880E+02  0.40304908880E+02  0.00000000000E+00 0.  1.
          1   -1    0    0  501    0  0.00000000000E+00 -0.00000000000E+00 -0.65656834487E+02  0.65656834487E+02  0.00000000000E+00 0. -1.
         23    2    1    2    0    0 -0.49051017313E+01 -0.11684961043E+02 -0.30795570529E+02  0.92169295883E+02  0.85943083501E+02 0.  0.
         11    1    3    3    0    0 -0.34227766485E+02  0.19014636381E+02  0.93868175489E+00  0.39166025056E+02  0.00000000000E+00 0. -1.
        -11    1    3    3    0    0  0.29322664754E+02 -0.30699597424E+02 -0.31734252284E+02  0.53003270826E+02  0.00000000000E+00 0.  1.
         22    1    1    2    0    0  0.49051017313E+01  0.11684961043E+02  0.54436449218E+01  0.13792447484E+02  0.00000000000E+00 0.  1.
<mgrwt>
<rscale>  0 0.53688214E+02</rscale>
<asrwt>0</asrwt>
<pdfrwt beam="1">  1        1 0.10101051E-01 0.86872389E+02</pdfrwt>
<pdfrwt beam="2">  1       -1 0.62007553E-02 0.86872389E+02</pdfrwt>
<totfact> 0.68012444E+04</totfact>
</mgrwt>
</event>
<event>
 6    1  0.1535970E-002  0.9244410E+02  0.7546771E-02  0.1395046E+00
         -2   -1    0    0    0  501 -0.00000000000E+00  0.00000000000E+00  0.26613055227E+02  0.26613055227E+02  0.00000000000E+00 0.  1.
          2   -1    0    0  501    0  0.00000000000E+00 -0.00000000000E+00 -0.21073267120E+03  0.21073267120E+03  0.00000000000E+00 0. -1.
         23    2    1    2    0    0 -0.15168780683E+02 -0.79989303138E+01 -0.19584835357E+03  0.21656982502E+03  0.90839620868E+02 0.  0.
         13    1    3    3    0    0 -0.46145414724E+02  0.19540818758E+02 -0.12188019505E+03  0.13178021415E+03  0.00000000000E+00 0. -1.
        -13    1    3    3    0    0  0.30976634042E+02 -0.27539749072E+02 -0.73968158526E+02  0.84789610869E+02  0.00000000000E+00 0.  1.
         22    1    1    2    0    0  0.15168780683E+02  0.79989303138E+01  0.11728737599E+02  0.20775901406E+02  0.00000000000E+00 0.  1.
<mgrwt>
<rscale>  0 0.60668970E+02</rscale>
<asrwt>0</asrwt>
<pdfrwt beam="1">  1        2 0.32420410E-01 0.92444099E+02</pdfrwt>
<pdfrwt beam="2">  1       -2 0.40943164E-02 0.92444099E+02</pdfrwt>
<totfact> 0.37557387E+04</totfact>
</mgrwt>
</event>
<event>
 6    1  0.1535970E-002  0.8958118E+02  0.7546771E-02  0.1416437E+00
          4   -1    0    0  501    0  0.00000000000E+00  0.00000000000E+00  0.11785040158E+02  0.11785040158E+02  0.00000000000E+00 0. -1.
         -4   -1    0    0    0  501 -0.00000000000E+00 -0.00000000000E+00 -0.22541661818E+03  0.22541661818E+03  0.00000000000E+00 0.  1.
         23    2    1    2    0    0  0.10432083479E+02  0.85191039067E+01 -0.18769900779E+03  0.20798006194E+03  0.88562888071E+02 0.  0.
         13    1    3    3    0    0  0.94333138727E+01  0.48587113095E+02 -0.10494124027E+03  0.11602740572E+03  0.00000000000E+00 0. -1.
        -13    1    3    3    0    0  0.99876960623E+00 -0.40068009188E+02 -0.82757767517E+02  0.91952656217E+02  0.00000000000E+00 0.  1.
         22    1    1    2    0    0 -0.10432083479E+02 -0.85191039067E+01 -0.25932570240E+02  0.29221596403E+02  0.00000000000E+00 0. -1.
<mgrwt>
<rscale>  0 0.55781901E+02</rscale>
<asrwt>0</asrwt>
<pdfrwt beam="1">  1        4 0.18130833E-02 0.89581185E+02</pdfrwt>
<pdfrwt beam="2">  1       -4 0.34679476E-01 0.89581185E+02</pdfrwt>
<totfact> 0.13726205E+04</totfact>
</mgrwt>
</event>
<event>
 6    1  0.1535970E-002  0.9206796E+02  0.7546771E-02  0.1422509E+00
         -2   -1    0    0    0  501 -0.00000000000E+00  0.00000000000E+00  0.28064549942E+01  0.28064549942E+01  0.00000000000E+00 0.  1.
          2   -1    0    0  501    0  0.00000000000E+00 -0.00000000000E+00 -0.98889047826E+03  0.98889047826E+03  0.00000000000E+00 0. -1.
         23    2    1    2    0    0  0.63767331189E+00 -0.11281393578E+02 -0.92550460039E+03  0.93007272581E+03  0.91371951203E+02 0.  0.
         11    1    3    3    0    0 -0.17016581529E+02  0.29021550126E+02 -0.17051804680E+03  0.17380511702E+03  0.00000000000E+00 0.  1.
        -11    1    3    3    0    0  0.17654254841E+02 -0.40302943704E+02 -0.75498655360E+03  0.75626760879E+03  0.00000000000E+00 0. -1.
         22    1    1    2    0    0 -0.63767331189E+00  0.11281393578E+02 -0.60579422869E+02  0.61624207447E+02  0.00000000000E+00 0. -1.
<mgrwt>
<rscale>  0 0.54493570E+02</rscale>
<asrwt>0</asrwt>
<pdfrwt beam="1">  1        2 0.15213690E+00 0.92067964E+02</pdfrwt>
<pdfrwt beam="2">  1       -2 0.43176257E-03 0.92067964E+02</pdfrwt>
<totfact> 0.16709688E+05</totfact>
</mgrwt>
</event>
<event>
 6    1  0.1535970E-002  0.1078919E+03  0.7546771E-02  0.1349974E+00
          2   -1    0    0  501    0  0.00000000000E+00  0.00000000000E+00  0.17064985349E+03  0.17064985349E+03  0.00000000000E+00 0.  1.
         -2   -1    0    0    0  501 -0.00000000000E+00 -0.00000000000E+00 -0.26596252549E+02  0.26596252549E+02  0.00000000000E+00 0. -1.
         23    2    1    2    0    0  0.10326477443E+02 -0.20204235971E+02  0.13499862767E+03  0.17281580050E+03  0.10547902229E+03 0.  0.
         11    1    3    3    0    0  0.29763545963E+01 -0.24561319855E+02  0.15188705457E+03  0.15388890300E+03  0.00000000000E+00 0.  1.
        -11    1    3    3    0    0  0.73501228462E+01  0.43570838840E+01 -0.16888426904E+02  0.18926897504E+02  0.00000000000E+00 0. -1.
         22    1    1    2    0    0 -0.10326477443E+02  0.20204235971E+02  0.90549732723E+01  0.24430305535E+02  0.00000000000E+00 0.  1.
<mgrwt>
<rscale>  0 0.73063684E+02</rscale>
<asrwt>0</asrwt>
<pdfrwt beam="1">  1        2 0.26253823E-01 0.10789194E+03</pdfrwt>
<pdfrwt beam="2">  1       -2 0.40917313E-02 0.10789194E+03</pdfrwt>
<totfact> 0.48092464E+04</totfact>
</mgrwt>
</event>
<event>
 6    1  0.1535970E-002  0.9488077E+02  0.7546771E-02  0.1381249E+00
          2   -1    0    0  501    0  0.00000000000E+00  0.00000000000E+00  0.15342896466E+03  0.15342896466E+03  0.00000000000E+00 0. -1.
         -2   -1    0    0    0  501 -0.00000000000E+00 -0.00000000000E+00 -0.52319749681E+02  0.52319749681E+02  0.00000000000E+00 0.  1.
         23    2    1    2    0    0 -0.17155392072E+02  0.99067246773E+01  0.13588153925E+03  0.16572915404E+03  0.92789595961E+02 0.  0.
         11    1    3    3    0    0  0.26741523148E+02  0.32687012949E+02  0.41688423931E+02  0.59342013495E+02  0.00000000000E+00 0. -1.
        -11    1    3    3    0    0 -0.43896915220E+02 -0.22780288272E+02  0.94193115319E+02  0.10638714054E+03  0.00000000000E+00 0.  1.
         22    1    1    2    0    0  0.17155392072E+02 -0.99067246773E+01 -0.34772324274E+02  0.40019560298E+02  0.00000000000E+00 0.  1.
<mgrwt>
<rscale>  0 0.64136724E+02</rscale>
<asrwt>0</asrwt>
<pdfrwt beam="1">  1        2 0.23604456E-01 0.94880766E+02</pdfrwt>
<pdfrwt beam="2">  1       -2 0.80491923E-02 0.94880766E+02</pdfrwt>
<totfact> 0.19259778E+04</totfact>
</mgrwt>
</event>
<event>
 6    1  0.1535970E-002  0.9103323E+02  0.7546771E-02  0.1415775E+00
          2   -1    0    0  501    0  0.00000000000E+00  0.00000000000E+00  0.22023246490E+03  0.22023246490E+03  0.00000000000E+00 0.  1.
         -2   -1    0    0    0  501 -0.00000000000E+00 -0.00000000000E+00 -0.12535543671E+02  0.12535543671E+02  0.00000000000E+00 0. -1.
         23    2    1    2    0    0 -0.12925921259E+02 -0.10232754263E+01  0.19136994717E+03  0.21191862933E+03  0.90105062245E+02 0.  0.
         11    1    3    3    0    0 -0.75034437159E+01  0.25968680533E+02  0.18018633382E+03  0.18220260407E+03  0.00000000000E+00 0.  1.
        -11    1    3    3    0    0 -0.54224775429E+01 -0.26991955960E+02  0.11183613354E+02  0.29716025254E+02  0.00000000000E+00 0. -1.
         22    1    1    2    0    0  0.12925921259E+02  0.10232754263E+01  0.16326974051E+02  0.20849379239E+02  0.00000000000E+00 0. -1.
<mgrwt>
<rscale>  0 0.55924807E+02</rscale>
<asrwt>0</asrwt>
<pdfrwt beam="1">  1        2 0.33881915E-01 0.91033229E+02</pdfrwt>
<pdfrwt beam="2">  1       -2 0.19285453E-02 0.91033229E+02</pdfrwt>
<totfact> 0.10670802E+05</totfact>
</mgrwt>
</event>
<event>
 6    1  0.1535970E-002  0.1126660E+03  0.7546771E-02  0.1284486E+00
         -2   -1    0    0    0  501 -0.00000000000E+00  0.00000000000E+00  0.12955041569E+03  0.12955041569E+03  0.00000000000E+00 0.  1.
          2   -1    0    0  501    0  0.00000000000E+00 -0.00000000000E+00 -0.12152165223E+04  0.12152165223E+04  0.00000000000E+00 0. -1.
         23    2    1    2    0    0  0.48861360494E+02  0.42232689193E+02 -0.12043715672E+04  0.12096299004E+04  0.92317883095E+02 0.  0.
         11    1    3    3    0    0  0.38860299106E+02  0.57516750393E+02 -0.11533586062E+04  0.11554455305E+04  0.00000000000E+00 0. -1.
        -11    1    3    3    0    0  0.10001061388E+02 -0.15284061200E+02 -0.51012960953E+02  0.54184369894E+02  0.00000000000E+00 0.  1.
         22    1    1    2    0    0 -0.48861360494E+02 -0.42232689193E+02  0.11870546052E+03  0.13513703764E+03  0.00000000000E+00 0.  1.
<mgrwt>
<rscale>  0 0.98033625E+02</rscale>
<asrwt>0</asrwt>
<pdfrwt beam="1">  1        2 0.18695638E+00 0.11266598E+03</pdfrwt>
<pdfrwt beam="2">  1       -2 0.19930834E-01 0.11266598E+03</pdfrwt>
<totfact> 0.42782532E+02</totfact>
</mgrwt>
</event>
<event>
 6    1  0.1535970E-002  0.9653993E+02  0.7546771E-02  0.1381423E+00
          2   -1    0    0  501    0  0.00000000000E+00  0.00000000000E+00  0.51490264381E+02  0.51490264381E+02  0.00000000000E+00 0. -1.
         -2   -1    0    0    0  501 -0.00000000000E+00 -0.00000000000E+00 -0.67613768957E+02  0.67613768957E+02  0.00000000000E+00 0.  1.
         23    2    1    2    0    0  0.54081356646E+01  0.17956197504E+02 -0.37030741664E+01  0.96610922132E+02  0.94701027221E+02 0.  0.
         11    1    3    3    0    0 -0.19217820887E+02 -0.33931694258E+02 -0.37495099975E+01  0.39175800439E+02  0.00000000000E+00 0.  1.
        -11    1    3    3    0    0  0.24625956551E+02  0.51887891762E+02  0.46435831133E-01  0.57435121692E+02  0.00000000000E+00 0. -1.
         22    1    1    2    0    0 -0.54081356646E+01 -0.17956197504E+02 -0.12420430410E+02  0.22493111206E+02  0.00000000000E+00 0. -1.
<mgrwt>
<rscale>  0 0.64091081E+02</rscale>
<asrwt>0</asrwt>
<pdfrwt beam="1">  1        2 0.79215791E-02 0.96539927E+02</pdfrwt>
<pdfrwt beam="2">  1       -2 0.10402118E-01 0.96539927E+02</pdfrwt>
<totfact> 0.46618969E+04</totfact>
</mgrwt>
</event>
<event>
 6    1  0.1535970E-002  0.9064491E+02  0.7546771E-02  0.1389523E+00
         -2   -1    0    0    0  501 -0.00000000000E+00  0.00000000000E+00  0.39872023829E+02  0.39872023829E+02  0.00000000000E+00 0. -1.
          2   -1    0    0  501    0  0.00000000000E+00 -0.00000000000E+00 -0.94332633919E+02  0.94332633919E+02  0.00000000000E+00 0.  1.
         23    2    1    2    0    0 -0.15286950131E+02  0.12697173866E+02 -0.65160275599E+02  0.11163494551E+03  0.88439756189E+02 0.  0.
         11    1    3    3    0    0 -0.12924410957E+02 -0.21986834800E+02  0.11107292902E+02  0.27817858629E+02  0.00000000000E+00 0. -1.
        -11    1    3    3    0    0 -0.23625391738E+01  0.34684008665E+02 -0.76267568501E+02  0.83817086882E+02  0.00000000000E+00 0.  1.
         22    1    1    2    0    0  0.15286950131E+02 -0.12697173866E+02  0.10699665508E+02  0.22569712237E+02  0.00000000000E+00 0.  1.
<mgrwt>
<rscale>  0 0.62025418E+02</rscale>
<asrwt>0</asrwt>
<pdfrwt beam="1">  1        2 0.14512713E-01 0.90644909E+02</pdfrwt>
<pdfrwt beam="2">  1       -2 0.61341576E-02 0.90644909E+02</pdfrwt>
<totfact> 0.50062495E+04</totfact>
</mgrwt>
</event>
<event>
 6    1  0.1535970E-002  0.9280122E+02  0.7546771E-02  0.1329091E+00
          2   -1    0    0  501    0  0.00000000000E+00  0.00000000000E+00  0.29077031148E+03  0.29077031148E+03  0.00000000000E+00 0. -1.
         -2   -1    0    0    0  501 -0.00000000000E+00 -0.00000000000E+00 -0.18253290000E+02  0.18253290000E+02  0.00000000000E+00 0.  1.
         23    2    1    2    0    0 -0.38489394202E+02  0.33786823006E+02  0.19718051361E+03  0.21792710159E+03  0.77389170964E+02 0.  0.
         13    1    3    3    0    0 -0.40236199823E+02  0.25671278256E+02  0.45246096656E+02  0.65766066981E+02  0.00000000000E+00 0.  1.
        -13    1    3    3    0    0  0.17468056203E+01  0.81155447503E+01  0.15193441696E+03  0.15216103461E+03  0.00000000000E+00 0. -1.
         22    1    1    2    0    0  0.38489394202E+02 -0.33786823006E+02  0.75336507862E+02  0.91096499888E+02  0.00000000000E+00 0. -1.
<mgrwt>
<rscale>  0 0.79986133E+02</rscale>
<asrwt>0</asrwt>
<pdfrwt beam="1">  1        2 0.44733890E-01 0.92801221E+02</pdfrwt>
<pdfrwt beam="2">  1       -2 0.28081987E-02 0.92801221E+02</pdfrwt>
<totfact> 0.46452714E+04</totfact>
</mgrwt>
</event>
<event>
 6    1  0.1535970E-002  0.9497039E+02  0.7546771E-02  0.1404300E+00
          3   -1    0    0  501    0  0.00000000000E+00  0.00000000000E+00  0.13724865931E+02  0.13724865931E+02  0.00000000000E+00 0. -1.
         -3   -1    0    0    0  501 -0.00000000000E+00 -0.00000000000E+00 -0.24561563936E+03  0.24561563936E+03  0.00000000000E+00 0.  1.
         23    2    1    2    0    0 -0.13138191024E+02  0.37365111142E+01 -0.15918232349E+03  0.18536015472E+03  0.93982983917E+02 0.  0.
         11    1    3    3    0    0 -0.15347008954E+02 -0.29033307283E+02 -0.14652730472E+03  0.15016229435E+03  0.00000000000E+00 0.  1.
        -11    1    3    3    0    0  0.22088179305E+01  0.32769818397E+02 -0.12655018773E+02  0.35197860370E+02  0.00000000000E+00 0. -1.
         22    1    1    2    0    0  0.13138191024E+02 -0.37365111142E+01 -0.72708449940E+02  0.73980350576E+02  0.00000000000E+00 0.  1.
<mgrwt>
<rscale>  0 0.58485396E+02</rscale>
<asrwt>0</asrwt>
<pdfrwt beam="1">  1        3 0.21115178E-02 0.94970389E+02</pdfrwt>
<pdfrwt beam="2">  1       -3 0.37787022E-01 0.94970389E+02</pdfrwt>
<totfact> 0.12665170E+04</totfact>
</mgrwt>
</event>
<event>
 6    1  0.1535970E-002  0.9173692E+02  0.7546771E-02  0.1390722E+00
          2   -1    0    0  501    0  0.00000000000E+00  0.00000000000E+00  0.20950654438E+03  0.20950654438E+03  0.00000000000E+00 0.  1.
         -2   -1    0    0    0  501 -0.00000000000E+00 -0.00000000000E+00 -0.17545717687E+02  0.17545717687E+02  0.00000000000E+00 0. -1.
         23    2    1    2    0    0  0.13842011191E+02  0.12729736577E+02  0.18588532590E+03  0.20728969197E+03  0.89788721696E+02 0.  0.
         11    1    3    3    0    0  0.19652780742E+02 -0.35769212697E+02  0.63134780161E+02  0.75177581990E+02  0.00000000000E+00 0. -1.
        -11    1    3    3    0    0 -0.58107695510E+01  0.48498949274E+02  0.12275054574E+03  0.13211210998E+03  0.00000000000E+00 0.  1.
         22    1    1    2    0    0 -0.13842011191E+02 -0.12729736577E+02  0.60755007958E+01  0.19762570103E+02  0.00000000000E+00 0.  1.
<mgrwt>
<rscale>  0 0.61727605E+02</rscale>
<asrwt>0</asrwt>
<pdfrwt beam="1">  1        2 0.32231774E-01 0.91736917E+02</pdfrwt>
<pdfrwt beam="2">  1       -2 0.26993413E-02 0.91736917E+02</pdfrwt>
<totfact> 0.69365769E+04</totfact>
</mgrwt>
</event>
<event>
 6    1  0.1535970E-002  0.8822546E+02  0.7546771E-02  0.1412593E+00
         -2   -1    0    0    0  501 -0.00000000000E+00  0.00000000000E+00  0.80638803356E+01  0.80638803356E+01  0.00000000000E+00 0.  1.
          2   -1    0    0  501    0  0.00000000000E+00 -0.00000000000E+00 -0.47465686052E+03  0.47465686052E+03  0.00000000000E+00 0. -1.
         23    2    1    2    0    0  0.40164775057E+00  0.14959436717E+02 -0.45582478956E+03  0.46428436385E+03  0.86947027962E+02 0.  0.
         13    1    3    3    0    0 -0.10394898801E+02  0.12652257019E+02 -0.45244087506E+03  0.45273709694E+03  0.00000000000E+00 0. -1.
        -13    1    3    3    0    0  0.10796546552E+02  0.23071796972E+01 -0.33839145025E+01  0.11547266905E+02  0.00000000000E+00 0.  1.
         22    1    1    2    0    0 -0.40164775057E+00 -0.14959436717E+02 -0.10768190628E+02  0.18436377009E+02  0.00000000000E+00 0.  1.
<mgrwt>
<rscale>  0 0.56619154E+02</rscale>
<asrwt>0</asrwt>
<pdfrwt beam="1">  1        2 0.73024139E-01 0.88225460E+02</pdfrwt>
<pdfrwt beam="2">  1       -2 0.12405969E-02 0.88225460E+02</pdfrwt>
<totfact> 0.88923847E+04</totfact>
</mgrwt>
</event>
<event>
 6    1  0.1535970E-002  0.9141973E+02  0.7546771E-02  0.1422951E+00
          1   -1    0    0  501    0  0.00000000000E+00  0.00000000000E+00  0.43285748796E+02  0.43285748796E+02  0.00000000000E+00 0. -1.
         -1   -1    0    0    0  501 -0.00000000000E+00 -0.00000000000E+00 -0.62580882477E+02  0.62580882477E+02  0.00000000000E+00 0.  1.
         23    2    1    2    0    0 -0.96433062266E+01  0.61983938911E+01 -0.22125020899E+02  0.94058934483E+02  0.90698143115E+02 0.  0.
         13    1    3    3    0    0  0.32584714243E+01  0.31018580612E+02  0.24516891713E+02  0.39671752652E+02  0.00000000000E+00 0. -1.
        -13    1    3    3    0    0 -0.12901777651E+02 -0.24820186721E+02 -0.46641912612E+02  0.54387181831E+02  0.00000000000E+00 0.  1.
         22    1    1    2    0    0  0.96433062266E+01 -0.61983938911E+01  0.28298872181E+01  0.11807696790E+02  0.00000000000E+00 0. -1.
<mgrwt>
<rscale>  0 0.54401380E+02</rscale>
<asrwt>0</asrwt>
<pdfrwt beam="1">  1        1 0.66593460E-02 0.91419728E+02</pdfrwt>
<pdfrwt beam="2">  1       -1 0.96278280E-02 0.91419728E+02</pdfrwt>
<totfact> 0.61741853E+04</totfact>
</mgrwt>
</event>
<event>
 6    1  0.1535970E-002  0.9340687E+02  0.7546771E-02  0.1411916E+00
         -2   -1    0    0    0  501 -0.00000000000E+00  0.00000000000E+00  0.86053695630E+02  0.86053695630E+02  0.00000000000E+00 0.  1.
          2   -1    0    0  501    0  0.00000000000E+00 -0.00000000000E+00 -0.33648657154E+02  0.33648657154E+02  0.00000000000E+00 0. -1.
         23    2    1    2    0    0  0.77383242646E+01 -0.10125222495E+02  0.52101203454E+02  0.10695503508E+03  0.92533466022E+02 0.  0.
         11    1    3    3    0    0 -0.33048338863E+02 -0.27507393642E+02  0.44667061543E+02  0.61999966077E+02  0.00000000000E+00 0.  1.
        -11    1    3    3    0    0  0.40786663128E+02  0.17382171147E+02  0.74341419107E+01  0.44955069001E+02  0.00000000000E+00 0. -1.
         22    1    1    2    0    0 -0.77383242646E+01  0.10125222495E+02  0.30383502182E+00  0.12747317707E+02  0.00000000000E+00 0. -1.
<mgrwt>
<rscale>  0 0.56768574E+02</rscale>
<asrwt>0</asrwt>
<pdfrwt beam="1">  1        2 0.51767165E-02 0.93406874E+02</pdfrwt>
<pdfrwt beam="2">  1       -2 0.13239030E-01 0.93406874E+02</pdfrwt>
<totfact> 0.54341637E+04</totfact>
</mgrwt>
</event>
<event>
 6    1  0.1535970E-002  0.9149077E+02  0.7546771E-02  0.1411360E+00
          4   -1    0    0  501    0  0.00000000000E+00  0.00000000000E+00  0.27043018674E+03  0.27043018674E+03  0.00000000000E+00 0.  1.
         -4   -1    0    0    0  501 -0.00000000000E+00 -0.00000000000E+00 -0.23941664544E+02  0.23941664544E+02  0.00000000000E+00 0. -1.
         23    2    1    2    0    0  0.19623244532E+01 -0.13537601441E+02  0.25970602686E+03  0.27535028985E+03  0.90462391967E+02 0.  0.
         11    1    3    3    0    0 -0.43406146384E+02 -0.70568205441E+01  0.10097035478E+03  0.11013130710E+03  0.00000000000E+00 0. -1.
        -11    1    3    3    0    0  0.45368470838E+02 -0.64807808972E+01  0.15873567208E+03  0.16521898275E+03  0.00000000000E+00 0.  1.
         22    1    1    2    0    0 -0.19623244532E+01  0.13537601441E+02 -0.13217504664E+02  0.19021561439E+02  0.00000000000E+00 0. -1.
<mgrwt>
<rscale>  0 0.56891481E+02</rscale>
<asrwt>0</asrwt>
<pdfrwt beam="1">  1        4 0.41604642E-01 0.91490774E+02</pdfrwt>
<pdfrwt beam="2">  1       -4 0.36833332E-02 0.91490774E+02</pdfrwt>
<totfact> 0.32516449E+03</totfact>
</mgrwt>
</event>
<event>
 6    1  0.1535970E-002  0.8850041E+02  0.7546771E-02  0.1412155E+00
         -2   -1    0    0    0  501 -0.00000000000E+00  0.00000000000E+00  0.14467826170E+02  0.14467826170E+02  0.00000000000E+00 0.  1.
          2   -1    0    0  501    0  0.00000000000E+00 -0.00000000000E+00 -0.32875080862E+03  0.32875080862E+03  0.00000000000E+00 0. -1.
         23    2    1    2    0    0 -0.72088707159E+01  0.13071177983E+02 -0.31603148214E+03  0.32818930473E+03  0.87232439665E+02 0.  0.
         13    1    3    3    0    0  0.82405650213E+01 -0.27761486498E+02 -0.22897800961E+03  0.23080194091E+03  0.00000000000E+00 0. -1.
        -13    1    3    3    0    0 -0.15449435737E+02  0.40832664481E+02 -0.87053472529E+02  0.97387363823E+02  0.00000000000E+00 0.  1.
         22    1    1    2    0    0  0.72088707159E+01 -0.13071177983E+02  0.17484996839E+01  0.15029330058E+02  0.00000000000E+00 0.  1.
<mgrwt>
<rscale>  0 0.56715802E+02</rscale>
<asrwt>0</asrwt>
<pdfrwt beam="1">  1        2 0.50577048E-01 0.88500407E+02</pdfrwt>
<pdfrwt beam="2">  1       -2 0.22258194E-02 0.88500407E+02</pdfrwt>
<totfact> 0.56818563E+04</totfact>
</mgrwt>
</event>
<event>
 6    1  0.1535970E-002  0.9141421E+02  0.7546771E-02  0.1405420E+00
         -2   -1    0    0    0  501 -0.00000000000E+00  0.00000000000E+00  0.35479693096E+02  0.35479693096E+02  0.00000000000E+00 0. -1.
          2   -1    0    0  501    0  0.00000000000E+00 -0.00000000000E+00 -0.12483752926E+03  0.12483752926E+03  0.00000000000E+00 0.  1.
         23    2    1    2    0    0 -0.14909804340E+02 -0.20404036315E+01 -0.10458745908E+03  0.13890678268E+03  0.90167023719E+02 0.  0.
         13    1    3    3    0    0 -0.40908945000E+02 -0.31085570431E+02 -0.48890186993E+02  0.70923232119E+02  0.00000000000E+00 0. -1.
        -13    1    3    3    0    0  0.25999140660E+02  0.29045166799E+02 -0.55697272087E+02  0.67983550565E+02  0.00000000000E+00 0.  1.
         22    1    1    2    0    0  0.14909804340E+02  0.20404036315E+01  0.15229622921E+02  0.21410439667E+02  0.00000000000E+00 0. -1.
<mgrwt>
<rscale>  0 0.58228492E+02</rscale>
<asrwt>0</asrwt>
<pdfrwt beam="1">  1        2 0.19205774E-01 0.91414209E+02</pdfrwt>
<pdfrwt beam="2">  1       -2 0.54584143E-02 0.91414209E+02</pdfrwt>
<totfact> 0.43348230E+04</totfact>
</mgrwt>
</event>
<event>
 6    1  0.1535970E-002  0.1114224E+03  0.7546771E-02  0.1286832E+00
         -2   -1    0    0    0  501 -0.00000000000E+00  0.00000000000E+00  0.43009870972E+02  0.43009870972E+02  0.00000000000E+00 0.  1.
          2   -1    0    0  501    0  0.00000000000E+00 -0.00000000000E+00 -0.29962961676E+03  0.29962961676E+03  0.00000000000E+00 0. -1.
         23    2    1    2    0    0  0.62924823304E+02 -0.11006645121E+02 -0.25551212214E+03  0.27874968843E+03  0.91292193601E+02 0.  0.
         11    1    3    3    0    0  0.83473749120E+02 -0.17217185692E+02 -0.16483738626E+03  0.18556848381E+03  0.00000000000E+00 0. -1.
        -11    1    3    3    0    0 -0.20548925816E+02  0.62105405711E+01 -0.90674735881E+02  0.93181204615E+02  0.00000000000E+00 0.  1.
         22    1    1    2    0    0 -0.62924823304E+02  0.11006645121E+02 -0.11076236424E+01  0.63889799302E+02  0.00000000000E+00 0.  1.
<mgrwt>
<rscale>  0 0.96955143E+02</rscale>
<asrwt>0</asrwt>
<pdfrwt beam="1">  1        2 0.46096866E-01 0.11142237E+03</pdfrwt>
<pdfrwt beam="2">  1       -2 0.66169030E-02 0.11142237E+03</pdfrwt>
<totfact> 0.12896689E+04</totfact>
</mgrwt>
</event>
<event>
 6    1  0.1535970E-002  0.8779470E+02  0.7546771E-02  0.1392407E+00
          2   -1    0    0  501    0  0.00000000000E+00  0.00000000000E+00  0.75920839526E+03  0.75920839526E+03  0.00000000000E+00 0.  1.
         -2   -1    0    0    0  501 -0.00000000000E+00 -0.00000000000E+00 -0.42584333524E+01  0.42584333524E+01  0.00000000000E+00 0. -1.
         23    2    1    2    0    0  0.17013554676E+02  0.12108292762E+02  0.68062553356E+03  0.68626454597E+03  0.85275074450E+02 0.  0.
         13    1    3    3    0    0 -0.36380494091E+01 -0.85745464053E+01  0.61623947378E+01  0.11168408950E+02  0.00000000000E+00 0. -1.
        -13    1    3    3    0    0  0.20651604085E+02  0.20682839167E+02  0.67446313882E+03  0.67509613702E+03  0.00000000000E+00 0.  1.
         22    1    1    2    0    0 -0.17013554676E+02 -0.12108292762E+02  0.74324428346E+02  0.77202282643E+02  0.00000000000E+00 0.  1.
<mgrwt>
<rscale>  0 0.61312072E+02</rscale>
<asrwt>0</asrwt>
<pdfrwt beam="1">  1        2 0.11680118E+00 0.87794704E+02</pdfrwt>
<pdfrwt beam="2">  1       -2 0.65514420E-03 0.87794704E+02</pdfrwt>
<totfact> 0.12917390E+05</totfact>
</mgrwt>
</event>
<event>
 6    1  0.1535970E-002  0.1042825E+03  0.7546771E-02  0.1310403E+00
         -1   -1    0    0    0  501 -0.00000000000E+00  0.00000000000E+00  0.84705629288E+02  0.84705629288E+02  0.00000000000E+00 0.  1.
          1   -1    0    0  501    0  0.00000000000E+00 -0.00000000000E+00 -0.15451558767E+03  0.15451558767E+03  0.00000000000E+00 0. -1.
         23    2    1    2    0    0  0.15337143156E+02 -0.48018317945E+02 -0.12611696588E+03  0.16364697591E+03  0.91289960142E+02 0.  0.
         11    1    3    3    0    0  0.30774924735E+02 -0.12651579158E+02 -0.16275575685E+01  0.33313771796E+02  0.00000000000E+00 0.  1.
        -11    1    3    3    0    0 -0.15437781580E+02 -0.35366738787E+02 -0.12448940831E+03  0.13033320411E+03  0.00000000000E+00 0. -1.
         22    1    1    2    0    0 -0.15337143156E+02  0.48018317945E+02  0.56307007492E+02  0.75574241056E+02  0.00000000000E+00 0.  1.
<mgrwt>
<rscale>  0 0.86952873E+02</rscale>
<asrwt>0</asrwt>
<pdfrwt beam="1">  1        1 0.23771629E-01 0.10428252E+03</pdfrwt>
<pdfrwt beam="2">  1       -1 0.13031635E-01 0.10428252E+03</pdfrwt>
<totfact> 0.76131826E+03</totfact>
</mgrwt>
</event>
<event>
 6    1  0.1535970E-002  0.9512250E+02  0.7546771E-02  0.1389401E+00
          2   -1    0    0  501    0  0.00000000000E+00  0.00000000000E+00  0.14170441873E+04  0.14170441873E+04  0.00000000000E+00 0. -1.
         -2   -1    0    0    0  501 -0.00000000000E+00 -0.00000000000E+00 -0.34943229569E+01  0.34943229569E+01  0.00000000000E+00 0.  1.
         23    2    1    2    0    0 -0.16655172274E+02  0.44133629389E+01  0.13753164145E+04  0.13786020199E+04  0.93549007391E+02 0.  0.
         11    1    3    3    0    0  0.18646477639E+01 -0.43565417914E+02  0.66071785598E+03  0.66215519915E+03  0.00000000000E+00 0. -1.
        -11    1    3    3    0    0 -0.18519820038E+02  0.47978780853E+02  0.71459855849E+03  0.71644682073E+03  0.00000000000E+00 0.  1.
         22    1    1    2    0    0  0.16655172274E+02 -0.44133629389E+01  0.38233449927E+02  0.41936490426E+02  0.00000000000E+00 0.  1.
<mgrwt>
<rscale>  0 0.62055986E+02</rscale>
<asrwt>0</asrwt>
<pdfrwt beam="1">  1        2 0.21800634E+00 0.95122496E+02</pdfrwt>
<pdfrwt beam="2">  1       -2 0.53758928E-03 0.95122496E+02</pdfrwt>
<totfact> 0.71972960E+04</totfact>
</mgrwt>
</event>
<event>
 6    1  0.1535970E-002  0.1162358E+03  0.7546771E-02  0.1274251E+00
         -2   -1    0    0    0  501 -0.00000000000E+00  0.00000000000E+00  0.39778599352E+02  0.39778599352E+02  0.00000000000E+00 0.  1.
          2   -1    0    0  501    0  0.00000000000E+00 -0.00000000000E+00 -0.35645785571E+03  0.35645785571E+03  0.00000000000E+00 0. -1.
         23    2    1    2    0    0 -0.15649197465E+02  0.69741437206E+02 -0.30155067428E+03  0.32317730478E+03  0.91662400797E+02 0.  0.
         11    1    3    3    0    0  0.83176065345E+01  0.51281764096E+02 -0.58447835304E+02  0.78199433239E+02  0.00000000000E+00 0. -1.
        -11    1    3    3    0    0 -0.23966803999E+02  0.18459673110E+02 -0.24310283897E+03  0.24497787154E+03  0.00000000000E+00 0.  1.
         22    1    1    2    0    0  0.15649197465E+02 -0.69741437206E+02 -0.15128582081E+02  0.73059150287E+02  0.00000000000E+00 0.  1.
<mgrwt>
<rscale>  0 0.10293058E+03</rscale>
<asrwt>0</asrwt>
<pdfrwt beam="1">  1        2 0.54839671E-01 0.11623580E+03</pdfrwt>
<pdfrwt beam="2">  1       -2 0.61197844E-02 0.11623580E+03</pdfrwt>
<totfact> 0.12130400E+04</totfact>
</mgrwt>
</event>
<event>
 6    1  0.1535970E-002  0.9285517E+02  0.7546771E-02  0.1375426E+00
         -2   -1    0    0    0  501 -0.00000000000E+00  0.00000000000E+00  0.18270584525E+02  0.18270584525E+02  0.00000000000E+00 0.  1.
          2   -1    0    0  501    0  0.00000000000E+00 -0.00000000000E+00 -0.18695136923E+03  0.18695136923E+03  0.00000000000E+00 0. -1.
         23    2    1    2    0    0  0.17748604074E+02  0.15012503044E+02 -0.12468055750E+03  0.15545843109E+03  0.89898243495E+02 0.  0.
         13    1    3    3    0    0  0.59341094507E+01  0.21449697512E+02 -0.13604097555E+03  0.13784937507E+03  0.00000000000E+00 0. -1.
        -13    1    3    3    0    0  0.11814494623E+02 -0.64371944681E+01  0.11360418046E+02  0.17609056022E+02  0.00000000000E+00 0.  1.
         22    1    1    2    0    0 -0.17748604074E+02 -0.15012503044E+02 -0.44000227198E+02  0.49763522662E+02  0.00000000000E+00 0. -1.
<mgrwt>
<rscale>  0 0.65681459E+02</rscale>
<asrwt>0</asrwt>
<pdfrwt beam="1">  1        2 0.28761748E-01 0.92855169E+02</pdfrwt>
<pdfrwt beam="2">  1       -2 0.28108593E-02 0.92855169E+02</pdfrwt>
<totfact> 0.74002189E+04</totfact>
</mgrwt>
</event>
<event>
 6    1  0.1535970E-002  0.9835722E+02  0.7546771E-02  0.1347259E+00
         -2   -1    0    0    0  501 -0.00000000000E+00  0.00000000000E+00  0.46394711120E+01  0.46394711120E+01  0.00000000000E+00 0.  1.
          2   -1    0    0  501    0  0.00000000000E+00 -0.00000000000E+00 -0.25405693826E+04  0.25405693826E+04  0.00000000000E+00 0. -1.
         23    2    1    2    0    0 -0.70695961652E+01  0.30565597384E+02 -0.24723925235E+04  0.24743481833E+04  0.93219671875E+02 0.  0.
         11    1    3    3    0    0 -0.48273376782E+02  0.30592934028E+02 -0.14450493577E+04  0.14461790666E+04  0.00000000000E+00 0.  1.
        -11    1    3    3    0    0  0.41203780617E+02 -0.27336643747E-01 -0.10273431658E+04  0.10281691167E+04  0.00000000000E+00 0. -1.
         22    1    1    2    0    0  0.70695961652E+01 -0.30565597384E+02 -0.63537388035E+02  0.70860670415E+02  0.00000000000E+00 0.  1.
<mgrwt>
<rscale>  0 0.73916607E+02</rscale>
<asrwt>0</asrwt>
<pdfrwt beam="1">  1        2 0.39085821E+00 0.98357217E+02</pdfrwt>
<pdfrwt beam="2">  1       -2 0.71376227E-03 0.98357217E+02</pdfrwt>
<totfact> 0.12930359E+04</totfact>
</mgrwt>
</event>
<event>
 6    1  0.1535970E-002  0.8466850E+02  0.7546771E-02  0.1409626E+00
         -2   -1    0    0    0  501 -0.00000000000E+00  0.00000000000E+00  0.11838949755E+02  0.11838949755E+02  0.00000000000E+00 0. -1.
          2   -1    0    0  501    0  0.00000000000E+00 -0.00000000000E+00 -0.22473276854E+03  0.22473276854E+03  0.00000000000E+00 0.  1.
         23    2    1    2    0    0 -0.75372584034E+01 -0.16050678753E+02 -0.18591862812E+03  0.20429021486E+03  0.82790827099E+02 0.  0.
         13    1    3    3    0    0 -0.40700269722E+02  0.39153107132E+01 -0.13001497198E+03  0.13629282649E+03  0.00000000000E+00 0.  1.
        -13    1    3    3    0    0  0.33163011319E+02 -0.19965989467E+02 -0.55903656142E+02  0.67997388370E+02  0.00000000000E+00 0. -1.
         22    1    1    2    0    0  0.75372584034E+01  0.16050678753E+02 -0.26975190662E+02  0.32281503434E+02  0.00000000000E+00 0. -1.
<mgrwt>
<rscale>  0 0.57277321E+02</rscale>
<asrwt>0</asrwt>
<pdfrwt beam="1">  1        2 0.34574273E-01 0.84668504E+02</pdfrwt>
<pdfrwt beam="2">  1       -2 0.18213768E-02 0.84668504E+02</pdfrwt>
<totfact> 0.11207540E+05</totfact>
</mgrwt>
</event>
<event>
 6    1  0.1535970E-002  0.9323905E+02  0.7546771E-02  0.1399695E+00
         -1   -1    0    0    0  501 -0.00000000000E+00  0.00000000000E+00  0.35694621735E+01  0.35694621735E+01  0.00000000000E+00 0.  1.
          1   -1    0    0  501    0  0.00000000000E+00 -0.00000000000E+00 -0.10324028803E+04  0.10324028803E+04  0.00000000000E+00 0. -1.
         23    2    1    2    0    0  0.11473396655E+02  0.10455919869E+02 -0.98625464378E+03  0.99065218012E+03  0.91937775167E+02 0.  0.
         11    1    3    3    0    0  0.36639483612E+02 -0.28699269174E+02 -0.52141690900E+03  0.52348991662E+03  0.00000000000E+00 0.  1.
        -11    1    3    3    0    0 -0.25166086958E+02  0.39155189042E+02 -0.46483773478E+03  0.46716226350E+03  0.00000000000E+00 0. -1.
         22    1    1    2    0    0 -0.11473396655E+02 -0.10455919869E+02 -0.42578774341E+02  0.45320162350E+02  0.00000000000E+00 0.  1.
<mgrwt>
<rscale>  0 0.59558346E+02</rscale>
<asrwt>0</asrwt>
<pdfrwt beam="1">  1        1 0.15883134E+00 0.93239045E+02</pdfrwt>
<pdfrwt beam="2">  1       -1 0.54914759E-03 0.93239045E+02</pdfrwt>
<totfact> 0.60753762E+04</totfact>
</mgrwt>
</event>
<event>
 6    1  0.1535970E-002  0.1039343E+03  0.7546771E-02  0.1359635E+00
         -2   -1    0    0    0  501 -0.00000000000E+00  0.00000000000E+00  0.41331612567E+01  0.41331612567E+01  0.00000000000E+00 0.  1.
          2   -1    0    0  501    0  0.00000000000E+00 -0.00000000000E+00 -0.12001689043E+04  0.12001689043E+04  0.00000000000E+00 0. -1.
         23    2    1    2    0    0 -0.19535971845E+02 -0.90980311484E+01 -0.11314944918E+04  0.11362579514E+04  0.10167555580E+03 0.  0.
         13    1    3    3    0    0 -0.46959908406E+02  0.26924488789E+02 -0.77715323479E+03  0.77903614257E+03  0.00000000000E+00 0. -1.
        -13    1    3    3    0    0  0.27423936561E+02 -0.36022519938E+02 -0.35434125705E+03  0.35722180881E+03  0.00000000000E+00 0.  1.
         22    1    1    2    0    0  0.19535971845E+02  0.90980311484E+01 -0.64541251164E+02  0.68044114136E+02  0.00000000000E+00 0.  1.
<mgrwt>
<rscale>  0 0.70134893E+02</rscale>
<asrwt>0</asrwt>
<pdfrwt beam="1">  1        2 0.18464166E+00 0.10393434E+03</pdfrwt>
<pdfrwt beam="2">  1       -2 0.63586995E-03 0.10393434E+03</pdfrwt>
<totfact> 0.74795303E+04</totfact>
</mgrwt>
</event>
<event>
 6    1  0.1535970E-002  0.9634288E+02  0.7546771E-02  0.1347122E+00
          3   -1    0    0  501    0  0.00000000000E+00  0.00000000000E+00  0.23904926855E+03  0.23904926855E+03  0.00000000000E+00 0. -1.
         -3   -1    0    0    0  501 -0.00000000000E+00 -0.00000000000E+00 -0.31548364587E+02  0.31548364587E+02  0.00000000000E+00 0.  1.
         23    2    1    2    0    0  0.17814924691E+02  0.28323454454E+02  0.21562117437E+03  0.23616613004E+03  0.90345783137E+02 0.  0.
         11    1    3    3    0    0 -0.10775575944E+02  0.43654018209E+02  0.18877822098E+03  0.19405927718E+03  0.00000000000E+00 0. -1.
        -11    1    3    3    0    0  0.28590500635E+02 -0.15330563755E+02  0.26842953383E+02  0.42106852862E+02  0.00000000000E+00 0.  1.
         22    1    1    2    0    0 -0.17814924691E+02 -0.28323454454E+02 -0.81202704025E+01  0.34431503095E+02  0.00000000000E+00 0.  1.
<mgrwt>
<rscale>  0 0.73960028E+02</rscale>
<asrwt>0</asrwt>
<pdfrwt beam="1">  1        3 0.36776809E-01 0.96342878E+02</pdfrwt>
<pdfrwt beam="2">  1       -3 0.48535947E-02 0.96342878E+02</pdfrwt>
<totfact> 0.37178010E+03</totfact>
</mgrwt>
</event>
<event>
 6    1  0.1535970E-002  0.9576621E+02  0.7546771E-02  0.1375041E+00
         -1   -1    0    0    0  501 -0.00000000000E+00  0.00000000000E+00  0.14098452567E+03  0.14098452567E+03  0.00000000000E+00 0. -1.
          1   -1    0    0  501    0  0.00000000000E+00 -0.00000000000E+00 -0.88698004983E+02  0.88698004983E+02  0.00000000000E+00 0.  1.
         23    2    1    2    0    0  0.10873968007E+02  0.18343982703E+02 -0.61566909515E+02  0.11384925197E+03  0.93361785252E+02 0.  0.
         13    1    3    3    0    0  0.27102323079E+02 -0.69426189647E+01 -0.75656375184E+02  0.80663641006E+02  0.00000000000E+00 0.  1.
        -13    1    3    3    0    0 -0.16228355072E+02  0.25286601668E+02  0.14089465669E+02  0.33185610964E+02  0.00000000000E+00 0. -1.
         22    1    1    2    0    0 -0.10873968007E+02 -0.18343982703E+02  0.11385343020E+03  0.11583327868E+03  0.00000000000E+00 0. -1.
<mgrwt>
<rscale>  0 0.65785506E+02</rscale>
<asrwt>0</asrwt>
<pdfrwt beam="1">  1        1 0.13645847E-01 0.95766214E+02</pdfrwt>
<pdfrwt beam="2">  1       -1 0.21689927E-01 0.95766214E+02</pdfrwt>
<totfact> 0.68693147E+03</totfact>
</mgrwt>
</event>
<event>
 6    1  0.1535970E-002  0.8775188E+02  0.7546771E-02  0.1420307E+00
          2   -1    0    0  501    0  0.00000000000E+00  0.00000000000E+00  0.13398061960E+04  0.13398061960E+04  0.00000000000E+00 0. -1.
         -2   -1    0    0    0  501 -0.00000000000E+00 -0.00000000000E+00 -0.31425376918E+01  0.31425376918E+01  0.00000000000E+00 0.  1.
         23    2    1    2    0    0 -0.10952281759E+02 -0.78904998903E+01  0.13111589010E+04  0.13140921034E+04  0.86707440226E+02 0.  0.
         13    1    3    3    0    0 -0.32494220902E+02 -0.29362520125E+02  0.39356405042E+03  0.39599330015E+03  0.00000000000E+00 0.  1.
        -13    1    3    3    0    0  0.21541939143E+02  0.21472020235E+02  0.91759485054E+03  0.91809880325E+03  0.00000000000E+00 0. -1.
         22    1    1    2    0    0  0.10952281759E+02  0.78904998903E+01  0.25504757334E+02  0.28856630277E+02  0.00000000000E+00 0.  1.
<mgrwt>
<rscale>  0 0.54955933E+02</rscale>
<asrwt>0</asrwt>
<pdfrwt beam="1">  1        2 0.20612357E+00 0.87751881E+02</pdfrwt>
<pdfrwt beam="2">  1       -2 0.48346841E-03 0.87751881E+02</pdfrwt>
<totfact> 0.90786796E+04</totfact>
</mgrwt>
</event>
<event>
 6    1  0.1535970E-002  0.9200218E+02  0.7546771E-02  0.1371751E+00
         -2   -1    0    0    0  501 -0.00000000000E+00  0.00000000000E+00  0.58801178667E+01  0.58801178667E+01  0.00000000000E+00 0.  1.
          2   -1    0    0  501    0  0.00000000000E+00 -0.00000000000E+00 -0.11410430587E+04  0.11410430587E+04  0.00000000000E+00 0. -1.
         23    2    1    2    0    0  0.22274623871E+02  0.12185923353E+02 -0.10983904400E+04  0.11022367981E+04  0.88429321880E+02 0.  0.
         11    1    3    3    0    0  0.53254478390E+02  0.40130368872E+00 -0.84670569096E+03  0.84837888212E+03  0.00000000000E+00 0. -1.
        -11    1    3    3    0    0 -0.30979854518E+02  0.11784619665E+02 -0.25168474900E+03  0.25385791602E+03  0.00000000000E+00 0.  1.
         22    1    1    2    0    0 -0.22274623871E+02 -0.12185923353E+02 -0.36772500848E+02  0.44686378407E+02  0.00000000000E+00 0.  1.
<mgrwt>
<rscale>  0 0.66682911E+02</rscale>
<asrwt>0</asrwt>
<pdfrwt beam="1">  1        2 0.17554500E+00 0.92002177E+02</pdfrwt>
<pdfrwt beam="2">  1       -2 0.90463397E-03 0.92002177E+02</pdfrwt>
<totfact> 0.48358609E+04</totfact>
</mgrwt>
</event>
<event>
 6    1  0.1535970E-002  0.9404973E+02  0.7546771E-02  0.1373047E+00
         -2   -1    0    0    0  501 -0.00000000000E+00  0.00000000000E+00  0.67758229680E+01  0.67758229680E+01  0.00000000000E+00 0. -1.
          2   -1    0    0  501    0  0.00000000000E+00 -0.00000000000E+00 -0.86083778687E+03  0.86083778687E+03  0.00000000000E+00 0.  1.
         23    2    1    2    0    0 -0.23123645033E+02 -0.25596215027E+01 -0.82520124457E+03  0.83054346360E+03  0.91126814187E+02 0.  0.
         13    1    3    3    0    0 -0.97042334821E+01  0.15314213809E+02 -0.77908967818E+03  0.77930059922E+03  0.00000000000E+00 0.  1.
        -13    1    3    3    0    0 -0.13419411551E+02 -0.17873835312E+02 -0.46111566389E+02  0.51242864381E+02  0.00000000000E+00 0. -1.
         22    1    1    2    0    0  0.23123645033E+02  0.25596215027E+01 -0.28860719330E+02  0.37070146238E+02  0.00000000000E+00 0. -1.
<mgrwt>
<rscale>  0 0.66327458E+02</rscale>
<asrwt>0</asrwt>
<pdfrwt beam="1">  1        2 0.13243659E+00 0.94049726E+02</pdfrwt>
<pdfrwt beam="2">  1       -2 0.10424343E-02 0.94049726E+02</pdfrwt>
<totfact> 0.58008560E+04</totfact>
</mgrwt>
</event>
<event>
 6    1  0.1535970E-002  0.9098733E+02  0.7546771E-02  0.1426740E+00
         -2   -1    0    0    0  501 -0.00000000000E+00  0.00000000000E+00  0.57661592248E+02  0.57661592248E+02  0.00000000000E+00 0. -1.
          2   -1    0    0  501    0  0.00000000000E+00 -0.00000000000E+00 -0.46026783703E+02  0.46026783703E+02  0.00000000000E+00 0.  1.
         23    2    1    2    0    0 -0.55030171574E+01  0.94944700321E+01  0.55880822301E+01  0.91158768689E+02  0.90323121552E+02 0.  0.
         11    1    3    3    0    0  0.35051938114E+02  0.20495253800E+02 -0.16330743779E+02  0.43765134368E+02  0.00000000000E+00 0.  1.
        -11    1    3    3    0    0 -0.40554955271E+02 -0.11000783768E+02  0.21918826009E+02  0.47393634321E+02  0.00000000000E+00 0. -1.
         22    1    1    2    0    0  0.55030171574E+01 -0.94944700321E+01  0.60467263149E+01  0.12529607262E+02  0.00000000000E+00 0. -1.
<mgrwt>
<rscale>  0 0.53619987E+02</rscale>
<asrwt>0</asrwt>
<pdfrwt beam="1">  1        2 0.70810437E-02 0.90987331E+02</pdfrwt>
<pdfrwt beam="2">  1       -2 0.88710142E-02 0.90987331E+02</pdfrwt>
<totfact> 0.68083914E+04</totfact>
</mgrwt>
</event>
<event>
 6    1  0.1535970E-002  0.9054048E+02  0.7546771E-02  0.1429464E+00
         -2   -1    0    0    0  501 -0.00000000000E+00  0.00000000000E+00  0.44688142667E+02  0.44688142667E+02  0.00000000000E+00 0.  1.
          2   -1    0    0  501    0  0.00000000000E+00 -0.00000000000E+00 -0.78786649019E+02  0.78786649019E+02  0.00000000000E+00 0. -1.
         23    2    1    2    0    0  0.99073301961E+01  0.40032334076E+01 -0.50671690894E+02  0.10375547336E+03  0.89907713379E+02 0.  0.
         13    1    3    3    0    0 -0.86192650532E+01  0.30200642629E+02 -0.62185002937E+02  0.69665953920E+02  0.00000000000E+00 0. -1.
        -13    1    3    3    0    0  0.18526595249E+02 -0.26197409222E+02  0.11513312044E+02  0.34089519441E+02  0.00000000000E+00 0.  1.
         22    1    1    2    0    0 -0.99073301961E+01 -0.40032334076E+01  0.16573184542E+02  0.19719318324E+02  0.00000000000E+00 0. -1.
<mgrwt>
<rscale>  0 0.53067832E+02</rscale>
<asrwt>0</asrwt>
<pdfrwt beam="1">  1        2 0.12121023E-01 0.90540477E+02</pdfrwt>
<pdfrwt beam="2">  1       -2 0.68750990E-02 0.90540477E+02</pdfrwt>
<totfact> 0.52066589E+04</totfact>
</mgrwt>
</event>
<event>
 6    1  0.1535970E-002  0.9267877E+02  0.7546771E-02  0.1410888E+00
          2   -1    0    0  501    0  0.00000000000E+00  0.00000000000E+00  0.52080366816E+03  0.52080366816E+03  0.00000000000E+00 0.  1.
         -2   -1    0    0    0  501 -0.00000000000E+00 -0.00000000000E+00 -0.83220797703E+01  0.83220797703E+01  0.00000000000E+00 0. -1.
         23    2    1    2    0    0 -0.68501766668E+01 -0.11349938230E+02  0.50591081604E+03  0.51432976647E+03  0.91725726333E+02 0.  0.
         11    1    3    3    0    0  0.16266532334E+02 -0.27022712565E+02  0.62191974922E+02  0.69732838844E+02  0.00000000000E+00 0. -1.
        -11    1    3    3    0    0 -0.23116709001E+02  0.15672774335E+02  0.44371884112E+03  0.44459692762E+03  0.00000000000E+00 0.  1.
         22    1    1    2    0    0  0.68501766668E+01  0.11349938230E+02  0.65707723525E+01  0.14795981464E+02  0.00000000000E+00 0. -1.
<mgrwt>
<rscale>  0 0.56996199E+02</rscale>
<asrwt>0</asrwt>
<pdfrwt beam="1">  1        2 0.80123616E-01 0.92678773E+02</pdfrwt>
<pdfrwt beam="2">  1       -2 0.12803204E-02 0.92678773E+02</pdfrwt>
<totfact> 0.77453770E+04</totfact>
</mgrwt>
</event>
<event>
 6    1  0.1535970E-002  0.1009316E+03  0.7546771E-02  0.1323437E+00
          2   -1    0    0  501    0  0.00000000000E+00  0.00000000000E+00  0.25554589870E+03  0.25554589870E+03  0.00000000000E+00 0. -1.
         -2   -1    0    0    0  501 -0.00000000000E+00 -0.00000000000E+00 -0.21007246822E+02  0.21007246822E+02  0.00000000000E+00 0.  1.
         23    2    1    2    0    0 -0.43510548118E+02 -0.65253244939E+01  0.14350352209E+03  0.17544358854E+03  0.90837460614E+02 0.  0.
         11    1    3    3    0    0  0.99779777839E+00  0.36176232313E+02  0.74927950354E+02  0.83210054255E+02  0.00000000000E+00 0.  1.
        -11    1    3    3    0    0 -0.44508345896E+02 -0.42701556807E+02  0.68575571735E+02  0.92233534286E+02  0.00000000000E+00 0. -1.
         22    1    1    2    0    0  0.43510548118E+02  0.65253244939E+01  0.91035129794E+02  0.10110955699E+03  0.00000000000E+00 0. -1.
<mgrwt>
<rscale>  0 0.82011834E+02</rscale>
<asrwt>0</asrwt>
<pdfrwt beam="1">  1        2 0.39314751E-01 0.10093162E+03</pdfrwt>
<pdfrwt beam="2">  1       -2 0.32318843E-02 0.10093162E+03</pdfrwt>
<totfact> 0.43801576E+04</totfact>
</mgrwt>
</event>
<event>
 6    1  0.1535970E-002  0.1153191E+03  0.7546771E-02  0.1277353E+00
          2   -1    0    0  501    0  0.00000000000E+00  0.00000000000E+00  0.42130034194E+02  0.42130034194E+02  0.00000000000E+00 0. -1.
         -2   -1    0    0    0  501 -0.00000000000E+00 -0.00000000000E+00 -0.60388539496E+03  0.60388539496E+03  0.00000000000E+00 0.  1.
         23    2    1    2    0    0  0.61933126859E+02  0.30353601716E+02 -0.56531025385E+03  0.57695248248E+03  0.92419860342E+02 0.  0.
         11    1    3    3    0    0  0.34442975235E+02 -0.15436572995E+02 -0.42737374318E+03  0.42903720432E+03  0.00000000000E+00 0.  1.
        -11    1    3    3    0    0  0.27490151624E+02  0.45790174711E+02 -0.13793651067E+03  0.14791527816E+03  0.00000000000E+00 0. -1.
         22    1    1    2    0    0 -0.61933126859E+02 -0.30353601716E+02  0.35548930815E+01  0.69062946682E+02  0.00000000000E+00 0. -1.
<mgrwt>
<rscale>  0 0.10141287E+03</rscale>
<asrwt>0</asrwt>
<pdfrwt beam="1">  1        2 0.64815438E-02 0.11531905E+03</pdfrwt>
<pdfrwt beam="2">  1       -2 0.92905444E-01 0.11531905E+03</pdfrwt>
<totfact> 0.10936808E+03</totfact>
</mgrwt>
</event>
<event>
 6    1  0.1535970E-002  0.9211019E+02  0.7546771E-02  0.1369568E+00
          1   -1    0    0  501    0  0.00000000000E+00  0.00000000000E+00  0.33240739344E+04  0.33240739344E+04  0.00000000000E+00 0. -1.
         -1   -1    0    0    0  501 -0.00000000000E+00 -0.00000000000E+00 -0.24441620130E+01  0.24441620130E+01  0.00000000000E+00 0.  1.
         23    2    1    2    0    0 -0.26206537045E+02  0.11317174018E+01  0.32271593567E+04  0.32284736024E+04  0.88296231093E+02 0.  0.
         13    1    3    3    0    0 -0.36208581156E+02  0.29572452056E+02  0.98234469850E+03  0.98345650537E+03  0.00000000000E+00 0. -1.
        -13    1    3    3    0    0  0.10002044111E+02 -0.28440734654E+02  0.22448146582E+04  0.22450170970E+04  0.00000000000E+00 0.  1.
         22    1    1    2    0    0  0.26206537045E+02 -0.11317174018E+01  0.94470415693E+02  0.98044494029E+02  0.00000000000E+00 0.  1.
<mgrwt>
<rscale>  0 0.67287490E+02</rscale>
<asrwt>0</asrwt>
<pdfrwt beam="1">  1        1 0.51139237E+00 0.92110194E+02</pdfrwt>
<pdfrwt beam="2">  1       -1 0.37602758E-03 0.92110194E+02</pdfrwt>
<totfact> 0.32648506E+03</totfact>
</mgrwt>
</event>
<event>
 6    1  0.1535970E-002  0.1120151E+03  0.7546771E-02  0.1380067E+00
          2   -1    0    0  501    0  0.00000000000E+00  0.00000000000E+00  0.21845590326E+02  0.21845590326E+02  0.00000000000E+00 0.  1.
         -2   -1    0    0    0  501 -0.00000000000E+00 -0.00000000000E+00 -0.17751253398E+03  0.17751253398E+03  0.00000000000E+00 0. -1.
         23    2    1    2    0    0  0.93955832430E+01 -0.78965225736E+01 -0.13620732532E+03  0.17635141226E+03  0.11134070722E+03 0.  0.
         11    1    3    3    0    0  0.27105824409E+02  0.25583487453E+02 -0.24701212004E+01  0.37354277478E+02  0.00000000000E+00 0.  1.
        -11    1    3    3    0    0 -0.17710241166E+02 -0.33480010027E+02 -0.13373720412E+03  0.13899713479E+03  0.00000000000E+00 0. -1.
         22    1    1    2    0    0 -0.93955832430E+01  0.78965225736E+01 -0.19459618340E+02  0.23006712046E+02  0.00000000000E+00 0. -1.
<mgrwt>
<rscale>  0 0.64446173E+02</rscale>
<asrwt>0</asrwt>
<pdfrwt beam="1">  1        2 0.33608601E-02 0.11201511E+03</pdfrwt>
<pdfrwt beam="2">  1       -2 0.27309620E-01 0.11201511E+03</pdfrwt>
<totfact> 0.29197064E+04</totfact>
</mgrwt>
</event>
<event>
 6    1  0.1535970E-002  0.9453083E+02  0.7546771E-02  0.1381829E+00
         -2   -1    0    0    0  501 -0.00000000000E+00  0.00000000000E+00  0.57050163304E+01  0.57050163304E+01  0.00000000000E+00 0.  1.
          2   -1    0    0  501    0  0.00000000000E+00 -0.00000000000E+00 -0.57711593020E+03  0.57711593020E+03  0.00000000000E+00 0. -1.
         23    2    1    2    0    0  0.19312300857E+02  0.45580650070E+01 -0.45288855245E+03  0.46264902353E+03  0.92424764606E+02 0.  0.
         13    1    3    3    0    0  0.29900716761E+02 -0.11800836383E+02 -0.50979996482E+02  0.60268338649E+02  0.00000000000E+00 0.  1.
        -13    1    3    3    0    0 -0.10588415904E+02  0.16358901390E+02 -0.40190855597E+03  0.40238068488E+03  0.00000000000E+00 0. -1.
         22    1    1    2    0    0 -0.19312300857E+02 -0.45580650070E+01 -0.11852236142E+03  0.12017192300E+03  0.00000000000E+00 0. -1.
<mgrwt>
<rscale>  0 0.63985479E+02</rscale>
<asrwt>0</asrwt>
<pdfrwt beam="1">  1        2 0.88787067E-01 0.94530831E+02</pdfrwt>
<pdfrwt beam="2">  1       -2 0.87769481E-03 0.94530831E+02</pdfrwt>
<totfact> 0.11851179E+05</totfact>
</mgrwt>
</event>
<event>
 6    1  0.1535970E-002  0.9719380E+02  0.7546771E-02  0.1349183E+00
         -2   -1    0    0    0  501 -0.00000000000E+00  0.00000000000E+00  0.13103556635E+03  0.13103556635E+03  0.00000000000E+00 0.  1.
          2   -1    0    0  501    0  0.00000000000E+00 -0.00000000000E+00 -0.40905081772E+02  0.40905081772E+02  0.00000000000E+00 0. -1.
         23    2    1    2    0    0 -0.29849050856E+02 -0.99370300928E+01  0.26159695257E+02  0.10065269479E+03  0.91961540375E+02 0.  0.
         13    1    3    3    0    0 -0.50814903556E+02 -0.28689418507E+02 -0.51284608372E+01  0.58579333116E+02  0.00000000000E+00 0. -1.
        -13    1    3    3    0    0  0.20965852700E+02  0.18752388414E+02  0.31288156094E+02  0.42073361673E+02  0.00000000000E+00 0.  1.
         22    1    1    2    0    0  0.29849050856E+02  0.99370300928E+01  0.63970789323E+02  0.71287953335E+02  0.00000000000E+00 0.  1.
<mgrwt>
<rscale>  0 0.73310714E+02</rscale>
<asrwt>0</asrwt>
<pdfrwt beam="1">  1        2 0.62930895E-02 0.97193803E+02</pdfrwt>
<pdfrwt beam="2">  1       -2 0.20159318E-01 0.97193803E+02</pdfrwt>
<totfact> 0.21381193E+04</totfact>
</mgrwt>
</event>
<event>
 6    1  0.1535970E-002  0.9728559E+02  0.7546771E-02  0.1349545E+00
         -1   -1    0    0    0  501 -0.00000000000E+00  0.00000000000E+00  0.18380344438E+02  0.18380344438E+02  0.00000000000E+00 0.  1.
          1   -1    0    0  501    0  0.00000000000E+00 -0.00000000000E+00 -0.22855618651E+03  0.22855618651E+03  0.00000000000E+00 0. -1.
         23    2    1    2    0    0  0.12859076790E+02 -0.28402307121E+02 -0.14398478899E+03  0.17377026541E+03  0.92154428934E+02 0.  0.
         11    1    3    3    0    0 -0.28928969532E+02 -0.43993907670E+02 -0.80115760461E+02  0.95869099633E+02  0.00000000000E+00 0. -1.
        -11    1    3    3    0    0  0.41788046321E+02  0.15591600549E+02 -0.63869028533E+02  0.77901165773E+02  0.00000000000E+00 0.  1.
         22    1    1    2    0    0 -0.12859076790E+02  0.28402307121E+02 -0.66191053082E+02  0.73166265545E+02  0.00000000000E+00 0. -1.
<mgrwt>
<rscale>  0 0.73197675E+02</rscale>
<asrwt>0</asrwt>
<pdfrwt beam="1">  1        1 0.35162491E-01 0.97285588E+02</pdfrwt>
<pdfrwt beam="2">  1       -1 0.28277453E-02 0.97285588E+02</pdfrwt>
<totfact> 0.44883749E+04</totfact>
</mgrwt>
</event>
<event>
 6    1  0.1535970E-002  0.9176052E+02  0.7546771E-02  0.1409012E+00
         -3   -1    0    0    0  501 -0.00000000000E+00  0.00000000000E+00  0.20861047883E+02  0.20861047883E+02  0.00000000000E+00 0.  1.
          3   -1    0    0  501    0  0.00000000000E+00 -0.00000000000E+00 -0.15038086290E+03  0.15038086290E+03  0.00000000000E+00 0. -1.
         23    2    1    2    0    0 -0.16807024951E+01  0.13963973934E+02 -0.12741918948E+03  0.15702115284E+03  0.90676211122E+02 0.  0.
         13    1    3    3    0    0 -0.97175709026E+01  0.26693440945E+02 -0.13651039074E+03  0.13943477957E+03  0.00000000000E+00 0. -1.
        -13    1    3    3    0    0  0.80368684075E+01 -0.12729467010E+02  0.90912012675E+01  0.17586373266E+02  0.00000000000E+00 0.  1.
         22    1    1    2    0    0  0.16807024951E+01 -0.13963973934E+02 -0.21006255445E+01  0.14220757947E+02  0.00000000000E+00 0.  1.
<mgrwt>
<rscale>  0 0.57414942E+02</rscale>
<asrwt>0</asrwt>
<pdfrwt beam="1">  1        3 0.23135518E-01 0.91760518E+02</pdfrwt>
<pdfrwt beam="2">  1       -3 0.32093920E-02 0.91760518E+02</pdfrwt>
<totfact> 0.16290971E+04</totfact>
</mgrwt>
</event>
<event>
 6    1  0.1535970E-002  0.8362738E+02  0.7546771E-02  0.1409412E+00
         -2   -1    0    0    0  501 -0.00000000000E+00  0.00000000000E+00  0.44779358410E+02  0.44779358410E+02  0.00000000000E+00 0.  1.
          2   -1    0    0  501    0  0.00000000000E+00 -0.00000000000E+00 -0.75996927489E+02  0.75996927489E+02  0.00000000000E+00 0. -1.
         23    2    1    2    0    0 -0.17316729196E+02 -0.64085823630E+01 -0.47484630761E+02  0.96168231654E+02  0.81563469660E+02 0.  0.
         13    1    3    3    0    0 -0.20006184955E+02  0.11226399273E+02  0.17452881995E+02  0.28825033686E+02  0.00000000000E+00 0.  1.
        -13    1    3    3    0    0  0.26894557582E+01 -0.17634981636E+02 -0.64937512756E+02  0.67343197968E+02  0.00000000000E+00 0. -1.
         22    1    1    2    0    0  0.17316729196E+02  0.64085823630E+01  0.16267061682E+02  0.24608054245E+02  0.00000000000E+00 0.  1.
<mgrwt>
<rscale>  0 0.57325250E+02</rscale>
<asrwt>0</asrwt>
<pdfrwt beam="1">  1        2 0.11691835E-01 0.83627380E+02</pdfrwt>
<pdfrwt beam="2">  1       -2 0.68891321E-02 0.83627380E+02</pdfrwt>
<totfact> 0.53561625E+04</totfact>
</mgrwt>
</event>
<event>
 6    1  0.1535970E-002  0.9210160E+02  0.7546771E-02  0.1409558E+00
         -4   -1    0    0    0  501 -0.00000000000E+00  0.00000000000E+00  0.11681399540E+02  0.11681399540E+02  0.00000000000E+00 0.  1.
          4   -1    0    0  501    0  0.00000000000E+00 -0.00000000000E+00 -0.25541778195E+03  0.25541778195E+03  0.00000000000E+00 0. -1.
         23    2    1    2    0    0 -0.12685945409E+02  0.54087462631E+01 -0.22943872680E+03  0.24723437082E+03  0.91063258292E+02 0.  0.
         11    1    3    3    0    0 -0.50254962896E+01  0.33999039722E+02 -0.20766442249E+03  0.21048919850E+03  0.00000000000E+00 0. -1.
        -11    1    3    3    0    0 -0.76604491198E+01 -0.28590293459E+02 -0.21774304310E+02  0.36745172322E+02  0.00000000000E+00 0.  1.
         22    1    1    2    0    0  0.12685945409E+02 -0.54087462631E+01 -0.14297655607E+02  0.19864810669E+02  0.00000000000E+00 0.  1.
<mgrwt>
<rscale>  0 0.57292556E+02</rscale>
<asrwt>0</asrwt>
<pdfrwt beam="1">  1        4 0.39295040E-01 0.92101600E+02</pdfrwt>
<pdfrwt beam="2">  1       -4 0.17971386E-02 0.92101600E+02</pdfrwt>
<totfact> 0.11026959E+04</totfact>
</mgrwt>
</event>
<event>
 6    1  0.1535970E-002  0.9433245E+02  0.7546771E-02  0.1378986E+00
         -2   -1    0    0    0  501 -0.00000000000E+00  0.00000000000E+00  0.12721231166E+02  0.12721231166E+02  0.00000000000E+00 0.  1.
          2   -1    0    0  501    0  0.00000000000E+00 -0.00000000000E+00 -0.32403044676E+03  0.32403044676E+03  0.00000000000E+00 0. -1.
         23    2    1    2    0    0 -0.19770579135E+02 -0.68254127876E+01 -0.29644555726E+03  0.31109255873E+03  0.91984507489E+02 0.  0.
         11    1    3    3    0    0 -0.43664120392E+02  0.24028286117E+02 -0.21608349304E+03  0.22175660059E+03  0.00000000000E+00 0. -1.
        -11    1    3    3    0    0  0.23893541257E+02 -0.30853698904E+02 -0.80362064222E+02  0.89335958135E+02  0.00000000000E+00 0.  1.
         22    1    1    2    0    0  0.19770579135E+02  0.68254127876E+01 -0.14863658339E+02  0.25659119202E+02  0.00000000000E+00 0.  1.
<mgrwt>
<rscale>  0 0.64731161E+02</rscale>
<asrwt>0</asrwt>
<pdfrwt beam="1">  1        2 0.49850835E-01 0.94332453E+02</pdfrwt>
<pdfrwt beam="2">  1       -2 0.19571126E-02 0.94332453E+02</pdfrwt>
<totfact> 0.70014000E+04</totfact>
</mgrwt>
</event>
<event>
 6    1  0.1535970E-002  0.9165820E+02  0.7546771E-02  0.1420401E+00
          1   -1    0    0  501    0  0.00000000000E+00  0.00000000000E+00  0.20176082256E+03  0.20176082256E+03  0.00000000000E+00 0. -1.
         -1   -1    0    0    0  501 -0.00000000000E+00 -0.00000000000E+00 -0.15857334110E+02  0.15857334110E+02  0.00000000000E+00 0.  1.
         23    2    1    2    0    0  0.44486695632E+01  0.10959699306E+02  0.18409750799E+03  0.20565290552E+03  0.90891800669E+02 0.  0.
         11    1    3    3    0    0 -0.97728616388E+01 -0.16125029006E+02  0.17155829887E+03  0.17259135348E+03  0.00000000000E+00 0. -1.
        -11    1    3    3    0    0  0.14221531202E+02  0.27084728312E+02  0.12539209118E+02  0.33061552032E+02  0.00000000000E+00 0.  1.
         22    1    1    2    0    0 -0.44486695632E+01 -0.10959699306E+02  0.18059804596E+01  0.11965251155E+02  0.00000000000E+00 0. -1.
<mgrwt>
<rscale>  0 0.54936109E+02</rscale>
<asrwt>0</asrwt>
<pdfrwt beam="1">  1        1 0.31040125E-01 0.91658197E+02</pdfrwt>
<pdfrwt beam="2">  1       -1 0.24395900E-02 0.91658197E+02</pdfrwt>
<totfact> 0.64142250E+04</totfact>
</mgrwt>
</event>
<event>
 6    1  0.1535970E-002  0.1038285E+03  0.7546771E-02  0.1316366E+00
         -1   -1    0    0    0  501 -0.00000000000E+00  0.00000000000E+00  0.52435668788E+01  0.52435668788E+01  0.00000000000E+00 0.  1.
          1   -1    0    0  501    0  0.00000000000E+00 -0.00000000000E+00 -0.12430293975E+04  0.12430293975E+04  0.00000000000E+00 0. -1.
         23    2    1    2    0    0  0.20744399256E+02  0.40899858708E+02 -0.10432833680E+04  0.10484371905E+04  0.93151639833E+02 0.  0.
         13    1    3    3    0    0  0.54083917088E+02  0.44828288460E+02 -0.71312347660E+03  0.71657500543E+03  0.00000000000E+00 0.  1.
        -13    1    3    3    0    0 -0.33339517832E+02 -0.39284297515E+01 -0.33015989135E+03  0.33186218505E+03  0.00000000000E+00 0. -1.
         22    1    1    2    0    0 -0.20744399256E+02 -0.40899858708E+02 -0.19450246262E+03  0.19983577384E+03  0.00000000000E+00 0. -1.
<mgrwt>
<rscale>  0 0.84643897E+02</rscale>
<asrwt>0</asrwt>
<pdfrwt beam="1">  1        1 0.19123522E+00 0.10382850E+03</pdfrwt>
<pdfrwt beam="2">  1       -1 0.80670289E-03 0.10382850E+03</pdfrwt>
<totfact> 0.25610657E+04</totfact>
</mgrwt>
</event>
<event>
 6    1  0.1535970E-002  0.1123370E+03  0.7546771E-02  0.1292482E+00
         -2   -1    0    0    0  501 -0.00000000000E+00  0.00000000000E+00  0.77393040661E+02  0.77393040661E+02  0.00000000000E+00 0.  1.
          2   -1    0    0  501    0  0.00000000000E+00 -0.00000000000E+00 -0.91625133814E+02  0.91625133814E+02  0.00000000000E+00 0. -1.
         23    2    1    2    0    0  0.56059640189E+02 -0.10907534365E+01 -0.10388767863E+02  0.11281635822E+03  0.97343367431E+02 0.  0.
         11    1    3    3    0    0  0.17215003026E+02 -0.26091176539E+02  0.35776231872E+02  0.47508363362E+02  0.00000000000E+00 0.  1.
        -11    1    3    3    0    0  0.38844637163E+02  0.25000423102E+02 -0.46164999736E+02  0.65307994857E+02  0.00000000000E+00 0. -1.
         22    1    1    2    0    0 -0.56059640189E+02  0.10907534365E+01 -0.38433252891E+01  0.56201816256E+02  0.00000000000E+00 0.  1.
<mgrwt>
<rscale>  0 0.94422452E+02</rscale>
<asrwt>0</asrwt>
<pdfrwt beam="1">  1        2 0.14096174E-01 0.11233701E+03</pdfrwt>
<pdfrwt beam="2">  1       -2 0.11906622E-01 0.11233701E+03</pdfrwt>
<totfact> 0.19117134E+04</totfact>
</mgrwt>
</event>
<event>
 6    1  0.1535970E-002  0.9737899E+02  0.7546771E-02  0.1351068E+00
          2   -1    0    0  501    0  0.00000000000E+00  0.00000000000E+00  0.14565930824E+03  0.14565930824E+03  0.00000000000E+00 0. -1.
         -2   -1    0    0    0  501 -0.00000000000E+00 -0.00000000000E+00 -0.61189257496E+02  0.61189257496E+02  0.00000000000E+00 0.  1.
         23    2    1    2    0    0  0.17177676343E+02 -0.24949359271E+02  0.12360782986E+03  0.15735807324E+03  0.92547957928E+02 0.  0.
         11    1    3    3    0    0  0.28111272980E+02 -0.29106458552E+02  0.81105473161E+01  0.41269971841E+02  0.00000000000E+00 0.  1.
        -11    1    3    3    0    0 -0.10933596637E+02  0.41570992806E+01  0.11549728255E+03  0.11608810140E+03  0.00000000000E+00 0. -1.
         22    1    1    2    0    0 -0.17177676343E+02  0.24949359271E+02 -0.39137779124E+02  0.49490492495E+02  0.00000000000E+00 0.  1.
<mgrwt>
<rscale>  0 0.72723916E+02</rscale>
<asrwt>0</asrwt>
<pdfrwt beam="1">  1        2 0.22409124E-01 0.97378990E+02</pdfrwt>
<pdfrwt beam="2">  1       -2 0.94137320E-02 0.97378990E+02</pdfrwt>
<totfact> 0.16066352E+04</totfact>
</mgrwt>
</event>
<event>
 6    1  0.1535970E-002  0.9128408E+02  0.7546771E-02  0.1420685E+00
         -4   -1    0    0    0  501 -0.00000000000E+00  0.00000000000E+00  0.13365517699E+03  0.13365517699E+03  0.00000000000E+00 0.  1.
          4   -1    0    0  501    0  0.00000000000E+00 -0.00000000000E+00 -0.21349757171E+02  0.21349757171E+02  0.00000000000E+00 0. -1.
         23    2    1    2    0    0 -0.10733189163E+02  0.51899297635E+01  0.83036953802E+02  0.12340145613E+03  0.90502193113E+02 0.  0.
         13    1    3    3    0    0  0.12132961686E+02  0.12466160100E+02  0.95006448609E+02  0.96585916076E+02  0.00000000000E+00 0.  1.
        -13    1    3    3    0    0 -0.22866150848E+02 -0.72762303369E+01 -0.11969494807E+02  0.26815540056E+02  0.00000000000E+00 0. -1.
         22    1    1    2    0    0  0.10733189163E+02 -0.51899297635E+01  0.29268466016E+02  0.31603478029E+02  0.00000000000E+00 0.  1.
<mgrwt>
<rscale>  0 0.54876269E+02</rscale>
<asrwt>0</asrwt>
<pdfrwt beam="1">  1        4 0.32845781E-02 0.91284082E+02</pdfrwt>
<pdfrwt beam="2">  1       -4 0.20562334E-01 0.91284082E+02</pdfrwt>
<totfact> 0.14520117E+04</totfact>
</mgrwt>
</event>
<event>
 6    1  0.1535970E-002  0.9887784E+02  0.7546771E-02  0.1331554E+00
          2   -1    0    0  501    0  0.00000000000E+00  0.00000000000E+00  0.82514272635E+03  0.82514272635E+03  0.00000000000E+00 0. -1.
         -2   -1    0    0    0  501 -0.00000000000E+00 -0.00000000000E+00 -0.60181747473E+01  0.60181747473E+01  0.00000000000E+00 0.  1.
         23    2    1    2    0    0  0.34218072695E+02 -0.21751237479E+02  0.63254838019E+03  0.64022986494E+03  0.90182225762E+02 0.  0.
         11    1    3    3    0    0  0.50812716395E+01 -0.53698651579E+02  0.40867717550E+03  0.41222129770E+03  0.00000000000E+00 0. -1.
        -11    1    3    3    0    0  0.29136801055E+02  0.31947414100E+02  0.22387120469E+03  0.22800856724E+03  0.00000000000E+00 0.  1.
         22    1    1    2    0    0 -0.34218072695E+02  0.21751237479E+02  0.18657617141E+03  0.19093103616E+03  0.00000000000E+00 0.  1.
<mgrwt>
<rscale>  0 0.79124633E+02</rscale>
<asrwt>0</asrwt>
<pdfrwt beam="1">  1        2 0.12694495E+00 0.98877837E+02</pdfrwt>
<pdfrwt beam="2">  1       -2 0.92587369E-03 0.98877837E+02</pdfrwt>
<totfact> 0.72791571E+04</totfact>
</mgrwt>
</event>
<event>
 6    1  0.1535970E-002  0.9805812E+02  0.7546771E-02  0.1338003E+00
         -2   -1    0    0    0  501 -0.00000000000E+00  0.00000000000E+00  0.85763249628E+01  0.85763249628E+01  0.00000000000E+00 0.  1.
          2   -1    0    0  501    0  0.00000000000E+00 -0.00000000000E+00 -0.84538314897E+03  0.84538314897E+03  0.00000000000E+00 0. -1.
         23    2    1    2    0    0  0.25706137874E+02  0.26810793712E+02 -0.77966139632E+03  0.78580359312E+03  0.90751142493E+02 0.  0.
         13    1    3    3    0    0  0.26014695939E+02  0.25211511218E+02 -0.10379752519E+03  0.10993775938E+03  0.00000000000E+00 0.  1.
        -13    1    3    3    0    0 -0.30855806421E+00  0.15992824935E+01 -0.67586387113E+03  0.67586583374E+03  0.00000000000E+00 0. -1.
         22    1    1    2    0    0 -0.25706137874E+02 -0.26810793712E+02 -0.57145427685E+02  0.68155880811E+02  0.00000000000E+00 0. -1.
<mgrwt>
<rscale>  0 0.76927702E+02</rscale>
<asrwt>0</asrwt>
<pdfrwt beam="1">  1        2 0.13005893E+00 0.98058116E+02</pdfrwt>
<pdfrwt beam="2">  1       -2 0.13194348E-02 0.98058116E+02</pdfrwt>
<totfact> 0.42649524E+04</totfact>
</mgrwt>
</event>
<event>
 6    1  0.1535970E-002  0.1147453E+03  0.7546771E-02  0.1297472E+00
          2   -1    0    0  501    0  0.00000000000E+00  0.00000000000E+00  0.17549785186E+02  0.17549785186E+02  0.00000000000E+00 0.  1.
         -2   -1    0    0    0  501 -0.00000000000E+00 -0.00000000000E+00 -0.45448993145E+03  0.45448993145E+03  0.00000000000E+00 0. -1.
         23    2    1    2    0    0  0.23287502681E+02  0.41920157431E+02 -0.20254565937E+03  0.23279009205E+03  0.10424430654E+03 0.  0.
         11    1    3    3    0    0 -0.34689412256E+02 -0.51535932511E+01 -0.99711419567E+02  0.10569901626E+03  0.00000000000E+00 0. -1.
        -11    1    3    3    0    0  0.57976914937E+02  0.47073750682E+02 -0.10283423981E+03  0.12709107579E+03  0.00000000000E+00 0.  1.
         22    1    1    2    0    0 -0.23287502681E+02 -0.41920157431E+02 -0.23439448689E+03  0.23924962459E+03  0.00000000000E+00 0. -1.
<mgrwt>
<rscale>  0 0.92258816E+02</rscale>
<asrwt>0</asrwt>
<pdfrwt beam="1">  1        2 0.26999668E-02 0.11474530E+03</pdfrwt>
<pdfrwt beam="2">  1       -2 0.69921532E-01 0.11474530E+03</pdfrwt>
<totfact> 0.64192705E+03</totfact>
</mgrwt>
</event>
<event>
 6    1  0.1535970E-002  0.1450315E+03  0.7546771E-02  0.1237604E+00
          3   -1    0    0  501    0  0.00000000000E+00  0.00000000000E+00  0.56062049898E+03  0.56062049898E+03  0.00000000000E+00 0. -1.
         -3   -1    0    0    0  501 -0.00000000000E+00 -0.00000000000E+00 -0.22291120249E+02  0.22291120249E+02  0.00000000000E+00 0.  1.
         23    2    1    2    0    0 -0.75664848217E+02  0.70220245313E+01  0.30952573090E+03  0.34181913211E+03  0.12353000811E+03 0.  0.
         11    1    3    3    0    0 -0.41453115303E+02  0.39216019583E+01  0.30422430837E+03  0.30706053073E+03  0.00000000000E+00 0. -1.
        -11    1    3    3    0    0 -0.34211732914E+02  0.31004225730E+01  0.53014225327E+01  0.34758601381E+02  0.00000000000E+00 0.  1.
         22    1    1    2    0    0  0.75664848217E+02 -0.70220245313E+01  0.22880364783E+03  0.24109248711E+03  0.00000000000E+00 0. -1.
<mgrwt>
<rscale>  0 0.12339168E+03</rscale>
<asrwt>0</asrwt>
<pdfrwt beam="1">  1        3 0.86249297E-01 0.14503152E+03</pdfrwt>
<pdfrwt beam="2">  1       -3 0.34294035E-02 0.14503152E+03</pdfrwt>
<totfact> 0.12183907E+03</totfact>
</mgrwt>
</event>
<event>
 6    1  0.1535970E-002  0.9248546E+02  0.7546771E-02  0.1418678E+00
         -2   -1    0    0    0  501 -0.00000000000E+00  0.00000000000E+00  0.13598598445E+02  0.13598598445E+02  0.00000000000E+00 0.  1.
          2   -1    0    0  501    0  0.00000000000E+00 -0.00000000000E+00 -0.25054579297E+03  0.25054579297E+03  0.00000000000E+00 0. -1.
         23    2    1    2    0    0 -0.10580566800E+01  0.11775704339E+02 -0.23448853721E+03  0.25206831207E+03  0.91726621918E+02 0.  0.
         11    1    3    3    0    0  0.63360581425E+01  0.43287706656E+02 -0.58072666019E+02  0.72707673040E+02  0.00000000000E+00 0.  1.
        -11    1    3    3    0    0 -0.73941148225E+01 -0.31512002316E+02 -0.17641587119E+03  0.17936063903E+03  0.00000000000E+00 0. -1.
         22    1    1    2    0    0  0.10580566800E+01 -0.11775704339E+02 -0.24586573143E+01  0.12076079348E+02  0.00000000000E+00 0.  1.
<mgrwt>
<rscale>  0 0.55301679E+02</rscale>
<asrwt>0</asrwt>
<pdfrwt beam="1">  1        2 0.38545506E-01 0.92485458E+02</pdfrwt>
<pdfrwt beam="2">  1       -2 0.20920921E-02 0.92485458E+02</pdfrwt>
<totfact> 0.83042196E+04</totfact>
</mgrwt>
</event>
<event>
 6    1  0.1535970E-002  0.9592654E+02  0.7546771E-02  0.1405723E+00
          2   -1    0    0  501    0  0.00000000000E+00  0.00000000000E+00  0.88198449511E+03  0.88198449511E+03  0.00000000000E+00 0. -1.
         -2   -1    0    0    0  501 -0.00000000000E+00 -0.00000000000E+00 -0.39584348134E+01  0.39584348134E+01  0.00000000000E+00 0.  1.
         23    2    1    2    0    0  0.65095061794E+01  0.11208454768E+02  0.84557870030E+03  0.85100249060E+03  0.95046817343E+02 0.  0.
         11    1    3    3    0    0 -0.15498573195E+02  0.24954657443E+02  0.77888540739E+03  0.77943916924E+03  0.00000000000E+00 0. -1.
        -11    1    3    3    0    0  0.22008079375E+02 -0.13746202675E+02  0.66693292903E+02  0.71563321359E+02  0.00000000000E+00 0.  1.
         22    1    1    2    0    0 -0.65095061794E+01 -0.11208454768E+02  0.32447359998E+02  0.34940439319E+02  0.00000000000E+00 0.  1.
<mgrwt>
<rscale>  0 0.58159243E+02</rscale>
<asrwt>0</asrwt>
<pdfrwt beam="1">  1        2 0.13568977E+00 0.95926538E+02</pdfrwt>
<pdfrwt beam="2">  1       -2 0.60899067E-03 0.95926538E+02</pdfrwt>
<totfact> 0.12046628E+05</totfact>
</mgrwt>
</event>
<event>
 6    1  0.1535970E-002  0.9152467E+02  0.7546771E-02  0.1428630E+00
         -2   -1    0    0    0  501 -0.00000000000E+00  0.00000000000E+00  0.59391108809E+02  0.59391108809E+02  0.00000000000E+00 0.  1.
          2   -1    0    0  501    0  0.00000000000E+00 -0.00000000000E+00 -0.43904333677E+02  0.43904333677E+02  0.00000000000E+00 0. -1.
         23    2    1    2    0    0  0.10295503899E+02  0.19376563496E+01  0.15447406685E+02  0.92819113809E+02  0.90923119185E+02 0.  0.
         13    1    3    3    0    0 -0.21396433911E+02  0.12494295807E+02 -0.28405224154E+02  0.37693123657E+02  0.00000000000E+00 0. -1.
        -13    1    3    3    0    0  0.31691937810E+02 -0.10556639458E+02  0.43852630839E+02  0.55125990152E+02  0.00000000000E+00 0.  1.
         22    1    1    2    0    0 -0.10295503899E+02 -0.19376563496E+01  0.39368446855E-01  0.10476328677E+02  0.00000000000E+00 0. -1.
<mgrwt>
<rscale>  0 0.53235967E+02</rscale>
<asrwt>0</asrwt>
<pdfrwt beam="1">  1        2 0.67545129E-02 0.91524672E+02</pdfrwt>
<pdfrwt beam="2">  1       -2 0.91370937E-02 0.91524672E+02</pdfrwt>
<totfact> 0.69087559E+04</totfact>
</mgrwt>
</event>
<event>
 6    1  0.1535970E-002  0.9834268E+02  0.7546771E-02  0.1336426E+00
         -2   -1    0    0    0  501 -0.00000000000E+00  0.00000000000E+00  0.28534276199E+02  0.28534276199E+02  0.00000000000E+00 0.  1.
          2   -1    0    0  501    0  0.00000000000E+00 -0.00000000000E+00 -0.18202824237E+03  0.18202824237E+03  0.00000000000E+00 0. -1.
         23    2    1    2    0    0 -0.32740065822E+02 -0.18985423402E+02 -0.13847941239E+03  0.16984648933E+03  0.90768519153E+02 0.  0.
         13    1    3    3    0    0 -0.44424772648E+02  0.26234969002E+02 -0.70139949051E+02  0.87071502090E+02  0.00000000000E+00 0. -1.
        -13    1    3    3    0    0  0.11684706826E+02 -0.45220392404E+02 -0.68339463338E+02  0.82774987237E+02  0.00000000000E+00 0.  1.
         22    1    1    2    0    0  0.32740065822E+02  0.18985423402E+02 -0.15014553779E+02  0.40716029238E+02  0.00000000000E+00 0.  1.
<mgrwt>
<rscale>  0 0.77457411E+02</rscale>
<asrwt>0</asrwt>
<pdfrwt beam="1">  1        2 0.28004346E-01 0.98342678E+02</pdfrwt>
<pdfrwt beam="2">  1       -2 0.43898885E-02 0.98342678E+02</pdfrwt>
<totfact> 0.39940704E+04</totfact>
</mgrwt>
</event>
<event>
 6    1  0.1535970E-002  0.9218207E+02  0.7546771E-02  0.1393369E+00
         -2   -1    0    0    0  501 -0.00000000000E+00  0.00000000000E+00  0.10959000667E+02  0.10959000667E+02  0.00000000000E+00 0. -1.
          2   -1    0    0  501    0  0.00000000000E+00 -0.00000000000E+00 -0.18590673906E+04  0.18590673906E+04  0.00000000000E+00 0.  1.
         23    2    1    2    0    0 -0.10506678281E+02  0.14324576609E+02 -0.18498783949E+04  0.18521737528E+04  0.90454137134E+02 0.  0.
         11    1    3    3    0    0  0.31951888826E+01 -0.51673095997E+01 -0.75480208890E+01  0.96893209171E+01  0.00000000000E+00 0. -1.
        -11    1    3    3    0    0 -0.13701867164E+02  0.19491886209E+02 -0.18423303740E+04  0.18424844319E+04  0.00000000000E+00 0.  1.
         22    1    1    2    0    0  0.10506678281E+02 -0.14324576609E+02  0.17700049289E+01  0.17852638488E+02  0.00000000000E+00 0. -1.
<mgrwt>
<rscale>  0 0.61076507E+02</rscale>
<asrwt>0</asrwt>
<pdfrwt beam="1">  1        2 0.28601074E+00 0.92182074E+02</pdfrwt>
<pdfrwt beam="2">  1       -2 0.16859979E-02 0.92182074E+02</pdfrwt>
<totfact> 0.84952335E+03</totfact>
</mgrwt>
</event>
<event>
 6    1  0.1535970E-002  0.9254566E+02  0.7546771E-02  0.1373314E+00
         -2   -1    0    0    0  501 -0.00000000000E+00  0.00000000000E+00  0.47193314577E+01  0.47193314577E+01  0.00000000000E+00 0.  1.
          2   -1    0    0  501    0  0.00000000000E+00 -0.00000000000E+00 -0.84528927081E+03  0.84528927081E+03  0.00000000000E+00 0. -1.
         23    2    1    2    0    0  0.17614424088E+02  0.16754822095E+02 -0.76613658061E+03  0.77170587630E+03  0.89295617906E+02 0.  0.
         11    1    3    3    0    0 -0.87777898272E+01 -0.21681866323E+02 -0.55454433484E+03  0.55503745119E+03  0.00000000000E+00 0. -1.
        -11    1    3    3    0    0  0.26392213915E+02  0.38436688418E+02 -0.21159224577E+03  0.21666842512E+03  0.00000000000E+00 0.  1.
         22    1    1    2    0    0 -0.17614424088E+02 -0.16754822095E+02 -0.74433358744E+02  0.78302725963E+02  0.00000000000E+00 0. -1.
<mgrwt>
<rscale>  0 0.66254403E+02</rscale>
<asrwt>0</asrwt>
<pdfrwt beam="1">  1        2 0.13004444E+00 0.92545661E+02</pdfrwt>
<pdfrwt beam="2">  1       -2 0.72605137E-03 0.92545661E+02</pdfrwt>
<totfact> 0.98754958E+04</totfact>
</mgrwt>
</event>
<event>
 6    1  0.1535970E-002  0.9275069E+02  0.7546771E-02  0.1422175E+00
          2   -1    0    0  501    0  0.00000000000E+00  0.00000000000E+00  0.18784948366E+03  0.18784948366E+03  0.00000000000E+00 0. -1.
         -2   -1    0    0    0  501 -0.00000000000E+00 -0.00000000000E+00 -0.14473295634E+02  0.14473295634E+02  0.00000000000E+00 0.  1.
         23    2    1    2    0    0  0.87638846620E+01  0.68257508143E+01  0.14860044643E+03  0.17517072743E+03  0.92083084884E+02 0.  0.
         13    1    3    3    0    0  0.42116994761E+02  0.14995160442E+02  0.12691162985E+03  0.13455577980E+03  0.00000000000E+00 0. -1.
        -13    1    3    3    0    0 -0.33353110099E+02 -0.81694096277E+01  0.21688816571E+02  0.40614947633E+02  0.00000000000E+00 0.  1.
         22    1    1    2    0    0 -0.87638846620E+01 -0.68257508143E+01  0.24775741600E+02  0.27152051863E+02  0.00000000000E+00 0. -1.
<mgrwt>
<rscale>  0 0.54563315E+02</rscale>
<asrwt>0</asrwt>
<pdfrwt beam="1">  1        2 0.28899919E-01 0.92750693E+02</pdfrwt>
<pdfrwt beam="2">  1       -2 0.22266610E-02 0.92750693E+02</pdfrwt>
<totfact> 0.10310657E+05</totfact>
</mgrwt>
</event>
<event>
 6    1  0.1535970E-002  0.9508102E+02  0.7546771E-02  0.1352352E+00
          2   -1    0    0  501    0  0.00000000000E+00  0.00000000000E+00  0.28006711110E+03  0.28006711110E+03  0.00000000000E+00 0. -1.
         -2   -1    0    0    0  501 -0.00000000000E+00 -0.00000000000E+00 -0.14639040087E+02  0.14639040087E+02  0.00000000000E+00 0.  1.
         23    2    1    2    0    0  0.42334553399E+01 -0.31554577248E+02  0.18059124349E+03  0.20409213023E+03  0.89592337330E+02 0.  0.
         13    1    3    3    0    0  0.39983203347E+02 -0.25791589565E+02  0.51926539729E+02  0.70428887329E+02  0.00000000000E+00 0.  1.
        -13    1    3    3    0    0 -0.35749748007E+02 -0.57629876834E+01  0.12866470376E+03  0.13366324290E+03  0.00000000000E+00 0. -1.
         22    1    1    2    0    0 -0.42334553399E+01  0.31554577248E+02  0.84836827524E+02  0.90614020956E+02  0.00000000000E+00 0. -1.
<mgrwt>
<rscale>  0 0.72327661E+02</rscale>
<asrwt>0</asrwt>
<pdfrwt beam="1">  1        2 0.43087244E-01 0.95081020E+02</pdfrwt>
<pdfrwt beam="2">  1       -2 0.22521602E-02 0.95081020E+02</pdfrwt>
<totfact> 0.66697230E+04</totfact>
</mgrwt>
</event>
<event>
 6    1  0.1535970E-002  0.9082471E+02  0.7546771E-02  0.1430607E+00
         -4   -1    0    0    0  501 -0.00000000000E+00  0.00000000000E+00  0.27648165777E+02  0.27648165777E+02  0.00000000000E+00 0. -1.
          4   -1    0    0  501    0  0.00000000000E+00 -0.00000000000E+00 -0.94014977671E+02  0.94014977671E+02  0.00000000000E+00 0.  1.
         23    2    1    2    0    0  0.21300776971E+01 -0.10183233875E+02 -0.63660046628E+02  0.11091316385E+03  0.90226896741E+02 0.  0.
         13    1    3    3    0    0  0.39172045075E+02  0.65014913476E+01 -0.56735696960E+01  0.40111194175E+02  0.00000000000E+00 0. -1.
        -13    1    3    3    0    0 -0.37041967378E+02 -0.16684725223E+02 -0.57986476932E+02  0.70801969676E+02  0.00000000000E+00 0.  1.
         22    1    1    2    0    0 -0.21300776971E+01  0.10183233875E+02 -0.27067652661E+01  0.10749979598E+02  0.00000000000E+00 0.  1.
<mgrwt>
<rscale>  0 0.52838348E+02</rscale>
<asrwt>0</asrwt>
<pdfrwt beam="1">  1        4 0.14463843E-01 0.90824712E+02</pdfrwt>
<pdfrwt beam="2">  1       -4 0.42535640E-02 0.90824712E+02</pdfrwt>
<totfact> 0.17919842E+04</totfact>
</mgrwt>
</event>
<event>
 6    1  0.1535970E-002  0.9072583E+02  0.7546771E-02  0.1417195E+00
         -2   -1    0    0    0  501 -0.00000000000E+00  0.00000000000E+00  0.22631064141E+02  0.22631064141E+02  0.00000000000E+00 0. -1.
          2   -1    0    0  501    0  0.00000000000E+00 -0.00000000000E+00 -0.12068596023E+03  0.12068596023E+03  0.00000000000E+00 0.  1.
         23    2    1    2    0    0 -0.12292106268E+02 -0.36203663947E+01 -0.91764176328E+02  0.12904200828E+03  0.89816328770E+02 0.  0.
         13    1    3    3    0    0 -0.14933613246E+02  0.10397817257E+02  0.13599385252E+02  0.22717189252E+02  0.00000000000E+00 0. -1.
        -13    1    3    3    0    0  0.26415069780E+01 -0.14018183651E+02 -0.10536356158E+03  0.10632481902E+03  0.00000000000E+00 0.  1.
         22    1    1    2    0    0  0.12292106268E+02  0.36203663947E+01 -0.62907197569E+01  0.14275016091E+02  0.00000000000E+00 0. -1.
<mgrwt>
<rscale>  0 0.55618698E+02</rscale>
<asrwt>0</asrwt>
<pdfrwt beam="1">  1        2 0.18567071E-01 0.90725828E+02</pdfrwt>
<pdfrwt beam="2">  1       -2 0.34817021E-02 0.90725828E+02</pdfrwt>
<totfact> 0.87362461E+04</totfact>
</mgrwt>
</event>
<event>
 6    1  0.1535970E-002  0.9669538E+02  0.7546771E-02  0.1347242E+00
          2   -1    0    0  501    0  0.00000000000E+00  0.00000000000E+00  0.95223404202E+02  0.95223404202E+02  0.00000000000E+00 0. -1.
         -2   -1    0    0    0  501 -0.00000000000E+00 -0.00000000000E+00 -0.63023259942E+02  0.63023259942E+02  0.00000000000E+00 0.  1.
         23    2    1    2    0    0 -0.30449951291E+02  0.12792343925E+02  0.61081620831E+02  0.11437203269E+03  0.90879886997E+02 0.  0.
         13    1    3    3    0    0  0.10920120926E+02  0.40771525823E+02  0.45480890685E+02  0.62048994968E+02  0.00000000000E+00 0. -1.
        -13    1    3    3    0    0 -0.41370072218E+02 -0.27979181898E+02  0.15600730146E+02  0.52323037718E+02  0.00000000000E+00 0.  1.
         22    1    1    2    0    0  0.30449951291E+02 -0.12792343925E+02 -0.28881476570E+02  0.43874631459E+02  0.00000000000E+00 0.  1.
<mgrwt>
<rscale>  0 0.73922155E+02</rscale>
<asrwt>0</asrwt>
<pdfrwt beam="1">  1        2 0.14649755E-01 0.96695385E+02</pdfrwt>
<pdfrwt beam="2">  1       -2 0.96958861E-02 0.96695385E+02</pdfrwt>
<totfact> 0.24819347E+04</totfact>
</mgrwt>
</event>
<event>
 6    1  0.1535970E-002  0.9112541E+02  0.7546771E-02  0.1425186E+00
         -1   -1    0    0    0  501 -0.00000000000E+00  0.00000000000E+00  0.28821483866E+01  0.28821483866E+01  0.00000000000E+00 0.  1.
          1   -1    0    0  501    0  0.00000000000E+00 -0.00000000000E+00 -0.11147445416E+04  0.11147445416E+04  0.00000000000E+00 0. -1.
         23    2    1    2    0    0 -0.57923485830E+01  0.95696325217E+01 -0.10803772531E+04  0.10842134708E+04  0.90436232067E+02 0.  0.
         13    1    3    3    0    0  0.41088582088E+01  0.16671518891E+01 -0.10613232631E+04  0.10613325261E+04  0.00000000000E+00 0. -1.
        -13    1    3    3    0    0 -0.99012067918E+01  0.79024806325E+01 -0.19053989968E+02  0.22880944688E+02  0.00000000000E+00 0.  1.
         22    1    1    2    0    0  0.57923485830E+01 -0.95696325217E+01 -0.31485140109E+02  0.33413219186E+02  0.00000000000E+00 0. -1.
<mgrwt>
<rscale>  0 0.53938574E+02</rscale>
<asrwt>0</asrwt>
<pdfrwt beam="1">  1        1 0.17149952E+00 0.91125415E+02</pdfrwt>
<pdfrwt beam="2">  1       -1 0.44340651E-03 0.91125415E+02</pdfrwt>
<totfact> 0.71564552E+04</totfact>
</mgrwt>
</event>
<event>
 6    1  0.1535970E-002  0.9321359E+02  0.7546771E-02  0.1395244E+00
          4   -1    0    0  501    0  0.00000000000E+00  0.00000000000E+00  0.50857161726E+01  0.50857161726E+01  0.00000000000E+00 0. -1.
         -4   -1    0    0    0  501 -0.00000000000E+00 -0.00000000000E+00 -0.59362820696E+03  0.59362820696E+03  0.00000000000E+00 0.  1.
         23    2    1    2    0    0  0.16616311248E+02  0.13934922370E+01 -0.50082981586E+03  0.50943034703E+03  0.91710034309E+02 0.  0.
         13    1    3    3    0    0  0.44307289772E+02 -0.51673654479E+01 -0.12864881434E+03  0.13616297230E+03  0.00000000000E+00 0.  1.
        -13    1    3    3    0    0 -0.27690978524E+02  0.65608576849E+01 -0.37218100152E+03  0.37326737473E+03  0.00000000000E+00 0. -1.
         22    1    1    2    0    0 -0.16616311248E+02 -0.13934922370E+01 -0.87712674928E+02  0.89283576111E+02  0.00000000000E+00 0. -1.
<mgrwt>
<rscale>  0 0.60621064E+02</rscale>
<asrwt>0</asrwt>
<pdfrwt beam="1">  1        4 0.78241768E-03 0.93213593E+02</pdfrwt>
<pdfrwt beam="2">  1       -4 0.91327439E-01 0.93213593E+02</pdfrwt>
<totfact> 0.66402068E+03</totfact>
</mgrwt>
</event>
<event>
 6    1  0.1535970E-002  0.9389896E+02  0.7546771E-02  0.1377298E+00
          2   -1    0    0  501    0  0.00000000000E+00  0.00000000000E+00  0.34887627646E+03  0.34887627646E+03  0.00000000000E+00 0. -1.
         -2   -1    0    0    0  501 -0.00000000000E+00 -0.00000000000E+00 -0.99554573269E+01  0.99554573269E+01  0.00000000000E+00 0.  1.
         23    2    1    2    0    0  0.81917969272E+01 -0.20202536647E+02  0.29831383712E+03  0.31274296062E+03  0.91333268726E+02 0.  0.
         11    1    3    3    0    0  0.54784611707E+01  0.26730883980E+02  0.21784905711E+03  0.21955128189E+03  0.00000000000E+00 0. -1.
        -11    1    3    3    0    0  0.27133357565E+01 -0.46933420626E+02  0.80464780006E+02  0.93191678727E+02  0.00000000000E+00 0.  1.
         22    1    1    2    0    0 -0.81917969272E+01  0.20202536647E+02  0.40606982015E+02  0.46088773169E+02  0.00000000000E+00 0. -1.
<mgrwt>
<rscale>  0 0.65179438E+02</rscale>
<asrwt>0</asrwt>
<pdfrwt beam="1">  1        2 0.53673264E-01 0.93898956E+02</pdfrwt>
<pdfrwt beam="2">  1       -2 0.15316091E-02 0.93898956E+02</pdfrwt>
<totfact> 0.92007789E+04</totfact>
</mgrwt>
</event>
<event>
 6    1  0.1535970E-002  0.9933189E+02  0.7546771E-02  0.1331200E+00
         -2   -1    0    0    0  501 -0.00000000000E+00  0.00000000000E+00  0.56961031678E+01  0.56961031678E+01  0.00000000000E+00 0. -1.
          2   -1    0    0  501    0  0.00000000000E+00 -0.00000000000E+00 -0.10518229494E+04  0.10518229494E+04  0.00000000000E+00 0.  1.
         23    2    1    2    0    0 -0.25491978032E+02  0.31138587568E+02 -0.91447598789E+03  0.91985496473E+03  0.90815037979E+02 0.  0.
         13    1    3    3    0    0  0.27012718262E+02  0.12829881618E+02 -0.12932908381E+03  0.13274149589E+03  0.00000000000E+00 0. -1.
        -13    1    3    3    0    0 -0.52504696294E+02  0.18308705950E+02 -0.78514690408E+03  0.78711346884E+03  0.00000000000E+00 0.  1.
         22    1    1    2    0    0  0.25491978032E+02 -0.31138587568E+02 -0.13165085838E+03  0.13766408788E+03  0.00000000000E+00 0. -1.
<mgrwt>
<rscale>  0 0.79247860E+02</rscale>
<asrwt>0</asrwt>
<pdfrwt beam="1">  1        2 0.16181899E+00 0.99331887E+02</pdfrwt>
<pdfrwt beam="2">  1       -2 0.87632316E-03 0.99331887E+02</pdfrwt>
<totfact> 0.57265219E+04</totfact>
</mgrwt>
</event>
<event>
 6    1  0.1535970E-002  0.9301432E+02  0.7546771E-02  0.1421430E+00
         -1   -1    0    0    0  501 -0.00000000000E+00  0.00000000000E+00  0.15678486016E+02  0.15678486016E+02  0.00000000000E+00 0.  1.
          1   -1    0    0  501    0  0.00000000000E+00 -0.00000000000E+00 -0.21363927555E+03  0.21363927555E+03  0.00000000000E+00 0. -1.
         23    2    1    2    0    0  0.11081451972E+02  0.11486882908E+01 -0.19733701070E+03  0.21815948381E+03  0.92344715711E+02 0.  0.
         11    1    3    3    0    0  0.40733710078E+02 -0.17789780965E+02 -0.16316902594E+03  0.16911487950E+03  0.00000000000E+00 0. -1.
        -11    1    3    3    0    0 -0.29652258106E+02  0.18938469256E+02 -0.34167984759E+02  0.49044604301E+02  0.00000000000E+00 0.  1.
         22    1    1    2    0    0 -0.11081451972E+02 -0.11486882908E+01 -0.62377883731E+00  0.11158277763E+02  0.00000000000E+00 0.  1.
<mgrwt>
<rscale>  0 0.54719453E+02</rscale>
<asrwt>0</asrwt>
<pdfrwt beam="1">  1        1 0.32867579E-01 0.93014325E+02</pdfrwt>
<pdfrwt beam="2">  1       -1 0.24120749E-02 0.93014325E+02</pdfrwt>
<totfact> 0.60902367E+04</totfact>
</mgrwt>
</event>
<event>
 6    1  0.1535970E-002  0.9293768E+02  0.7546771E-02  0.1404222E+00
          1   -1    0    0  501    0  0.00000000000E+00  0.00000000000E+00  0.25448099299E+03  0.25448099299E+03  0.00000000000E+00 0. -1.
         -1   -1    0    0    0  501 -0.00000000000E+00 -0.00000000000E+00 -0.17181068351E+02  0.17181068351E+02  0.00000000000E+00 0.  1.
         23    2    1    2    0    0 -0.11387340209E+02  0.91260306041E+01  0.23950373135E+03  0.25690358189E+03  0.91784841390E+02 0.  0.
         11    1    3    3    0    0  0.24489514085E+02 -0.54385177135E+01  0.20007471695E+03  0.20164128084E+03  0.00000000000E+00 0. -1.
        -11    1    3    3    0    0 -0.35876854294E+02  0.14564548318E+02  0.39429014396E+02  0.55262301055E+02  0.00000000000E+00 0.  1.
         22    1    1    2    0    0  0.11387340209E+02 -0.91260306041E+01 -0.22038067068E+01  0.14758479448E+02  0.00000000000E+00 0. -1.
<mgrwt>
<rscale>  0 0.58503265E+02</rscale>
<asrwt>0</asrwt>
<pdfrwt beam="1">  1        1 0.39150919E-01 0.92937684E+02</pdfrwt>
<pdfrwt beam="2">  1       -1 0.26432415E-02 0.92937684E+02</pdfrwt>
<totfact> 0.43115517E+04</totfact>
</mgrwt>
</event>
<event>
 6    1  0.1535970E-002  0.9684407E+02  0.7546771E-02  0.1349764E+00
         -1   -1    0    0    0  501 -0.00000000000E+00  0.00000000000E+00  0.27233955396E+02  0.27233955396E+02  0.00000000000E+00 0.  1.
          1   -1    0    0  501    0  0.00000000000E+00 -0.00000000000E+00 -0.52576434400E+03  0.52576434400E+03  0.00000000000E+00 0. -1.
         23    2    1    2    0    0  0.26297583453E+01  0.31377997127E+02 -0.51028076432E+03  0.51938928778E+03  0.91582091574E+02 0.  0.
         11    1    3    3    0    0  0.48983454001E+01 -0.23997514890E+02 -0.32690885958E+03  0.32782507070E+03  0.00000000000E+00 0. -1.
        -11    1    3    3    0    0 -0.22685870549E+01  0.55375512018E+02 -0.18337190474E+03  0.19156421708E+03  0.00000000000E+00 0.  1.
         22    1    1    2    0    0 -0.26297583453E+01 -0.31377997127E+02  0.11750375709E+02  0.33609011619E+02  0.00000000000E+00 0.  1.
<mgrwt>
<rscale>  0 0.73129239E+02</rscale>
<asrwt>0</asrwt>
<pdfrwt beam="1">  1        1 0.80886810E-01 0.96844070E+02</pdfrwt>
<pdfrwt beam="2">  1       -1 0.41898399E-02 0.96844070E+02</pdfrwt>
<totfact> 0.90202355E+03</totfact>
</mgrwt>
</event>
<event>
 6    1  0.1535970E-002  0.9509850E+02  0.7546771E-02  0.1381118E+00
          3   -1    0    0  501    0  0.00000000000E+00  0.00000000000E+00  0.26410909216E+03  0.26410909216E+03  0.00000000000E+00 0. -1.
         -3   -1    0    0    0  501 -0.00000000000E+00 -0.00000000000E+00 -0.36281451729E+02  0.36281451729E+02  0.00000000000E+00 0.  1.
         23    2    1    2    0    0 -0.36344769582E+01 -0.19378595046E+02  0.25191231749E+03  0.26926481437E+03  0.93032172857E+02 0.  0.
         11    1    3    3    0    0 -0.28606654435E+02  0.16564743363E+02  0.19334642217E+03  0.19615190636E+03  0.00000000000E+00 0. -1.
        -11    1    3    3    0    0  0.24972177476E+02 -0.35943338409E+02  0.58565895317E+02  0.73112908013E+02  0.00000000000E+00 0.  1.
         22    1    1    2    0    0  0.36344769582E+01  0.19378595046E+02 -0.24084677061E+02  0.31125729515E+02  0.00000000000E+00 0.  1.
<mgrwt>
<rscale>  0 0.64170816E+02</rscale>
<asrwt>0</asrwt>
<pdfrwt beam="1">  1        3 0.40632167E-01 0.95098499E+02</pdfrwt>
<pdfrwt beam="2">  1       -3 0.55817620E-02 0.95098499E+02</pdfrwt>
<totfact> 0.24624647E+03</totfact>
</mgrwt>
</event>
<event>
 6    1  0.1535970E-002  0.9310599E+02  0.7546771E-02  0.1425028E+00
         -2   -1    0    0    0  501 -0.00000000000E+00  0.00000000000E+00  0.74344473503E+02  0.74344473503E+02  0.00000000000E+00 0. -1.
          2   -1    0    0  501    0  0.00000000000E+00 -0.00000000000E+00 -0.51841276779E+02  0.51841276779E+02  0.00000000000E+00 0.  1.
         23    2    1    2    0    0  0.10435403769E+02  0.12723428904E+01 -0.84571309771E+01  0.93489291765E+02  0.92510583730E+02 0.  0.
         13    1    3    3    0    0  0.93673246211E+01  0.34471634364E+02 -0.35720237228E+02  0.50517083189E+02  0.00000000000E+00 0. -1.
        -13    1    3    3    0    0  0.10680791478E+01 -0.33199291473E+02  0.27263106251E+02  0.42972208576E+02  0.00000000000E+00 0.  1.
         22    1    1    2    0    0 -0.10435403769E+02 -0.12723428904E+01  0.30960327701E+02  0.32696458517E+02  0.00000000000E+00 0.  1.
<mgrwt>
<rscale>  0 0.53971141E+02</rscale>
<asrwt>0</asrwt>
<pdfrwt beam="1">  1        2 0.79755810E-02 0.93105986E+02</pdfrwt>
<pdfrwt beam="2">  1       -2 0.11437611E-01 0.93105986E+02</pdfrwt>
<totfact> 0.39641117E+04</totfact>
</mgrwt>
</event>
<event>
 6    1  0.1535970E-002  0.8982193E+02  0.7546771E-02  0.1421194E+00
         -2   -1    0    0    0  501 -0.00000000000E+00  0.00000000000E+00  0.20084141452E+01  0.20084141452E+01  0.00000000000E+00 0.  1.
          2   -1    0    0  501    0  0.00000000000E+00 -0.00000000000E+00 -0.15161096651E+04  0.15161096651E+04  0.00000000000E+00 0. -1.
         23    2    1    2    0    0 -0.10911434858E+02 -0.59251848982E+01 -0.14526864085E+04  0.14554606767E+04  0.88959612139E+02 0.  0.
         13    1    3    3    0    0 -0.31892801247E+02 -0.22876275627E+02 -0.31248064963E+03  0.31493591594E+03  0.00000000000E+00 0.  1.
        -13    1    3    3    0    0  0.20981366388E+02  0.16951090729E+02 -0.11402057589E+04  0.11405247607E+04  0.00000000000E+00 0. -1.
         22    1    1    2    0    0  0.10911434858E+02  0.59251848982E+01 -0.61414842391E+02  0.62657402537E+02  0.00000000000E+00 0.  1.
<mgrwt>
<rscale>  0 0.54769126E+02</rscale>
<asrwt>0</asrwt>
<pdfrwt beam="1">  1        2 0.23324809E+00 0.89821934E+02</pdfrwt>
<pdfrwt beam="2">  1       -2 0.30898619E-03 0.89821934E+02</pdfrwt>
<totfact> 0.13794155E+05</totfact>
</mgrwt>
</event>
<event>
 6    1  0.1535970E-002  0.8964878E+02  0.7546771E-02  0.1420355E+00
         -1   -1    0    0    0  501 -0.00000000000E+00  0.00000000000E+00  0.44944325380E+02  0.44944325380E+02  0.00000000000E+00 0.  1.
          1   -1    0    0  501    0  0.00000000000E+00 -0.00000000000E+00 -0.67614424784E+02  0.67614424784E+02  0.00000000000E+00 0. -1.
         23    2    1    2    0    0  0.12648793119E+02 -0.21049417194E+00 -0.33701304223E+02  0.95774121633E+02  0.88751722198E+02 0.  0.
         11    1    3    3    0    0 -0.96409910468E+01 -0.10088333174E+02 -0.59007039865E+02  0.60634593494E+02  0.00000000000E+00 0. -1.
        -11    1    3    3    0    0  0.22289784165E+02  0.98778390016E+01  0.25305735642E+02  0.35139528139E+02  0.00000000000E+00 0.  1.
         22    1    1    2    0    0 -0.12648793119E+02  0.21049417194E+00  0.11031204819E+02  0.16784628531E+02  0.00000000000E+00 0. -1.
<mgrwt>
<rscale>  0 0.54945940E+02</rscale>
<asrwt>0</asrwt>
<pdfrwt beam="1">  1        1 0.10402219E-01 0.89648784E+02</pdfrwt>
<pdfrwt beam="2">  1       -1 0.69145116E-02 0.89648784E+02</pdfrwt>
<totfact> 0.55981991E+04</totfact>
</mgrwt>
</event>
<event>
 6    1  0.1535970E-002  0.9491347E+02  0.7546771E-02  0.1408768E+00
          2   -1    0    0  501    0  0.00000000000E+00  0.00000000000E+00  0.11498932069E+04  0.11498932069E+04  0.00000000000E+00 0. -1.
         -2   -1    0    0    0  501 -0.00000000000E+00 -0.00000000000E+00 -0.26277180225E+01  0.26277180225E+01  0.00000000000E+00 0.  1.
         23    2    1    2    0    0  0.15696038674E+01  0.12660762024E+02  0.10708250783E+04  0.10750232158E+04  0.94052153726E+02 0.  0.
         11    1    3    3    0    0 -0.74379781191E+01 -0.27833950807E+02  0.84039380602E+03  0.84088750825E+03  0.00000000000E+00 0. -1.
        -11    1    3    3    0    0  0.90075819865E+01  0.40494712831E+02  0.23043127233E+03  0.23413570759E+03  0.00000000000E+00 0.  1.
         22    1    1    2    0    0 -0.15696038674E+01 -0.12660762024E+02  0.76440410487E+02  0.77497709042E+02  0.00000000000E+00 0.  1.
<mgrwt>
<rscale>  0 0.57469690E+02</rscale>
<asrwt>0</asrwt>
<pdfrwt beam="1">  1        2 0.17690625E+00 0.94913467E+02</pdfrwt>
<pdfrwt beam="2">  1       -2 0.40426523E-03 0.94913467E+02</pdfrwt>
<totfact> 0.14894488E+05</totfact>
</mgrwt>
</event>
<event>
 6    1  0.1535970E-002  0.9137638E+02  0.7546771E-02  0.1398985E+00
          2   -1    0    0  501    0  0.00000000000E+00  0.00000000000E+00  0.46923430036E+03  0.46923430036E+03  0.00000000000E+00 0. -1.
         -2   -1    0    0    0  501 -0.00000000000E+00 -0.00000000000E+00 -0.11406213588E+02  0.11406213588E+02  0.00000000000E+00 0.  1.
         23    2    1    2    0    0  0.48913060287E+01  0.15945003414E+02  0.45454935657E+03  0.46364292352E+03  0.89841387820E+02 0.  0.
         11    1    3    3    0    0  0.13188602600E+02  0.21722233499E+02  0.45264116047E+03  0.45335396195E+03  0.00000000000E+00 0. -1.
        -11    1    3    3    0    0 -0.82972965717E+01 -0.57772300854E+01  0.19081961024E+01  0.10288961572E+02  0.00000000000E+00 0.  1.
         22    1    1    2    0    0 -0.48913060287E+01 -0.15945003414E+02  0.32787302029E+01  0.16997590426E+02  0.00000000000E+00 0.  1.
<mgrwt>
<rscale>  0 0.59726059E+02</rscale>
<asrwt>0</asrwt>
<pdfrwt beam="1">  1        2 0.72189877E-01 0.91376381E+02</pdfrwt>
<pdfrwt beam="2">  1       -2 0.17548025E-02 0.91376381E+02</pdfrwt>
<totfact> 0.55176023E+04</totfact>
</mgrwt>
</event>
<event>
 6    1  0.1535970E-002  0.9190198E+02  0.7546771E-02  0.1417712E+00
          2   -1    0    0  501    0  0.00000000000E+00  0.00000000000E+00  0.43333650433E+02  0.43333650433E+02  0.00000000000E+00 0.  1.
         -2   -1    0    0    0  501 -0.00000000000E+00 -0.00000000000E+00 -0.66788846037E+02  0.66788846037E+02  0.00000000000E+00 0. -1.
         23    2    1    2    0    0 -0.26490608076E+01 -0.11940210942E+02 -0.10818816527E+02  0.92536586296E+02  0.91084503906E+02 0.  0.
         13    1    3    3    0    0 -0.22820501509E+02 -0.23463713552E+02  0.30754536286E+02  0.44912833856E+02  0.00000000000E+00 0.  1.
        -13    1    3    3    0    0  0.20171440701E+02  0.11523502611E+02 -0.41573352813E+02  0.47623752440E+02  0.00000000000E+00 0. -1.
         22    1    1    2    0    0  0.26490608076E+01  0.11940210942E+02 -0.12636379077E+02  0.17585910175E+02  0.00000000000E+00 0. -1.
<mgrwt>
<rscale>  0 0.55507934E+02</rscale>
<asrwt>0</asrwt>
<pdfrwt beam="1">  1        2 0.66667154E-02 0.91901975E+02</pdfrwt>
<pdfrwt beam="2">  1       -2 0.10275207E-01 0.91901975E+02</pdfrwt>
<totfact> 0.58575764E+04</totfact>
</mgrwt>
</event>
<event>
 6    1  0.1535970E-002  0.9312440E+02  0.7546771E-02  0.1396741E+00
         -2   -1    0    0    0  501 -0.00000000000E+00  0.00000000000E+00  0.16413010799E+02  0.16413010799E+02  0.00000000000E+00 0.  1.
          2   -1    0    0  501    0  0.00000000000E+00 -0.00000000000E+00 -0.23224113887E+03  0.23224113887E+03  0.00000000000E+00 0. -1.
         23    2    1    2    0    0 -0.12365874118E+02  0.10663111002E+02 -0.21247278594E+03  0.23198456360E+03  0.91681711391E+02 0.  0.
         11    1    3    3    0    0 -0.45529469524E+02  0.11885162680E+02 -0.17807798090E+03  0.18419000235E+03  0.00000000000E+00 0. -1.
        -11    1    3    3    0    0  0.33163595405E+02 -0.12220516787E+01 -0.34394805044E+02  0.47794561244E+02  0.00000000000E+00 0.  1.
         22    1    1    2    0    0  0.12365874118E+02 -0.10663111002E+02 -0.33553421290E+01  0.16669586070E+02  0.00000000000E+00 0.  1.
<mgrwt>
<rscale>  0 0.60260611E+02</rscale>
<asrwt>0</asrwt>
<pdfrwt beam="1">  1        2 0.35729407E-01 0.93124395E+02</pdfrwt>
<pdfrwt beam="2">  1       -2 0.25250785E-02 0.93124395E+02</pdfrwt>
<totfact> 0.68643327E+04</totfact>
</mgrwt>
</event>
<event>
 6    1  0.1535970E-002  0.9102323E+02  0.7546771E-02  0.1394382E+00
          2   -1    0    0  501    0  0.00000000000E+00  0.00000000000E+00  0.31597296348E+03  0.31597296348E+03  0.00000000000E+00 0. -1.
         -2   -1    0    0    0  501 -0.00000000000E+00 -0.00000000000E+00 -0.10174240303E+02  0.10174240303E+02  0.00000000000E+00 0.  1.
         23    2    1    2    0    0  0.19758743805E+01 -0.18047752959E+02  0.28126095576E+03  0.29562299214E+03  0.89194185811E+02 0.  0.
         13    1    3    3    0    0 -0.38707368806E+02 -0.27773484367E+02  0.17658766755E+03  0.18290115135E+03  0.00000000000E+00 0. -1.
        -13    1    3    3    0    0  0.40683243187E+02  0.97257314074E+01  0.10467328820E+03  0.11272184079E+03  0.00000000000E+00 0.  1.
         22    1    1    2    0    0 -0.19758743805E+01  0.18047752959E+02  0.24537767427E+02  0.30524211648E+02  0.00000000000E+00 0.  1.
<mgrwt>
<rscale>  0 0.60829854E+02</rscale>
<asrwt>0</asrwt>
<pdfrwt beam="1">  1        2 0.48611218E-01 0.91023229E+02</pdfrwt>
<pdfrwt beam="2">  1       -2 0.15652680E-02 0.91023229E+02</pdfrwt>
<totfact> 0.98491042E+04</totfact>
</mgrwt>
</event>
<event>
 6    1  0.1535970E-002  0.9247742E+02  0.7546771E-02  0.1422998E+00
          2   -1    0    0  501    0  0.00000000000E+00  0.00000000000E+00  0.18253323937E+03  0.18253323937E+03  0.00000000000E+00 0. -1.
         -2   -1    0    0    0  501 -0.00000000000E+00 -0.00000000000E+00 -0.17457873493E+02  0.17457873493E+02  0.00000000000E+00 0.  1.
         23    2    1    2    0    0 -0.61752310709E+01  0.91836435811E+01  0.16473734795E+03  0.18891920949E+03  0.91812859203E+02 0.  0.
         11    1    3    3    0    0 -0.40039861332E+02  0.30605170480E+02  0.11082682429E+03  0.12174749253E+03  0.00000000000E+00 0. -1.
        -11    1    3    3    0    0  0.33864630261E+02 -0.21421526898E+02  0.53910523667E+02  0.67171716960E+02  0.00000000000E+00 0.  1.
         22    1    1    2    0    0  0.61752310709E+01 -0.91836435811E+01  0.33801792350E+00  0.11071903374E+02  0.00000000000E+00 0. -1.
<mgrwt>
<rscale>  0 0.54391589E+02</rscale>
<asrwt>0</asrwt>
<pdfrwt beam="1">  1        2 0.28082036E-01 0.92477424E+02</pdfrwt>
<pdfrwt beam="2">  1       -2 0.26858268E-02 0.92477424E+02</pdfrwt>
<totfact> 0.81062252E+04</totfact>
</mgrwt>
</event>
<event>
 6    1  0.1535970E-002  0.9157268E+02  0.7546771E-02  0.1421549E+00
         -1   -1    0    0    0  501 -0.00000000000E+00  0.00000000000E+00  0.12026449403E+02  0.12026449403E+02  0.00000000000E+00 0.  1.
          1   -1    0    0  501    0  0.00000000000E+00 -0.00000000000E+00 -0.41025990971E+03  0.41025990971E+03  0.00000000000E+00 0. -1.
         23    2    1    2    0    0 -0.57992396702E+01 -0.10108691581E+02 -0.40013368860E+03  0.41047840866E+03  0.90828070550E+02 0.  0.
         13    1    3    3    0    0 -0.42011667281E+02 -0.91867795267E+01 -0.31551383216E+03  0.31843108421E+03  0.00000000000E+00 0. -1.
        -13    1    3    3    0    0  0.36212427611E+02 -0.92191205463E+00 -0.84619856438E+02  0.92047324453E+02  0.00000000000E+00 0.  1.
         22    1    1    2    0    0  0.57992396702E+01  0.10108691581E+02  0.19002282937E+01  0.11807950449E+02  0.00000000000E+00 0.  1.
<mgrwt>
<rscale>  0 0.54694497E+02</rscale>
<asrwt>0</asrwt>
<pdfrwt beam="1">  1        1 0.63116902E-01 0.91572677E+02</pdfrwt>
<pdfrwt beam="2">  1       -1 0.18502232E-02 0.91572677E+02</pdfrwt>
<totfact> 0.39883508E+04</totfact>
</mgrwt>
</event>
<event>
 6    1  0.1535970E-002  0.9669869E+02  0.7546771E-02  0.1420254E+00
          2   -1    0    0  501    0  0.00000000000E+00  0.00000000000E+00  0.11428017514E+04  0.11428017514E+04  0.00000000000E+00 0. -1.
         -2   -1    0    0    0  501 -0.00000000000E+00 -0.00000000000E+00 -0.38389647811E+01  0.38389647811E+01  0.00000000000E+00 0.  1.
         23    2    1    2    0    0  0.10071186398E+02  0.70919507576E+00  0.11263107166E+04  0.11304540974E+04  0.96170183190E+02 0.  0.
         13    1    3    3    0    0 -0.10221718921E+02 -0.45246486751E+02  0.56302886361E+03  0.56493648259E+03  0.00000000000E+00 0.  1.
        -13    1    3    3    0    0  0.20292905319E+02  0.45955681827E+02  0.56328185302E+03  0.56551761480E+03  0.00000000000E+00 0. -1.
         22    1    1    2    0    0 -0.10071186398E+02 -0.70919507576E+00  0.12652069975E+02  0.16186618787E+02  0.00000000000E+00 0.  1.
<mgrwt>
<rscale>  0 0.54967263E+02</rscale>
<asrwt>0</asrwt>
<pdfrwt beam="1">  1        2 0.17581538E+00 0.96698686E+02</pdfrwt>
<pdfrwt beam="2">  1       -2 0.59061088E-03 0.96698686E+02</pdfrwt>
<totfact> 0.88515332E+04</totfact>
</mgrwt>
</event>
<event>
 6    1  0.1535970E-002  0.9255748E+02  0.7546771E-02  0.1383568E+00
          1   -1    0    0  501    0  0.00000000000E+00  0.00000000000E+00  0.28943884450E+02  0.28943884450E+02  0.00000000000E+00 0. -1.
         -1   -1    0    0    0  501 -0.00000000000E+00 -0.00000000000E+00 -0.11266441580E+03  0.11266441580E+03  0.00000000000E+00 0.  1.
         23    2    1    2    0    0  0.13954487048E+02 -0.15085995961E+02 -0.60383117738E+02  0.11051248290E+03  0.90247287966E+02 0.  0.
         11    1    3    3    0    0  0.29121169473E+02  0.31146837142E+02 -0.19186565399E+02  0.46757804345E+02  0.00000000000E+00 0. -1.
        -11    1    3    3    0    0 -0.15166682425E+02 -0.46232833103E+02 -0.41196552339E+02  0.63754678551E+02  0.00000000000E+00 0.  1.
         22    1    1    2    0    0 -0.13954487048E+02  0.15085995961E+02 -0.23337413615E+02  0.31095817358E+02  0.00000000000E+00 0.  1.
<mgrwt>
<rscale>  0 0.63535027E+02</rscale>
<asrwt>0</asrwt>
<pdfrwt beam="1">  1        1 0.44529054E-02 0.92557485E+02</pdfrwt>
<pdfrwt beam="2">  1       -1 0.17332987E-01 0.92557485E+02</pdfrwt>
<totfact> 0.43116625E+04</totfact>
</mgrwt>
</event>
<event>
 6    1  0.1535970E-002  0.9720416E+02  0.7546771E-02  0.1348575E+00
         -2   -1    0    0    0  501 -0.00000000000E+00  0.00000000000E+00  0.13172123858E+02  0.13172123858E+02  0.00000000000E+00 0.  1.
          2   -1    0    0  501    0  0.00000000000E+00 -0.00000000000E+00 -0.49317686561E+03  0.49317686561E+03  0.00000000000E+00 0. -1.
         23    2    1    2    0    0  0.30936608654E+02  0.72659841718E+01 -0.45672900763E+03  0.46695827889E+03  0.91862829973E+02 0.  0.
         11    1    3    3    0    0  0.34996160218E+02  0.39479810131E+02 -0.37996313031E+03  0.38360835109E+03  0.00000000000E+00 0. -1.
        -11    1    3    3    0    0 -0.40595515641E+01 -0.32213825959E+02 -0.76765877328E+02  0.83349927797E+02  0.00000000000E+00 0.  1.
         22    1    1    2    0    0 -0.30936608654E+02 -0.72659841718E+01 -0.23275734121E+02  0.39390710579E+02  0.00000000000E+00 0.  1.
<mgrwt>
<rscale>  0 0.73501587E+02</rscale>
<asrwt>0</asrwt>
<pdfrwt beam="1">  1        2 0.75873360E-01 0.97204155E+02</pdfrwt>
<pdfrwt beam="2">  1       -2 0.20264807E-02 0.97204155E+02</pdfrwt>
<totfact> 0.42857399E+04</totfact>
</mgrwt>
</event>
<event>
 6    1  0.1535970E-002  0.9152907E+02  0.7546771E-02  0.1419137E+00
          2   -1    0    0  501    0  0.00000000000E+00  0.00000000000E+00  0.38706893525E+03  0.38706893525E+03  0.00000000000E+00 0.  1.
         -2   -1    0    0    0  501 -0.00000000000E+00 -0.00000000000E+00 -0.83105140174E+01  0.83105140174E+01  0.00000000000E+00 0. -1.
         23    2    1    2    0    0  0.49873124806E+01  0.11037145428E+02  0.36789429356E+03  0.37910919619E+03  0.90724194904E+02 0.  0.
         13    1    3    3    0    0  0.39080326063E+02 -0.19182340797E+02  0.13655253582E+03  0.14332420983E+03  0.00000000000E+00 0. -1.
        -13    1    3    3    0    0 -0.34093013582E+02  0.30219486224E+02  0.23134175773E+03  0.23578498636E+03  0.00000000000E+00 0.  1.
         22    1    1    2    0    0 -0.49873124806E+01 -0.11037145428E+02  0.10864127676E+02  0.16270253075E+02  0.00000000000E+00 0. -1.
<mgrwt>
<rscale>  0 0.55203938E+02</rscale>
<asrwt>0</asrwt>
<pdfrwt beam="1">  1        2 0.59549053E-01 0.91529074E+02</pdfrwt>
<pdfrwt beam="2">  1       -2 0.12785409E-02 0.91529074E+02</pdfrwt>
<totfact> 0.10632733E+05</totfact>
</mgrwt>
</event>
<event>
 6    1  0.1535970E-002  0.1072010E+03  0.7546771E-02  0.1300678E+00
         -3   -1    0    0    0  501 -0.00000000000E+00  0.00000000000E+00  0.10644953783E+02  0.10644953783E+02  0.00000000000E+00 0.  1.
          3   -1    0    0  501    0  0.00000000000E+00 -0.00000000000E+00 -0.89059364093E+03  0.89059364093E+03  0.00000000000E+00 0. -1.
         23    2    1    2    0    0  0.27131053967E+02 -0.48334037722E+02 -0.77660376504E+03  0.78396777047E+03  0.91759380878E+02 0.  0.
         13    1    3    3    0    0  0.24884394460E+02  0.18671970098E+02 -0.12064359752E+03  0.12459034143E+03  0.00000000000E+00 0.  1.
        -13    1    3    3    0    0  0.22466595069E+01 -0.67006007820E+02 -0.65596016752E+03  0.65937742905E+03  0.00000000000E+00 0. -1.
         22    1    1    2    0    0 -0.27131053967E+02  0.48334037722E+02 -0.10334492211E+03  0.11727082424E+03  0.00000000000E+00 0.  1.
<mgrwt>
<rscale>  0 0.90903718E+02</rscale>
<asrwt>0</asrwt>
<pdfrwt beam="1">  1        3 0.13701444E+00 0.10720101E+03</pdfrwt>
<pdfrwt beam="2">  1       -3 0.16376848E-02 0.10720101E+03</pdfrwt>
<totfact> 0.12360253E+03</totfact>
</mgrwt>
</event>
<event>
 6    1  0.1535970E-002  0.1049488E+03  0.7546771E-02  0.1311881E+00
         -1   -1    0    0    0  501 -0.00000000000E+00  0.00000000000E+00  0.22976430282E+03  0.22976430282E+03  0.00000000000E+00 0.  1.
          1   -1    0    0  501    0  0.00000000000E+00 -0.00000000000E+00 -0.26313946142E+02  0.26313946142E+02  0.00000000000E+00 0. -1.
         23    2    1    2    0    0  0.45400158024E+02  0.16031251907E+02  0.11737525819E+03  0.15745219781E+03  0.93252710273E+02 0.  0.
         11    1    3    3    0    0  0.24859308574E+02 -0.26681179765E+02  0.10087964802E+03  0.10726869982E+03  0.00000000000E+00 0.  1.
        -11    1    3    3    0    0  0.20540849451E+02  0.42712431672E+02  0.16495610171E+02  0.50183497989E+02  0.00000000000E+00 0. -1.
         22    1    1    2    0    0 -0.45400158024E+02 -0.16031251907E+02  0.86075098480E+02  0.98626051146E+02  0.00000000000E+00 0.  1.
<mgrwt>
<rscale>  0 0.86372658E+02</rscale>
<asrwt>0</asrwt>
<pdfrwt beam="1">  1        1 0.40482996E-02 0.10494877E+03</pdfrwt>
<pdfrwt beam="2">  1       -1 0.35348353E-01 0.10494877E+03</pdfrwt>
<totfact> 0.15593530E+04</totfact>
</mgrwt>
</event>
<event>
 6    1  0.1535970E-002  0.9279304E+02  0.7546771E-02  0.1400305E+00
         -4   -1    0    0    0  501 -0.00000000000E+00  0.00000000000E+00  0.23257067991E+03  0.23257067991E+03  0.00000000000E+00 0.  1.
          4   -1    0    0  501    0  0.00000000000E+00 -0.00000000000E+00 -0.14767016246E+02  0.14767016246E+02  0.00000000000E+00 0. -1.
         23    2    1    2    0    0 -0.14916029882E+02 -0.45568363036E+01  0.13982182986E+03  0.16781147967E+03  0.91472924411E+02 0.  0.
         11    1    3    3    0    0  0.98729504425E+00 -0.18027399933E+02 -0.71136132411E+01  0.19405292917E+02  0.00000000000E+00 0. -1.
        -11    1    3    3    0    0 -0.15903324927E+02  0.13470563629E+02  0.14693544310E+03  0.14840618676E+03  0.00000000000E+00 0.  1.
         22    1    1    2    0    0  0.14916029882E+02  0.45568363036E+01  0.77981833806E+02  0.79526216484E+02  0.00000000000E+00 0.  1.
<mgrwt>
<rscale>  0 0.59414681E+02</rscale>
<asrwt>0</asrwt>
<pdfrwt beam="1">  1        4 0.22718488E-02 0.92793042E+02</pdfrwt>
<pdfrwt beam="2">  1       -4 0.35780102E-01 0.92793042E+02</pdfrwt>
<totfact> 0.92570087E+03</totfact>
</mgrwt>
</event>
<event>
 6    1  0.1535970E-002  0.9278511E+02  0.7546771E-02  0.1406858E+00
          1   -1    0    0  501    0  0.00000000000E+00  0.00000000000E+00  0.21731978539E+03  0.21731978539E+03  0.00000000000E+00 0. -1.
         -1   -1    0    0    0  501 -0.00000000000E+00 -0.00000000000E+00 -0.15713507210E+02  0.15713507210E+02  0.00000000000E+00 0.  1.
         23    2    1    2    0    0  0.11529407242E+02 -0.80653445836E+01  0.19776297504E+03  0.21844740923E+03  0.91712045489E+02 0.  0.
         11    1    3    3    0    0  0.39274841794E+02 -0.13052129486E+02  0.37901586758E+02  0.56119529228E+02  0.00000000000E+00 0.  1.
        -11    1    3    3    0    0 -0.27745434552E+02  0.49867849026E+01  0.15986138828E+03  0.16232788000E+03  0.00000000000E+00 0. -1.
         22    1    1    2    0    0 -0.11529407242E+02  0.80653445836E+01  0.38433031375E+01  0.14585883367E+02  0.00000000000E+00 0. -1.
<mgrwt>
<rscale>  0 0.57900932E+02</rscale>
<asrwt>0</asrwt>
<pdfrwt beam="1">  1        1 0.33433811E-01 0.92785108E+02</pdfrwt>
<pdfrwt beam="2">  1       -1 0.24174628E-02 0.92785108E+02</pdfrwt>
<totfact> 0.59430712E+04</totfact>
</mgrwt>
</event>
<event>
 6    1  0.1535970E-002  0.9277813E+02  0.7546771E-02  0.1413988E+00
         -2   -1    0    0    0  501 -0.00000000000E+00  0.00000000000E+00  0.19739277004E+03  0.19739277004E+03  0.00000000000E+00 0.  1.
          2   -1    0    0  501    0  0.00000000000E+00 -0.00000000000E+00 -0.14150756023E+02  0.14150756023E+02  0.00000000000E+00 0. -1.
         23    2    1    2    0    0 -0.22828091154E+01 -0.12383714719E+02  0.15544795185E+03  0.18102996351E+03  0.91919608068E+02 0.  0.
         13    1    3    3    0    0  0.18726163182E+02  0.14973584562E+02  0.23467247835E+01  0.24091171399E+02  0.00000000000E+00 0. -1.
        -13    1    3    3    0    0 -0.21008972298E+02 -0.27357299281E+02  0.15310122707E+03  0.15693879211E+03  0.00000000000E+00 0.  1.
         22    1    1    2    0    0  0.22828091154E+01  0.12383714719E+02  0.27794062168E+02  0.30513562550E+02  0.00000000000E+00 0.  1.
<mgrwt>
<rscale>  0 0.56313307E+02</rscale>
<asrwt>0</asrwt>
<pdfrwt beam="1">  1        2 0.21770395E-02 0.92778133E+02</pdfrwt>
<pdfrwt beam="2">  1       -2 0.30368117E-01 0.92778133E+02</pdfrwt>
<totfact> 0.42141929E+04</totfact>
</mgrwt>
</event>
<event>
 6    1  0.1535970E-002  0.9594864E+02  0.7546771E-02  0.1353568E+00
          2   -1    0    0  501    0  0.00000000000E+00  0.00000000000E+00  0.22284364705E+02  0.22284364705E+02  0.00000000000E+00 0. -1.
         -2   -1    0    0    0  501 -0.00000000000E+00 -0.00000000000E+00 -0.25079235832E+03  0.25079235832E+03  0.00000000000E+00 0.  1.
         23    2    1    2    0    0  0.20713888775E+02 -0.22179885013E+02 -0.90928418145E+02  0.13218970420E+03  0.91022679495E+02 0.  0.
         13    1    3    3    0    0  0.77071813913E+01 -0.36778829116E+01  0.18538509449E+02  0.20410874560E+02  0.00000000000E+00 0. -1.
        -13    1    3    3    0    0  0.13006707384E+02 -0.18502002101E+02 -0.10946692759E+03  0.11177882964E+03  0.00000000000E+00 0.  1.
         22    1    1    2    0    0 -0.20713888775E+02  0.22179885013E+02 -0.13757957547E+03  0.14088701883E+03  0.00000000000E+00 0.  1.
<mgrwt>
<rscale>  0 0.71955218E+02</rscale>
<asrwt>0</asrwt>
<pdfrwt beam="1">  1        2 0.34283637E-02 0.95948636E+02</pdfrwt>
<pdfrwt beam="2">  1       -2 0.38583440E-01 0.95948636E+02</pdfrwt>
<totfact> 0.14915838E+04</totfact>
</mgrwt>
</event>
<event>
 6    1  0.1535970E-002  0.9847473E+02  0.7546771E-02  0.1337938E+00
          2   -1    0    0  501    0  0.00000000000E+00  0.00000000000E+00  0.98570552169E+02  0.98570552169E+02  0.00000000000E+00 0. -1.
         -2   -1    0    0    0  501 -0.00000000000E+00 -0.00000000000E+00 -0.83005586022E+02  0.83005586022E+02  0.00000000000E+00 0.  1.
         23    2    1    2    0    0 -0.54234876539E+01 -0.36312904905E+02  0.66472171447E+02  0.11881002606E+03  0.91374128909E+02 0.  0.
         11    1    3    3    0    0 -0.21176775491E+01  0.28546571141E+02  0.43775462815E+01  0.28957800220E+02  0.00000000000E+00 0.  1.
        -11    1    3    3    0    0 -0.33058101048E+01 -0.64859476046E+02  0.62094625166E+02  0.89852225837E+02  0.00000000000E+00 0. -1.
         22    1    1    2    0    0  0.54234876539E+01  0.36312904905E+02 -0.50907205301E+02  0.62766112134E+02  0.00000000000E+00 0.  1.
<mgrwt>
<rscale>  0 0.76949624E+02</rscale>
<asrwt>0</asrwt>
<pdfrwt beam="1">  1        2 0.15164700E-01 0.98474731E+02</pdfrwt>
<pdfrwt beam="2">  1       -2 0.12770090E-01 0.98474731E+02</pdfrwt>
<totfact> 0.15492561E+04</totfact>
</mgrwt>
</event>
<event>
 6    1  0.1535970E-002  0.9531386E+02  0.7546771E-02  0.1366835E+00
          2   -1    0    0  501    0  0.00000000000E+00  0.00000000000E+00  0.48203846760E+03  0.48203846760E+03  0.00000000000E+00 0. -1.
         -2   -1    0    0    0  501 -0.00000000000E+00 -0.00000000000E+00 -0.82340478601E+01  0.82340478601E+01  0.00000000000E+00 0.  1.
         23    2    1    2    0    0  0.18973537731E+02  0.15927481742E+02  0.42480976768E+03  0.43537118816E+03  0.92038323301E+02 0.  0.
         11    1    3    3    0    0  0.42246035922E+02 -0.11365670243E+02  0.34634347064E+03  0.34909555378E+03  0.00000000000E+00 0. -1.
        -11    1    3    3    0    0 -0.23272498191E+02  0.27293151985E+02  0.78466297034E+02  0.86275634379E+02  0.00000000000E+00 0.  1.
         22    1    1    2    0    0 -0.18973537731E+02 -0.15927481742E+02  0.48994652061E+02  0.54901327300E+02  0.00000000000E+00 0. -1.
<mgrwt>
<rscale>  0 0.68054961E+02</rscale>
<asrwt>0</asrwt>
<pdfrwt beam="1">  1        2 0.74159742E-01 0.95313864E+02</pdfrwt>
<pdfrwt beam="2">  1       -2 0.12667770E-02 0.95313864E+02</pdfrwt>
<totfact> 0.85830654E+04</totfact>
</mgrwt>
</event>
<event>
 6    1  0.1535970E-002  0.1897858E+03  0.7546771E-02  0.1164822E+00
          2   -1    0    0  501    0  0.00000000000E+00  0.00000000000E+00  0.26938620610E+03  0.26938620610E+03  0.00000000000E+00 0. -1.
         -2   -1    0    0    0  501 -0.00000000000E+00 -0.00000000000E+00 -0.21632417622E+03  0.21632417622E+03  0.00000000000E+00 0.  1.
         23    2    1    2    0    0  0.16410598190E+03 -0.11009120461E+02  0.19232324703E+03  0.27019782902E+03  0.94692457087E+02 0.  0.
         11    1    3    3    0    0  0.16303117613E+03 -0.15108507355E+02  0.20177040040E+03  0.25984365657E+03  0.00000000000E+00 0.  1.
        -11    1    3    3    0    0  0.10748057768E+01  0.40993868945E+01 -0.94471533670E+01  0.10354172449E+02  0.00000000000E+00 0. -1.
         22    1    1    2    0    0 -0.16410598190E+03  0.11009120461E+02 -0.13926121715E+03  0.21551255330E+03  0.00000000000E+00 0. -1.
<mgrwt>
<rscale>  0 0.18311444E+03</rscale>
<asrwt>0</asrwt>
<pdfrwt beam="1">  1        2 0.41444032E-01 0.18978576E+03</pdfrwt>
<pdfrwt beam="2">  1       -2 0.33280643E-01 0.18978576E+03</pdfrwt>
<totfact> 0.10329605E+03</totfact>
</mgrwt>
</event>
<event>
 6    1  0.1535970E-002  0.1043111E+03  0.7546771E-02  0.1309617E+00
          2   -1    0    0  501    0  0.00000000000E+00  0.00000000000E+00  0.32088993429E+04  0.32088993429E+04  0.00000000000E+00 0. -1.
         -2   -1    0    0    0  501 -0.00000000000E+00 -0.00000000000E+00 -0.31280959661E+01  0.31280959661E+01  0.00000000000E+00 0.  1.
         23    2    1    2    0    0 -0.48544350461E+02  0.15926929444E+02  0.29105083073E+04  0.29123769349E+04  0.90942743889E+02 0.  0.
         13    1    3    3    0    0 -0.22435560395E+02 -0.36796570458E+02  0.93495113210E+03  0.93594388794E+03  0.00000000000E+00 0. -1.
        -13    1    3    3    0    0 -0.26108790066E+02  0.52723499902E+02  0.19755571752E+04  0.19764330469E+04  0.00000000000E+00 0.  1.
         22    1    1    2    0    0  0.48544350461E+02 -0.15926929444E+02  0.29526293960E+03  0.29965050399E+03  0.00000000000E+00 0.  1.
<mgrwt>
<rscale>  0 0.87263480E+02</rscale>
<asrwt>0</asrwt>
<pdfrwt beam="1">  1        2 0.49367419E+00 0.10431109E+03</pdfrwt>
<pdfrwt beam="2">  1       -2 0.48124810E-03 0.10431109E+03</pdfrwt>
<totfact> 0.95237558E+03</totfact>
</mgrwt>
</event>
<event>
 6    1  0.1535970E-002  0.9867044E+02  0.7546771E-02  0.1325847E+00
          2   -1    0    0  501    0  0.00000000000E+00  0.00000000000E+00  0.22027298630E+03  0.22027298630E+03  0.00000000000E+00 0. -1.
         -2   -1    0    0    0  501 -0.00000000000E+00 -0.00000000000E+00 -0.24303339763E+02  0.24303339763E+02  0.00000000000E+00 0.  1.
         23    2    1    2    0    0 -0.38807017813E+02 -0.23020602219E+02  0.15433764195E+03  0.18318286905E+03  0.87749205311E+02 0.  0.
         13    1    3    3    0    0  0.22339116925E+02  0.14108695030E+02  0.51913261884E+02  0.58250134591E+02  0.00000000000E+00 0. -1.
        -13    1    3    3    0    0 -0.61146134738E+02 -0.37129297249E+02  0.10242438007E+03  0.12493273446E+03  0.00000000000E+00 0.  1.
         22    1    1    2    0    0  0.38807017813E+02  0.23020602219E+02  0.41632004586E+02  0.61393457012E+02  0.00000000000E+00 0.  1.
<mgrwt>
<rscale>  0 0.81140135E+02</rscale>
<asrwt>0</asrwt>
<pdfrwt beam="1">  1        2 0.33888150E-01 0.98670440E+02</pdfrwt>
<pdfrwt beam="2">  1       -2 0.37389755E-02 0.98670440E+02</pdfrwt>
<totfact> 0.41280470E+04</totfact>
</mgrwt>
</event>
<event>
 6    1  0.1535970E-002  0.8032700E+02  0.7546771E-02  0.1449394E+00
          2   -1    0    0  501    0  0.00000000000E+00  0.00000000000E+00  0.12170206478E+04  0.12170206478E+04  0.00000000000E+00 0. -1.
         -2   -1    0    0    0  501 -0.00000000000E+00 -0.00000000000E+00 -0.70185279665E+01  0.70185279665E+01  0.00000000000E+00 0.  1.
         23    2    1    2    0    0  0.71198730975E+01  0.88481647284E+01  0.12100187924E+04  0.12126821123E+04  0.79520092298E+02 0.  0.
         11    1    3    3    0    0 -0.14093341327E+02 -0.12465971135E+02  0.77042302976E+02  0.79306614818E+02  0.00000000000E+00 0.  1.
        -11    1    3    3    0    0  0.21213214424E+02  0.21314135864E+02  0.11329764894E+04  0.11333754975E+04  0.00000000000E+00 0. -1.
         22    1    1    2    0    0 -0.71198730975E+01 -0.88481647284E+01 -0.16672527935E-01  0.11357063439E+02  0.00000000000E+00 0.  1.
<mgrwt>
<rscale>  0 0.49256390E+02</rscale>
<asrwt>0</asrwt>
<pdfrwt beam="1">  1        2 0.18723378E+00 0.80327005E+02</pdfrwt>
<pdfrwt beam="2">  1       -2 0.10797745E-02 0.80327005E+02</pdfrwt>
<totfact> 0.33764585E+04</totfact>
</mgrwt>
</event>
<event>
 6    1  0.1535970E-002  0.9811508E+02  0.7546771E-02  0.1399609E+00
          2   -1    0    0  501    0  0.00000000000E+00  0.00000000000E+00  0.76282253876E+03  0.76282253876E+03  0.00000000000E+00 0. -1.
         -2   -1    0    0    0  501 -0.00000000000E+00 -0.00000000000E+00 -0.44830015651E+01  0.44830015651E+01  0.00000000000E+00 0.  1.
         23    2    1    2    0    0  0.57533800507E+01 -0.12035402188E+02  0.72119066497E+03  0.72783414568E+03  0.97203992131E+02 0.  0.
         11    1    3    3    0    0 -0.33102373236E+01  0.39641472833E+02  0.43970487304E+03  0.44150059956E+03  0.00000000000E+00 0.  1.
        -11    1    3    3    0    0  0.90636173743E+01 -0.51676875022E+02  0.28148579193E+03  0.28633354612E+03  0.00000000000E+00 0. -1.
         22    1    1    2    0    0 -0.57533800507E+01  0.12035402188E+02  0.37148872222E+02  0.39471394645E+02  0.00000000000E+00 0.  1.
<mgrwt>
<rscale>  0 0.59578527E+02</rscale>
<asrwt>0</asrwt>
<pdfrwt beam="1">  1        2 0.11735721E+00 0.98115077E+02</pdfrwt>
<pdfrwt beam="2">  1       -2 0.68969315E-03 0.98115077E+02</pdfrwt>
<totfact> 0.12137190E+05</totfact>
</mgrwt>
</event>
<event>
 6    1  0.1535970E-002  0.9133917E+02  0.7546771E-02  0.1397827E+00
         -2   -1    0    0    0  501 -0.00000000000E+00  0.00000000000E+00  0.22246505404E+03  0.22246505404E+03  0.00000000000E+00 0.  1.
          2   -1    0    0  501    0  0.00000000000E+00 -0.00000000000E+00 -0.13204582438E+02  0.13204582438E+02  0.00000000000E+00 0. -1.
         23    2    1    2    0    0  0.12559666160E+02 -0.11469245404E+02  0.17371714385E+03  0.19626637580E+03  0.89741603502E+02 0.  0.
         13    1    3    3    0    0  0.39830063374E+02 -0.33635217160E+02  0.73853271828E+02  0.90399488613E+02  0.00000000000E+00 0.  1.
        -13    1    3    3    0    0 -0.27270397214E+02  0.22165971756E+02  0.99863872020E+02  0.10586688719E+03  0.00000000000E+00 0. -1.
         22    1    1    2    0    0 -0.12559666160E+02  0.11469245404E+02  0.35543327757E+02  0.39403260680E+02  0.00000000000E+00 0. -1.
<mgrwt>
<rscale>  0 0.60001106E+02</rscale>
<asrwt>0</asrwt>
<pdfrwt beam="1">  1        2 0.20314744E-02 0.91339171E+02</pdfrwt>
<pdfrwt beam="2">  1       -2 0.34225390E-01 0.91339171E+02</pdfrwt>
<totfact> 0.37195566E+04</totfact>
</mgrwt>
</event>
<event>
 6    1  0.1535970E-002  0.9220658E+02  0.7546771E-02  0.1396339E+00
          2   -1    0    0  501    0  0.00000000000E+00  0.00000000000E+00  0.38135661537E+03  0.38135661537E+03  0.00000000000E+00 0.  1.
         -2   -1    0    0    0  501 -0.00000000000E+00 -0.00000000000E+00 -0.90756312035E+01  0.90756312035E+01  0.00000000000E+00 0. -1.
         23    2    1    2    0    0 -0.14321376161E+02  0.90269680447E+01  0.35267253509E+03  0.36452704937E+03  0.90639200925E+02 0.  0.
         13    1    3    3    0    0  0.20679446400E+02 -0.19064444801E+02  0.41490863273E+02  0.50125684974E+02  0.00000000000E+00 0. -1.
        -13    1    3    3    0    0 -0.35000822561E+02  0.28091412846E+02  0.31118167182E+03  0.31440136439E+03  0.00000000000E+00 0.  1.
         22    1    1    2    0    0  0.14321376161E+02 -0.90269680447E+01  0.19608449074E+02  0.25905197206E+02  0.00000000000E+00 0. -1.
<mgrwt>
<rscale>  0 0.60357142E+02</rscale>
<asrwt>0</asrwt>
<pdfrwt beam="1">  1        2 0.58670236E-01 0.92206576E+02</pdfrwt>
<pdfrwt beam="2">  1       -2 0.13962513E-02 0.92206576E+02</pdfrwt>
<totfact> 0.95377933E+04</totfact>
</mgrwt>
</event>
<event>
 6    1  0.1535970E-002  0.9214458E+02  0.7546771E-02  0.1402997E+00
         -1   -1    0    0    0  501 -0.00000000000E+00  0.00000000000E+00  0.65287257645E+01  0.65287257645E+01  0.00000000000E+00 0.  1.
          1   -1    0    0  501    0  0.00000000000E+00 -0.00000000000E+00 -0.78964350099E+03  0.78964350099E+03  0.00000000000E+00 0. -1.
         23    2    1    2    0    0 -0.54260527060E+01  0.14267909449E+02 -0.77152022729E+03  0.77700327191E+03  0.90871382461E+02 0.  0.
         11    1    3    3    0    0 -0.16157972084E+02 -0.32111675220E+02 -0.17901113739E+03  0.18258484892E+03  0.00000000000E+00 0.  1.
        -11    1    3    3    0    0  0.10731919378E+02  0.46379584669E+02 -0.59250908990E+03  0.59441842299E+03  0.00000000000E+00 0. -1.
         22    1    1    2    0    0  0.54260527060E+01 -0.14267909449E+02 -0.11594547932E+02  0.19168954843E+02  0.00000000000E+00 0. -1.
<mgrwt>
<rscale>  0 0.58786201E+02</rscale>
<asrwt>0</asrwt>
<pdfrwt beam="1">  1        1 0.12148364E+00 0.92144579E+02</pdfrwt>
<pdfrwt beam="2">  1       -1 0.10044191E-02 0.92144579E+02</pdfrwt>
<totfact> 0.39591018E+04</totfact>
</mgrwt>
</event>
<event>
 6    1  0.1535970E-002  0.9401601E+02  0.7546771E-02  0.1390492E+00
          1   -1    0    0  501    0  0.00000000000E+00  0.00000000000E+00  0.28740248854E+02  0.28740248854E+02  0.00000000000E+00 0. -1.
         -1   -1    0    0    0  501 -0.00000000000E+00 -0.00000000000E+00 -0.11390972273E+03  0.11390972273E+03  0.00000000000E+00 0.  1.
         23    2    1    2    0    0  0.10881925615E+02 -0.13750114444E+02 -0.58494642150E+02  0.11072774422E+03  0.92366272131E+02 0.  0.
         13    1    3    3    0    0  0.35181672990E+02 -0.36861717389E+02 -0.10256936818E+02  0.51978275040E+02  0.00000000000E+00 0. -1.
        -13    1    3    3    0    0 -0.24299747375E+02  0.23111602945E+02 -0.48237705333E+02  0.58749469180E+02  0.00000000000E+00 0.  1.
         22    1    1    2    0    0 -0.10881925615E+02  0.13750114444E+02 -0.26674831727E+02  0.31922227366E+02  0.00000000000E+00 0.  1.
<mgrwt>
<rscale>  0 0.61784398E+02</rscale>
<asrwt>0</asrwt>
<pdfrwt beam="1">  1        1 0.44215767E-02 0.94016010E+02</pdfrwt>
<pdfrwt beam="2">  1       -1 0.17524573E-01 0.94016010E+02</pdfrwt>
<totfact> 0.42878908E+04</totfact>
</mgrwt>
</event>
<event>
 6    1  0.1535970E-002  0.1421201E+03  0.7546771E-02  0.1223093E+00
         -2   -1    0    0    0  501 -0.00000000000E+00  0.00000000000E+00  0.72063799318E+02  0.72063799318E+02  0.00000000000E+00 0.  1.
          2   -1    0    0  501    0  0.00000000000E+00 -0.00000000000E+00 -0.12904397500E+04  0.12904397500E+04  0.00000000000E+00 0. -1.
         23    2    1    2    0    0  0.97048770669E+02 -0.49523022426E+02 -0.12427552899E+04  0.12508552362E+04  0.91253042248E+02 0.  0.
         13    1    3    3    0    0  0.97954438702E+02 -0.54082827335E+02 -0.77099929636E+03  0.77907633724E+03  0.00000000000E+00 0. -1.
        -13    1    3    3    0    0 -0.90566803331E+00  0.45598049089E+01 -0.47175599358E+03  0.47177889900E+03  0.00000000000E+00 0.  1.
         22    1    1    2    0    0 -0.97048770669E+02  0.49523022426E+02  0.24379339228E+02  0.11164831311E+03  0.00000000000E+00 0.  1.
<mgrwt>
<rscale>  0 0.13298493E+03</rscale>
<asrwt>0</asrwt>
<pdfrwt beam="1">  1        2 0.19852918E+00 0.14212006E+03</pdfrwt>
<pdfrwt beam="2">  1       -2 0.11086739E-01 0.14212006E+03</pdfrwt>
<totfact> 0.10093316E+03</totfact>
</mgrwt>
</event>
<event>
 6    1  0.1535970E-002  0.9234097E+02  0.7546771E-02  0.1424918E+00
         -1   -1    0    0    0  501 -0.00000000000E+00  0.00000000000E+00  0.12544188067E+02  0.12544188067E+02  0.00000000000E+00 0.  1.
          1   -1    0    0  501    0  0.00000000000E+00 -0.00000000000E+00 -0.21961293471E+03  0.21961293471E+03  0.00000000000E+00 0. -1.
         23    2    1    2    0    0  0.32447673549E+01 -0.10294953666E+02 -0.19617475668E+03  0.21682109971E+03  0.91707903341E+02 0.  0.
         13    1    3    3    0    0 -0.17477709946E+02 -0.45929656431E+02 -0.84094259335E+02  0.97400452453E+02  0.00000000000E+00 0.  1.
        -13    1    3    3    0    0  0.20722477301E+02  0.35634702765E+02 -0.11208049734E+03  0.11942064726E+03  0.00000000000E+00 0. -1.
         22    1    1    2    0    0 -0.32447673549E+01  0.10294953666E+02 -0.10893989966E+02  0.15336023068E+02  0.00000000000E+00 0. -1.
<mgrwt>
<rscale>  0 0.53993732E+02</rscale>
<asrwt>0</asrwt>
<pdfrwt beam="1">  1        1 0.33786608E-01 0.92340967E+02</pdfrwt>
<pdfrwt beam="2">  1       -1 0.19298749E-02 0.92340967E+02</pdfrwt>
<totfact> 0.80914408E+04</totfact>
</mgrwt>
</event>
<event>
 6    1  0.1535970E-002  0.9218984E+02  0.7546771E-02  0.1425614E+00
          1   -1    0    0  501    0  0.00000000000E+00  0.00000000000E+00  0.71566754812E+02  0.71566754812E+02  0.00000000000E+00 0. -1.
         -1   -1    0    0    0  501 -0.00000000000E+00 -0.00000000000E+00 -0.39885683537E+02  0.39885683537E+02  0.00000000000E+00 0.  1.
         23    2    1    2    0    0 -0.10731987239E+02  0.13081906409E+00  0.37165701849E+02  0.99399478702E+02  0.91562952708E+02 0.  0.
         11    1    3    3    0    0  0.42229814089E+01 -0.33609889037E+02 -0.13713084069E+02  0.36544587667E+02  0.00000000000E+00 0.  1.
        -11    1    3    3    0    0 -0.14954968648E+02  0.33740708101E+02  0.50878785918E+02  0.62854891034E+02  0.00000000000E+00 0. -1.
         22    1    1    2    0    0  0.10731987239E+02 -0.13081906409E+00 -0.54846305742E+01  0.12052959647E+02  0.00000000000E+00 0.  1.
<mgrwt>
<rscale>  0 0.53850583E+02</rscale>
<asrwt>0</asrwt>
<pdfrwt beam="1">  1        1 0.11010270E-01 0.92189842E+02</pdfrwt>
<pdfrwt beam="2">  1       -1 0.61362590E-02 0.92189842E+02</pdfrwt>
<totfact> 0.62273223E+04</totfact>
</mgrwt>
</event>
<event>
 6    1  0.1535970E-002  0.1470152E+03  0.7546771E-02  0.1220237E+00
          2   -1    0    0  501    0  0.00000000000E+00  0.00000000000E+00  0.23560935059E+04  0.23560935059E+04  0.00000000000E+00 0. -1.
         -2   -1    0    0    0  501 -0.00000000000E+00 -0.00000000000E+00 -0.10867929011E+02  0.10867929011E+02  0.00000000000E+00 0.  1.
         23    2    1    2    0    0 -0.10413713940E+03  0.86220255828E+01  0.20204109045E+04  0.20257526213E+04  0.10341458462E+03 0.  0.
         13    1    3    3    0    0 -0.99404080815E+02 -0.33037169223E+02  0.13788695091E+04  0.13828426335E+04  0.00000000000E+00 0. -1.
        -13    1    3    3    0    0 -0.47330585830E+01  0.41659194806E+02  0.64154139545E+03  0.64290998782E+03  0.00000000000E+00 0.  1.
         22    1    1    2    0    0  0.10413713940E+03 -0.86220255828E+01  0.32481467237E+03  0.34120881365E+03  0.00000000000E+00 0.  1.
<mgrwt>
<rscale>  0 0.13498760E+03</rscale>
<asrwt>0</asrwt>
<pdfrwt beam="1">  1        2 0.36247552E+00 0.14701517E+03</pdfrwt>
<pdfrwt beam="2">  1       -2 0.16719910E-02 0.14701517E+03</pdfrwt>
<totfact> 0.48318771E+03</totfact>
</mgrwt>
</event>
<event>
 6    1  0.1535970E-002  0.9228755E+02  0.7546771E-02  0.1423621E+00
          2   -1    0    0  501    0  0.00000000000E+00  0.00000000000E+00  0.25922533344E+04  0.25922533344E+04  0.00000000000E+00 0. -1.
         -2   -1    0    0    0  501 -0.00000000000E+00 -0.00000000000E+00 -0.20909186979E+01  0.20909186979E+01  0.00000000000E+00 0.  1.
         23    2    1    2    0    0 -0.80955669079E+01 -0.74908490967E+01  0.25673219636E+04  0.25689801589E+04  0.91626092842E+02 0.  0.
         13    1    3    3    0    0 -0.36460370792E+01 -0.22460821423E+02  0.24896352826E+04  0.24897392680E+04  0.00000000000E+00 0. -1.
        -13    1    3    3    0    0 -0.44495298287E+01  0.14969972327E+02  0.77686680944E+02  0.79240890853E+02  0.00000000000E+00 0.  1.
         22    1    1    2    0    0  0.80955669079E+01  0.74908490967E+01  0.22840452153E+02  0.25364094273E+02  0.00000000000E+00 0.  1.
<mgrwt>
<rscale>  0 0.54262126E+02</rscale>
<asrwt>0</asrwt>
<pdfrwt beam="1">  1        2 0.39880563E+00 0.92287550E+02</pdfrwt>
<pdfrwt beam="2">  1       -2 0.32168187E-03 0.92287550E+02</pdfrwt>
<totfact> 0.37001249E+04</totfact>
</mgrwt>
</event>
<event>
 6    1  0.1535970E-002  0.9036511E+02  0.7546771E-02  0.1395602E+00
          1   -1    0    0  501    0  0.00000000000E+00  0.00000000000E+00  0.39898285078E+03  0.39898285078E+03  0.00000000000E+00 0. -1.
         -1   -1    0    0    0  501 -0.00000000000E+00 -0.00000000000E+00 -0.35596730126E+02  0.35596730126E+02  0.00000000000E+00 0.  1.
         23    2    1    2    0    0  0.85509763788E+01 -0.16063166978E+02  0.39111186252E+03  0.40141542416E+03  0.88513892824E+02 0.  0.
         11    1    3    3    0    0 -0.30252544068E+02 -0.34667293758E+02  0.23608135137E+03  0.24052326736E+03  0.00000000000E+00 0.  1.
        -11    1    3    3    0    0  0.38803520447E+02  0.18604126779E+02  0.15503051115E+03  0.16089215680E+03  0.00000000000E+00 0. -1.
         22    1    1    2    0    0 -0.85509763788E+01  0.16063166978E+02 -0.27725741865E+02  0.33164156741E+02  0.00000000000E+00 0.  1.
<mgrwt>
<rscale>  0 0.60534477E+02</rscale>
<asrwt>0</asrwt>
<pdfrwt beam="1">  1        1 0.61381974E-01 0.90365114E+02</pdfrwt>
<pdfrwt beam="2">  1       -1 0.54764203E-02 0.90365114E+02</pdfrwt>
<totfact> 0.86057144E+03</totfact>
</mgrwt>
</event>
<event>
 6    1  0.1535970E-002  0.9307843E+02  0.7546771E-02  0.1399065E+00
         -2   -1    0    0    0  501 -0.00000000000E+00  0.00000000000E+00  0.64141611774E+02  0.64141611774E+02  0.00000000000E+00 0.  1.
          2   -1    0    0  501    0  0.00000000000E+00 -0.00000000000E+00 -0.41973063909E+03  0.41973063909E+03  0.00000000000E+00 0. -1.
         23    2    1    2    0    0  0.24142506675E+01  0.15573948589E+02 -0.41350444376E+03  0.42385082183E+03  0.91734495547E+02 0.  0.
         11    1    3    3    0    0 -0.10208671131E+02 -0.22210786944E+02 -0.33429598763E+03  0.33518851914E+03  0.00000000000E+00 0. -1.
        -11    1    3    3    0    0  0.12622921798E+02  0.37784735533E+02 -0.79208456136E+02  0.88662302686E+02  0.00000000000E+00 0.  1.
         22    1    1    2    0    0 -0.24142506675E+01 -0.15573948589E+02  0.57915416447E+02  0.60021429034E+02  0.00000000000E+00 0.  1.
<mgrwt>
<rscale>  0 0.59707048E+02</rscale>
<asrwt>0</asrwt>
<pdfrwt beam="1">  1        2 0.64573947E-01 0.93078430E+02</pdfrwt>
<pdfrwt beam="2">  1       -2 0.98679399E-02 0.93078430E+02</pdfrwt>
<totfact> 0.48322751E+03</totfact>
</mgrwt>
</event>
<event>
 6    1  0.1535970E-002  0.1000578E+03  0.7546771E-02  0.1328055E+00
         -2   -1    0    0    0  501 -0.00000000000E+00  0.00000000000E+00  0.15945882414E+02  0.15945882414E+02  0.00000000000E+00 0.  1.
          2   -1    0    0  501    0  0.00000000000E+00 -0.00000000000E+00 -0.37306982714E+03  0.37306982714E+03  0.00000000000E+00 0. -1.
         23    2    1    2    0    0  0.96966390498E+01 -0.40468518066E+02 -0.31191202541E+03  0.32756781771E+03  0.90993614304E+02 0.  0.
         11    1    3    3    0    0  0.13653822087E+02  0.23637651641E+02 -0.16480888937E+03  0.16705428893E+03  0.00000000000E+00 0. -1.
        -11    1    3    3    0    0 -0.39571830370E+01 -0.64106169706E+02 -0.14710313603E+03  0.16051352878E+03  0.00000000000E+00 0.  1.
         22    1    1    2    0    0 -0.96966390498E+01  0.40468518066E+02 -0.45211919323E+02  0.61447891845E+02  0.00000000000E+00 0.  1.
<mgrwt>
<rscale>  0 0.80352262E+02</rscale>
<asrwt>0</asrwt>
<pdfrwt beam="1">  1        2 0.57395358E-01 0.10005780E+03</pdfrwt>
<pdfrwt beam="2">  1       -2 0.24532127E-02 0.10005780E+03</pdfrwt>
<totfact> 0.43921636E+04</totfact>
</mgrwt>
</event>
<event>
 6    1  0.1535970E-002  0.9278991E+02  0.7546771E-02  0.1422310E+00
          2   -1    0    0  501    0  0.00000000000E+00  0.00000000000E+00  0.76063188522E+03  0.76063188522E+03  0.00000000000E+00 0. -1.
         -2   -1    0    0    0  501 -0.00000000000E+00 -0.00000000000E+00 -0.35708103371E+01  0.35708103371E+01  0.00000000000E+00 0.  1.
         23    2    1    2    0    0 -0.11059514704E+02  0.51459347755E+00  0.69422717662E+03  0.70040084259E+03  0.92127031115E+02 0.  0.
         13    1    3    3    0    0 -0.22338775846E+02  0.26919827029E+02  0.61728814964E+03  0.61827854376E+03  0.00000000000E+00 0. -1.
        -13    1    3    3    0    0  0.11279261142E+02 -0.26405233551E+02  0.76939026988E+02  0.82122298827E+02  0.00000000000E+00 0.  1.
         22    1    1    2    0    0  0.11059514704E+02 -0.51459347755E+00  0.62833898262E+02  0.63801852973E+02  0.00000000000E+00 0.  1.
<mgrwt>
<rscale>  0 0.54535210E+02</rscale>
<asrwt>0</asrwt>
<pdfrwt beam="1">  1        2 0.11702016E+00 0.92789911E+02</pdfrwt>
<pdfrwt beam="2">  1       -2 0.54935604E-03 0.92789911E+02</pdfrwt>
<totfact> 0.16639954E+05</totfact>
</mgrwt>
</event>
<event>
 6    1  0.1535970E-002  0.9212374E+02  0.7546771E-02  0.1375420E+00
          3   -1    0    0  501    0  0.00000000000E+00  0.00000000000E+00  0.11645753456E+03  0.11645753456E+03  0.00000000000E+00 0. -1.
         -3   -1    0    0    0  501 -0.00000000000E+00 -0.00000000000E+00 -0.34977574371E+02  0.34977574371E+02  0.00000000000E+00 0.  1.
         23    2    1    2    0    0 -0.15575026361E+01 -0.23755953182E+02  0.87310246450E+02  0.12692463436E+03  0.88994452334E+02 0.  0.
         11    1    3    3    0    0 -0.39750997153E+02 -0.30107864394E+02  0.66029315988E+02  0.82743554690E+02  0.00000000000E+00 0.  1.
        -11    1    3    3    0    0  0.38193494516E+02  0.63519112120E+01  0.21280930463E+02  0.44181079670E+02  0.00000000000E+00 0. -1.
         22    1    1    2    0    0  0.15575026361E+01  0.23755953182E+02 -0.58302862576E+01  0.24510474575E+02  0.00000000000E+00 0.  1.
<mgrwt>
<rscale>  0 0.65683251E+02</rscale>
<asrwt>0</asrwt>
<pdfrwt beam="1">  1        3 0.17916544E-01 0.92123741E+02</pdfrwt>
<pdfrwt beam="2">  1       -3 0.53811653E-02 0.92123741E+02</pdfrwt>
<totfact> 0.11420736E+04</totfact>
</mgrwt>
</event>
<event>
 6    1  0.1535970E-002  0.9710806E+02  0.7546771E-02  0.1348409E+00
          2   -1    0    0  501    0  0.00000000000E+00  0.00000000000E+00  0.15428896998E+04  0.15428896998E+04  0.00000000000E+00 0. -1.
         -2   -1    0    0    0  501 -0.00000000000E+00 -0.00000000000E+00 -0.35080172347E+01  0.35080172347E+01  0.00000000000E+00 0.  1.
         23    2    1    2    0    0  0.18158129792E+02 -0.26305145415E+02  0.14014740224E+04  0.14048342998E+04  0.91696762329E+02 0.  0.
         13    1    3    3    0    0  0.14224586671E+01 -0.45347505864E+02  0.12769570577E+04  0.12777627897E+04  0.00000000000E+00 0. -1.
        -13    1    3    3    0    0  0.16735671125E+02  0.19042360449E+02  0.12451696470E+03  0.12707151010E+03  0.00000000000E+00 0.  1.
         22    1    1    2    0    0 -0.18158129792E+02  0.26305145415E+02  0.13790766020E+03  0.14156341722E+03  0.00000000000E+00 0.  1.
<mgrwt>
<rscale>  0 0.73553902E+02</rscale>
<asrwt>0</asrwt>
<pdfrwt beam="1">  1        2 0.23736711E+00 0.97108056E+02</pdfrwt>
<pdfrwt beam="2">  1       -2 0.53969619E-03 0.97108056E+02</pdfrwt>
<totfact> 0.61807942E+04</totfact>
</mgrwt>
</event>
<event>
 6    1  0.1535970E-002  0.9299247E+02  0.7546771E-02  0.1418806E+00
         -2   -1    0    0    0  501 -0.00000000000E+00  0.00000000000E+00  0.62840123797E+01  0.62840123797E+01  0.00000000000E+00 0.  1.
          2   -1    0    0  501    0  0.00000000000E+00 -0.00000000000E+00 -0.10447836252E+04  0.10447836252E+04  0.00000000000E+00 0. -1.
         23    2    1    2    0    0 -0.40083260883E+01 -0.10893715169E+02 -0.10346758080E+04  0.10388462959E+04  0.92265156941E+02 0.  0.
         11    1    3    3    0    0 -0.23675090231E+02 -0.67244968001E+01 -0.74499963127E+02  0.78460010582E+02  0.00000000000E+00 0.  1.
        -11    1    3    3    0    0  0.19666764143E+02 -0.41692183685E+01 -0.96017584486E+03  0.96038628533E+03  0.00000000000E+00 0. -1.
         22    1    1    2    0    0  0.40083260883E+01  0.10893715169E+02 -0.38238047985E+01  0.12221341634E+02  0.00000000000E+00 0. -1.
<mgrwt>
<rscale>  0 0.55274240E+02</rscale>
<asrwt>0</asrwt>
<pdfrwt beam="1">  1        2 0.16073602E+00 0.92992467E+02</pdfrwt>
<pdfrwt beam="2">  1       -2 0.96677064E-03 0.92992467E+02</pdfrwt>
<totfact> 0.49938769E+04</totfact>
</mgrwt>
</event>
<event>
 6    1  0.1535970E-002  0.9294148E+02  0.7546771E-02  0.1371998E+00
         -2   -1    0    0    0  501 -0.00000000000E+00  0.00000000000E+00  0.26959942409E+02  0.26959942409E+02  0.00000000000E+00 0. -1.
          2   -1    0    0  501    0  0.00000000000E+00 -0.00000000000E+00 -0.13831149370E+03  0.13831149370E+03  0.00000000000E+00 0.  1.
         23    2    1    2    0    0  0.16442010401E+02  0.18200775220E+02 -0.10440240012E+03  0.13977832671E+03  0.89646592476E+02 0.  0.
         13    1    3    3    0    0  0.48943050340E+02 -0.44146037389E+01 -0.36647133978E+02  0.61301903165E+02  0.00000000000E+00 0.  1.
        -13    1    3    3    0    0 -0.32501039939E+02  0.22615378959E+02 -0.67755266146E+02  0.78476423549E+02  0.00000000000E+00 0. -1.
         22    1    1    2    0    0 -0.16442010401E+02 -0.18200775220E+02 -0.69491511652E+01  0.25493109393E+02  0.00000000000E+00 0. -1.
<mgrwt>
<rscale>  0 0.66614902E+02</rscale>
<asrwt>0</asrwt>
<pdfrwt beam="1">  1        2 0.21278691E-01 0.92941484E+02</pdfrwt>
<pdfrwt beam="2">  1       -2 0.41476835E-02 0.92941484E+02</pdfrwt>
<totfact> 0.58223525E+04</totfact>
</mgrwt>
</event>
<event>
 6    1  0.1535970E-002  0.9126101E+02  0.7546771E-02  0.1409925E+00
          2   -1    0    0  501    0  0.00000000000E+00  0.00000000000E+00  0.83863402876E+03  0.83863402876E+03  0.00000000000E+00 0.  1.
         -2   -1    0    0    0  501 -0.00000000000E+00 -0.00000000000E+00 -0.52888964821E+01  0.52888964821E+01  0.00000000000E+00 0. -1.
         23    2    1    2    0    0  0.71486373223E+01 -0.12146988554E+02  0.81804722481E+03  0.82312200412E+03  0.90166065156E+02 0.  0.
         11    1    3    3    0    0 -0.21570148002E+02 -0.43533923059E+02  0.45824863796E+03  0.46081697878E+03  0.00000000000E+00 0.  1.
        -11    1    3    3    0    0  0.28718785324E+02  0.31386934505E+02  0.35979858685E+03  0.36230502534E+03  0.00000000000E+00 0. -1.
         22    1    1    2    0    0 -0.71486373223E+01  0.12146988554E+02  0.15297907467E+02  0.20800921118E+02  0.00000000000E+00 0. -1.
<mgrwt>
<rscale>  0 0.57210489E+02</rscale>
<asrwt>0</asrwt>
<pdfrwt beam="1">  1        2 0.12902051E+00 0.91261008E+02</pdfrwt>
<pdfrwt beam="2">  1       -2 0.81367705E-03 0.91261008E+02</pdfrwt>
<totfact> 0.84776566E+04</totfact>
</mgrwt>
</event>
<event>
 6    1  0.1535970E-002  0.9884591E+02  0.7546771E-02  0.1393487E+00
         -1   -1    0    0    0  501 -0.00000000000E+00  0.00000000000E+00  0.22059056358E+02  0.22059056358E+02  0.00000000000E+00 0.  1.
          1   -1    0    0  501    0  0.00000000000E+00 -0.00000000000E+00 -0.14881806987E+03  0.14881806987E+03  0.00000000000E+00 0. -1.
         23    2    1    2    0    0  0.88331416895E+01 -0.11348896130E+02 -0.11842221911E+03  0.15425413082E+03  0.97794136127E+02 0.  0.
         11    1    3    3    0    0 -0.31805186435E+02 -0.15242214496E+02 -0.74996079637E+01  0.36057441763E+02  0.00000000000E+00 0.  1.
        -11    1    3    3    0    0  0.40638328125E+02  0.38933183661E+01 -0.11092261114E+03  0.11819668906E+03  0.00000000000E+00 0. -1.
         22    1    1    2    0    0 -0.88331416895E+01  0.11348896130E+02 -0.83367944069E+01  0.16622995412E+02  0.00000000000E+00 0.  1.
<mgrwt>
<rscale>  0 0.61047600E+02</rscale>
<asrwt>0</asrwt>
<pdfrwt beam="1">  1        1 0.22895087E-01 0.98845915E+02</pdfrwt>
<pdfrwt beam="2">  1       -1 0.33937010E-02 0.98845915E+02</pdfrwt>
<totfact> 0.58708483E+04</totfact>
</mgrwt>
</event>
<event>
 6    1  0.1535970E-002  0.8995644E+02  0.7546771E-02  0.1423578E+00
          4   -1    0    0  501    0  0.00000000000E+00  0.00000000000E+00  0.24116731405E+03  0.24116731405E+03  0.00000000000E+00 0.  1.
         -4   -1    0    0    0  501 -0.00000000000E+00 -0.00000000000E+00 -0.10758356374E+02  0.10758356374E+02  0.00000000000E+00 0. -1.
         23    2    1    2    0    0  0.68852604898E+01  0.97269915675E+01  0.20340069558E+03  0.22240504376E+03  0.89163553945E+02 0.  0.
         13    1    3    3    0    0 -0.20361340124E+02 -0.25393541625E+02  0.33191868046E+02  0.46487807351E+02  0.00000000000E+00 0. -1.
        -13    1    3    3    0    0  0.27246600614E+02  0.35120533192E+02  0.17020882753E+03  0.17591723641E+03  0.00000000000E+00 0.  1.
         22    1    1    2    0    0 -0.68852604898E+01 -0.97269915675E+01  0.27008262097E+02  0.29520626661E+02  0.00000000000E+00 0. -1.
<mgrwt>
<rscale>  0 0.54271062E+02</rscale>
<asrwt>0</asrwt>
<pdfrwt beam="1">  1        4 0.37102660E-01 0.89956437E+02</pdfrwt>
<pdfrwt beam="2">  1       -4 0.16551319E-02 0.89956437E+02</pdfrwt>
<totfact> 0.13865837E+04</totfact>
</mgrwt>
</event>
<event>
 6    1  0.1535970E-002  0.9114684E+02  0.7546771E-02  0.1424651E+00
          2   -1    0    0  501    0  0.00000000000E+00  0.00000000000E+00  0.89583963928E+03  0.89583963928E+03  0.00000000000E+00 0. -1.
         -2   -1    0    0    0  501 -0.00000000000E+00 -0.00000000000E+00 -0.37269926116E+01  0.37269926116E+01  0.00000000000E+00 0.  1.
         23    2    1    2    0    0 -0.19212084042E+01 -0.11105054044E+02  0.86986512170E+03  0.87462739305E+03  0.90447407074E+02 0.  0.
         13    1    3    3    0    0  0.33286835133E+02 -0.26957741406E+02  0.64904174022E+03  0.65045362153E+03  0.00000000000E+00 0. -1.
        -13    1    3    3    0    0 -0.35208043538E+02  0.15852687362E+02  0.22082338149E+03  0.22417377152E+03  0.00000000000E+00 0.  1.
         22    1    1    2    0    0  0.19212084042E+01  0.11105054044E+02  0.22247524968E+02  0.24939238847E+02  0.00000000000E+00 0. -1.
<mgrwt>
<rscale>  0 0.54048961E+02</rscale>
<asrwt>0</asrwt>
<pdfrwt beam="1">  1        2 0.13782131E+00 0.91146841E+02</pdfrwt>
<pdfrwt beam="2">  1       -2 0.57338419E-03 0.91146841E+02</pdfrwt>
<totfact> 0.12762876E+05</totfact>
</mgrwt>
</event>
<event>
 6    1  0.1535970E-002  0.1739351E+03  0.7546771E-02  0.1180490E+00
          2   -1    0    0  501    0  0.00000000000E+00  0.00000000000E+00  0.39179910634E+03  0.39179910634E+03  0.00000000000E+00 0. -1.
         -2   -1    0    0    0  501 -0.00000000000E+00 -0.00000000000E+00 -0.72088182441E+02  0.72088182441E+02  0.00000000000E+00 0.  1.
         23    2    1    2    0    0 -0.14487655166E+03  0.37123796890E+02  0.23382538936E+03  0.29142362142E+03  0.88803282003E+02 0.  0.
         11    1    3    3    0    0 -0.38749059469E+02  0.53988285328E+02  0.91571423889E+02  0.11314393592E+03  0.00000000000E+00 0. -1.
        -11    1    3    3    0    0 -0.10612749219E+03 -0.16864488437E+02  0.14225396547E+03  0.17827968550E+03  0.00000000000E+00 0.  1.
         22    1    1    2    0    0  0.14487655166E+03 -0.37123796890E+02  0.85885534540E+02  0.17246366736E+03  0.00000000000E+00 0. -1.
<mgrwt>
<rscale>  0 0.16749132E+03</rscale>
<asrwt>0</asrwt>
<pdfrwt beam="1">  1        2 0.60276784E-01 0.17393509E+03</pdfrwt>
<pdfrwt beam="2">  1       -2 0.11090490E-01 0.17393509E+03</pdfrwt>
<totfact> 0.44759231E+03</totfact>
</mgrwt>
</event>
<event>
 6    1  0.1535970E-002  0.9097056E+02  0.7546771E-02  0.1415287E+00
          2   -1    0    0  501    0  0.00000000000E+00  0.00000000000E+00  0.74336177858E+02  0.74336177858E+02  0.00000000000E+00 0. -1.
         -2   -1    0    0    0  501 -0.00000000000E+00 -0.00000000000E+00 -0.60952631156E+02  0.60952631156E+02  0.00000000000E+00 0.  1.
         23    2    1    2    0    0  0.12363111618E+02 -0.43065926414E+01  0.44690163583E+02  0.10135508641E+03  0.90023605524E+02 0.  0.
         11    1    3    3    0    0  0.27762990808E+02  0.20025552751E+01 -0.20182307720E+02  0.34381963748E+02  0.00000000000E+00 0.  1.
        -11    1    3    3    0    0 -0.15399879189E+02 -0.63091479165E+01  0.64872471303E+02  0.66973122665E+02  0.00000000000E+00 0. -1.
         22    1    1    2    0    0 -0.12363111618E+02  0.43065926414E+01 -0.31306616882E+02  0.33933722602E+02  0.00000000000E+00 0.  1.
<mgrwt>
<rscale>  0 0.56030548E+02</rscale>
<asrwt>0</asrwt>
<pdfrwt beam="1">  1        2 0.11436335E-01 0.90970560E+02</pdfrwt>
<pdfrwt beam="2">  1       -2 0.93773279E-02 0.90970560E+02</pdfrwt>
<totfact> 0.34735940E+04</totfact>
</mgrwt>
</event>
<event>
 6    1  0.1535970E-002  0.8904068E+02  0.7546771E-02  0.1403762E+00
          2   -1    0    0  501    0  0.00000000000E+00  0.00000000000E+00  0.80808005711E+02  0.80808005711E+02  0.00000000000E+00 0. -1.
         -2   -1    0    0    0  501 -0.00000000000E+00 -0.00000000000E+00 -0.43228372644E+02  0.43228372644E+02  0.00000000000E+00 0.  1.
         23    2    1    2    0    0 -0.14557941680E+02  0.82127649727E+01  0.50989822662E+02  0.10260704427E+03  0.87457763199E+02 0.  0.
         11    1    3    3    0    0 -0.18961206314E+02  0.42652660839E+02  0.49232170124E+02  0.67842342210E+02  0.00000000000E+00 0. -1.
        -11    1    3    3    0    0  0.44032646332E+01 -0.34439895866E+02  0.17576525386E+01  0.34764702057E+02  0.00000000000E+00 0.  1.
         22    1    1    2    0    0  0.14557941680E+02 -0.82127649727E+01 -0.13410189594E+02  0.21429334087E+02  0.00000000000E+00 0. -1.
<mgrwt>
<rscale>  0 0.58609282E+02</rscale>
<asrwt>0</asrwt>
<pdfrwt beam="1">  1        2 0.12432001E-01 0.89040685E+02</pdfrwt>
<pdfrwt beam="2">  1       -2 0.66505189E-02 0.89040685E+02</pdfrwt>
<totfact> 0.53001507E+04</totfact>
</mgrwt>
</event>
<event>
 6    1  0.1535970E-002  0.9298737E+02  0.7546771E-02  0.1401828E+00
         -2   -1    0    0    0  501 -0.00000000000E+00  0.00000000000E+00  0.46531039828E+01  0.46531039828E+01  0.00000000000E+00 0.  1.
          2   -1    0    0  501    0  0.00000000000E+00 -0.00000000000E+00 -0.81163149229E+03  0.81163149229E+03  0.00000000000E+00 0. -1.
         23    2    1    2    0    0  0.25924420941E+01  0.14906328993E+02 -0.77852537604E+03  0.78405893402E+03  0.91748196120E+02 0.  0.
         13    1    3    3    0    0  0.29320815673E+02  0.17836705740E+02 -0.70391750863E+03  0.70475365714E+03  0.00000000000E+00 0. -1.
        -13    1    3    3    0    0 -0.26728373579E+02 -0.29303767461E+01 -0.74607867406E+02  0.79305276880E+02  0.00000000000E+00 0.  1.
         22    1    1    2    0    0 -0.25924420941E+01 -0.14906328993E+02 -0.28453012274E+02  0.32225662251E+02  0.00000000000E+00 0.  1.
<mgrwt>
<rscale>  0 0.59057940E+02</rscale>
<asrwt>0</asrwt>
<pdfrwt beam="1">  1        2 0.12486637E+00 0.92987370E+02</pdfrwt>
<pdfrwt beam="2">  1       -2 0.71586220E-03 0.92987370E+02</pdfrwt>
<totfact> 0.10601251E+05</totfact>
</mgrwt>
</event>
<event>
 6    1  0.1535970E-002  0.9576806E+02  0.7546771E-02  0.1360334E+00
         -2   -1    0    0    0  501 -0.00000000000E+00  0.00000000000E+00  0.13893922755E+03  0.13893922755E+03  0.00000000000E+00 0.  1.
          2   -1    0    0  501    0  0.00000000000E+00 -0.00000000000E+00 -0.27231001738E+02  0.27231001738E+02  0.00000000000E+00 0. -1.
         23    2    1    2    0    0 -0.32018496730E+00  0.27223547270E+02  0.85546643134E+02  0.12841241616E+03  0.91816645699E+02 0.  0.
         13    1    3    3    0    0 -0.26472806117E+02 -0.21256185773E+02  0.57065169694E+02  0.66400816934E+02  0.00000000000E+00 0.  1.
        -13    1    3    3    0    0  0.26152621149E+02  0.48479733042E+02  0.28481473440E+02  0.62011599223E+02  0.00000000000E+00 0. -1.
         22    1    1    2    0    0  0.32018496730E+00 -0.27223547270E+02  0.26161582682E+02  0.37757813136E+02  0.00000000000E+00 0. -1.
<mgrwt>
<rscale>  0 0.69929301E+02</rscale>
<asrwt>0</asrwt>
<pdfrwt beam="1">  1        2 0.41893850E-02 0.95768056E+02</pdfrwt>
<pdfrwt beam="2">  1       -2 0.21375265E-01 0.95768056E+02</pdfrwt>
<totfact> 0.32668267E+04</totfact>
</mgrwt>
</event>
<event>
 6    1  0.1535970E-002  0.1160246E+03  0.7546771E-02  0.1277811E+00
          2   -1    0    0  501    0  0.00000000000E+00  0.00000000000E+00  0.11697627571E+04  0.11697627571E+04  0.00000000000E+00 0. -1.
         -2   -1    0    0    0  501 -0.00000000000E+00 -0.00000000000E+00 -0.12452156199E+02  0.12452156199E+02  0.00000000000E+00 0.  1.
         23    2    1    2    0    0 -0.20350480797E+02  0.63970907257E+02  0.10446291564E+04  0.10510526971E+04  0.94632333120E+02 0.  0.
         13    1    3    3    0    0  0.73869588644E+01  0.80860302422E+02  0.64164249336E+03  0.64675965007E+03  0.00000000000E+00 0. -1.
        -13    1    3    3    0    0 -0.27737439661E+02 -0.16889395166E+02  0.40298666308E+03  0.40429304699E+03  0.00000000000E+00 0.  1.
         22    1    1    2    0    0  0.20350480797E+02 -0.63970907257E+02  0.11268144450E+03  0.13116221628E+03  0.00000000000E+00 0.  1.
<mgrwt>
<rscale>  0 0.10119088E+03</rscale>
<asrwt>0</asrwt>
<pdfrwt beam="1">  1        2 0.17996341E+00 0.11602456E+03</pdfrwt>
<pdfrwt beam="2">  1       -2 0.19157173E-02 0.11602456E+03</pdfrwt>
<totfact> 0.16288007E+04</totfact>
</mgrwt>
</event>
<event>
 6    1  0.1535970E-002  0.9310751E+02  0.7546771E-02  0.1420074E+00
          2   -1    0    0  501    0  0.00000000000E+00  0.00000000000E+00  0.52081688103E+02  0.52081688103E+02  0.00000000000E+00 0.  1.
         -2   -1    0    0    0  501 -0.00000000000E+00 -0.00000000000E+00 -0.10984281233E+03  0.10984281233E+03  0.00000000000E+00 0. -1.
         23    2    1    2    0    0 -0.22617946954E+01 -0.11113482725E+02  0.96130311117E+01  0.93602454056E+02  0.92414197094E+02 0.  0.
         11    1    3    3    0    0 -0.12676071592E+02  0.49090442392E+01  0.48448832131E+02  0.50319686418E+02  0.00000000000E+00 0.  1.
        -11    1    3    3    0    0  0.10414276896E+02 -0.16022526964E+02 -0.38835801019E+02  0.43282767638E+02  0.00000000000E+00 0. -1.
         22    1    1    2    0    0  0.22617946954E+01  0.11113482725E+02 -0.67374155339E+02  0.68322046377E+02  0.00000000000E+00 0. -1.
<mgrwt>
<rscale>  0 0.55005271E+02</rscale>
<asrwt>0</asrwt>
<pdfrwt beam="1">  1        2 0.80125674E-02 0.93107513E+02</pdfrwt>
<pdfrwt beam="2">  1       -2 0.16898894E-01 0.93107513E+02</pdfrwt>
<totfact> 0.21055217E+04</totfact>
</mgrwt>
</event>
<event>
 6    1  0.1535970E-002  0.9257171E+02  0.7546771E-02  0.1420513E+00
         -2   -1    0    0    0  501 -0.00000000000E+00  0.00000000000E+00  0.39886624343E+02  0.39886624343E+02  0.00000000000E+00 0. -1.
          2   -1    0    0  501    0  0.00000000000E+00 -0.00000000000E+00 -0.67954875698E+02  0.67954875698E+02  0.00000000000E+00 0.  1.
         23    2    1    2    0    0 -0.11339173967E+02 -0.16716980481E+01 -0.26372267688E+02  0.96254964699E+02  0.91859404992E+02 0.  0.
         13    1    3    3    0    0 -0.15202559449E+02  0.43941716103E+02 -0.94315878000E+01  0.47444146913E+02  0.00000000000E+00 0. -1.
        -13    1    3    3    0    0  0.38633854816E+01 -0.45613414151E+02 -0.16940679888E+02  0.48810817786E+02  0.00000000000E+00 0.  1.
         22    1    1    2    0    0  0.11339173967E+02  0.16716980481E+01 -0.16959836665E+01  0.11586535342E+02  0.00000000000E+00 0. -1.
<mgrwt>
<rscale>  0 0.54912516E+02</rscale>
<asrwt>0</asrwt>
<pdfrwt beam="1">  1        2 0.10454596E-01 0.92571711E+02</pdfrwt>
<pdfrwt beam="2">  1       -2 0.61364038E-02 0.92571711E+02</pdfrwt>
<totfact> 0.73999075E+04</totfact>
</mgrwt>
</event>
<event>
 6    1  0.1535970E-002  0.9545397E+02  0.7546771E-02  0.1357286E+00
         -3   -1    0    0    0  501 -0.00000000000E+00  0.00000000000E+00  0.15995885672E+03  0.15995885672E+03  0.00000000000E+00 0.  1.
          3   -1    0    0  501    0  0.00000000000E+00 -0.00000000000E+00 -0.69726444181E+02  0.69726444181E+02  0.00000000000E+00 0. -1.
         23    2    1    2    0    0  0.28936592675E+02  0.59436114444E+00 -0.34607767994E+02  0.10153402180E+03  0.90960322756E+02 0.  0.
         13    1    3    3    0    0 -0.12983871394E+01 -0.12266278022E+02  0.28128746204E+02  0.30714389929E+02  0.00000000000E+00 0.  1.
        -13    1    3    3    0    0  0.30234979814E+02  0.12860639167E+02 -0.62736514198E+02  0.70819631868E+02  0.00000000000E+00 0. -1.
         22    1    1    2    0    0 -0.28936592675E+02 -0.59436114444E+00  0.12484018053E+03  0.12815127910E+03  0.00000000000E+00 0.  1.
<mgrwt>
<rscale>  0 0.70832119E+02</rscale>
<asrwt>0</asrwt>
<pdfrwt beam="1">  1        3 0.10727145E-01 0.95453968E+02</pdfrwt>
<pdfrwt beam="2">  1       -3 0.24609055E-01 0.95453968E+02</pdfrwt>
<totfact> 0.21737437E+03</totfact>
</mgrwt>
</event>
<event>
 6    1  0.1535970E-002  0.9238529E+02  0.7546771E-02  0.1400386E+00
         -2   -1    0    0    0  501 -0.00000000000E+00  0.00000000000E+00  0.18386672705E+02  0.18386672705E+02  0.00000000000E+00 0.  1.
          2   -1    0    0  501    0  0.00000000000E+00 -0.00000000000E+00 -0.22872646032E+03  0.22872646032E+03  0.00000000000E+00 0. -1.
         23    2    1    2    0    0 -0.53411801938E+01 -0.14852370571E+02 -0.21198738875E+03  0.23124380075E+03  0.91027035974E+02 0.  0.
         13    1    3    3    0    0  0.16171575982E+02 -0.23242069325E+02 -0.20524484339E+03  0.20718870479E+03  0.00000000000E+00 0. -1.
        -13    1    3    3    0    0 -0.21512756176E+02  0.83896987532E+01 -0.67425453597E+01  0.24055095954E+02  0.00000000000E+00 0.  1.
         22    1    1    2    0    0  0.53411801938E+01  0.14852370571E+02  0.16476011328E+01  0.15869332278E+02  0.00000000000E+00 0.  1.
<mgrwt>
<rscale>  0 0.59395487E+02</rscale>
<asrwt>0</asrwt>
<pdfrwt beam="1">  1        2 0.35188688E-01 0.92385293E+02</pdfrwt>
<pdfrwt beam="2">  1       -2 0.28287187E-02 0.92385293E+02</pdfrwt>
<totfact> 0.59109551E+04</totfact>
</mgrwt>
</event>
<event>
 6    1  0.1535970E-002  0.9563631E+02  0.7546771E-02  0.1363843E+00
          2   -1    0    0  501    0  0.00000000000E+00  0.00000000000E+00  0.29568756322E+03  0.29568756322E+03  0.00000000000E+00 0. -1.
         -2   -1    0    0    0  501 -0.00000000000E+00 -0.00000000000E+00 -0.14284223645E+02  0.14284223645E+02  0.00000000000E+00 0.  1.
         23    2    1    2    0    0  0.59233702891E+01 -0.25087325606E+02  0.25800153764E+03  0.27515649489E+03  0.92096921958E+02 0.  0.
         13    1    3    3    0    0 -0.77587811884E+01  0.10855685250E+02 -0.93818746389E+00  0.13376276892E+02  0.00000000000E+00 0.  1.
        -13    1    3    3    0    0  0.13682151477E+02 -0.35943010856E+02  0.25893972510E+03  0.26178021800E+03  0.00000000000E+00 0. -1.
         22    1    1    2    0    0 -0.59233702891E+01  0.25087325606E+02  0.23401801940E+02  0.34815291980E+02  0.00000000000E+00 0.  1.
<mgrwt>
<rscale>  0 0.68908964E+02</rscale>
<asrwt>0</asrwt>
<pdfrwt beam="1">  1        2 0.45490390E-01 0.95636307E+02</pdfrwt>
<pdfrwt beam="2">  1       -2 0.21975731E-02 0.95636307E+02</pdfrwt>
<totfact> 0.65334956E+04</totfact>
</mgrwt>
</event>
<event>
 6    1  0.1535970E-002  0.9197803E+02  0.7546771E-02  0.1417024E+00
         -2   -1    0    0    0  501 -0.00000000000E+00  0.00000000000E+00  0.46832561755E+01  0.46832561755E+01  0.00000000000E+00 0.  1.
          2   -1    0    0  501    0  0.00000000000E+00 -0.00000000000E+00 -0.82175113366E+03  0.82175113366E+03  0.00000000000E+00 0. -1.
         23    2    1    2    0    0 -0.82413496042E+01 -0.91718661234E+01 -0.80057690766E+03  0.80584324958E+03  0.91147763729E+02 0.  0.
         11    1    3    3    0    0 -0.34432050811E+02  0.28221040940E+02 -0.31601510564E+03  0.31913561423E+03  0.00000000000E+00 0. -1.
        -11    1    3    3    0    0  0.26190701207E+02 -0.37392907063E+02 -0.48456180202E+03  0.48670763535E+03  0.00000000000E+00 0.  1.
         22    1    1    2    0    0  0.82413496042E+01  0.91718661234E+01 -0.16490969816E+02  0.20591140254E+02  0.00000000000E+00 0. -1.
<mgrwt>
<rscale>  0 0.55655600E+02</rscale>
<asrwt>0</asrwt>
<pdfrwt beam="1">  1        2 0.12642326E+00 0.91978029E+02</pdfrwt>
<pdfrwt beam="2">  1       -2 0.72050089E-03 0.91978029E+02</pdfrwt>
<totfact> 0.10330817E+05</totfact>
</mgrwt>
</event>
<event>
 6    1  0.1535970E-002  0.9009883E+02  0.7546771E-02  0.1431087E+00
         -4   -1    0    0    0  501 -0.00000000000E+00  0.00000000000E+00  0.23833211626E+03  0.23833211626E+03  0.00000000000E+00 0.  1.
          4   -1    0    0  501    0  0.00000000000E+00 -0.00000000000E+00 -0.11469565215E+02  0.11469565215E+02  0.00000000000E+00 0. -1.
         23    2    1    2    0    0  0.35575922154E+01  0.99638700789E+01  0.17457125067E+03  0.19645081209E+03  0.89475498549E+02 0.  0.
         11    1    3    3    0    0 -0.35315817836E+02 -0.13599979079E+02  0.43172114825E+02  0.57410782253E+02  0.00000000000E+00 0. -1.
        -11    1    3    3    0    0  0.38873410051E+02  0.23563849158E+02  0.13139913584E+03  0.13904002984E+03  0.00000000000E+00 0.  1.
         22    1    1    2    0    0 -0.35575922154E+01 -0.99638700789E+01  0.52291300381E+02  0.53350869392E+02  0.00000000000E+00 0.  1.
<mgrwt>
<rscale>  0 0.52742438E+02</rscale>
<asrwt>0</asrwt>
<pdfrwt beam="1">  1        4 0.17645487E-02 0.90098835E+02</pdfrwt>
<pdfrwt beam="2">  1       -4 0.36666476E-01 0.90098835E+02</pdfrwt>
<totfact> 0.12878019E+04</totfact>
</mgrwt>
</event>
<event>
 6    1  0.1535970E-002  0.9034479E+02  0.7546771E-02  0.1416620E+00
         -2   -1    0    0    0  501 -0.00000000000E+00  0.00000000000E+00  0.16457463779E+02  0.16457463779E+02  0.00000000000E+00 0. -1.
          2   -1    0    0  501    0  0.00000000000E+00 -0.00000000000E+00 -0.11147783051E+04  0.11147783051E+04  0.00000000000E+00 0.  1.
         23    2    1    2    0    0 -0.12102897536E+02  0.49943179207E+01 -0.11100121539E+04  0.11136827028E+04  0.89391036928E+02 0.  0.
         13    1    3    3    0    0 -0.79109958170E+01 -0.36814696525E+02 -0.26914168707E+03  0.27176304652E+03  0.00000000000E+00 0. -1.
        -13    1    3    3    0    0 -0.41919017189E+01  0.41809014446E+02 -0.84087046681E+03  0.84191965631E+03  0.00000000000E+00 0.  1.
         22    1    1    2    0    0  0.12102897536E+02 -0.49943179207E+01  0.11691312526E+02  0.17553066081E+02  0.00000000000E+00 0. -1.
<mgrwt>
<rscale>  0 0.55742453E+02</rscale>
<asrwt>0</asrwt>
<pdfrwt beam="1">  1        2 0.17150435E+00 0.90344789E+02</pdfrwt>
<pdfrwt beam="2">  1       -2 0.25319176E-02 0.90344789E+02</pdfrwt>
<totfact> 0.11486688E+04</totfact>
</mgrwt>
</event>
<event>
 6    1  0.1535970E-002  0.8987175E+02  0.7546771E-02  0.1425674E+00
          2   -1    0    0  501    0  0.00000000000E+00  0.00000000000E+00  0.17748663653E+04  0.17748663653E+04  0.00000000000E+00 0. -1.
         -2   -1    0    0    0  501 -0.00000000000E+00 -0.00000000000E+00 -0.16658139353E+01  0.16658139353E+01  0.00000000000E+00 0.  1.
         23    2    1    2    0    0 -0.40521447159E+01 -0.10841813391E+02  0.17041630465E+04  0.17065311659E+04  0.89123320360E+02 0.  0.
         13    1    3    3    0    0  0.22599194854E+02 -0.22890190542E+02  0.14936145826E+04  0.14939609117E+04  0.00000000000E+00 0. -1.
        -13    1    3    3    0    0 -0.26651339570E+02  0.12048377151E+02  0.21054846391E+03  0.21257025415E+03  0.00000000000E+00 0.  1.
         22    1    1    2    0    0  0.40521447159E+01  0.10841813391E+02  0.69037504894E+02  0.70001013396E+02  0.00000000000E+00 0.  1.
<mgrwt>
<rscale>  0 0.53838286E+02</rscale>
<asrwt>0</asrwt>
<pdfrwt beam="1">  1        2 0.27305485E+00 0.89871748E+02</pdfrwt>
<pdfrwt beam="2">  1       -2 0.25628049E-03 0.89871748E+02</pdfrwt>
<totfact> 0.13248679E+05</totfact>
</mgrwt>
</event>
<event>
 6    1  0.1535970E-002  0.7498613E+02  0.7546771E-02  0.1454958E+00
          1   -1    0    0  501    0  0.00000000000E+00  0.00000000000E+00  0.34889095224E+02  0.34889095224E+02  0.00000000000E+00 0. -1.
         -1   -1    0    0    0  501 -0.00000000000E+00 -0.00000000000E+00 -0.66338130837E+02  0.66338130837E+02  0.00000000000E+00 0.  1.
         23    2    1    2    0    0  0.11764899566E+02  0.52053859618E+01 -0.92294679089E+01  0.75551983244E+02  0.73874286389E+02 0.  0.
         13    1    3    3    0    0  0.98721596683E+01 -0.19050258607E+02 -0.34401430693E+02  0.40544177427E+02  0.00000000000E+00 0.  1.
        -13    1    3    3    0    0  0.18927398972E+01  0.24255644569E+02  0.25171962784E+02  0.35007805817E+02  0.00000000000E+00 0. -1.
         22    1    1    2    0    0 -0.11764899566E+02 -0.52053859618E+01 -0.22219567703E+02  0.25675242817E+02  0.00000000000E+00 0.  1.
<mgrwt>
<rscale>  0 0.48260116E+02</rscale>
<asrwt>0</asrwt>
<pdfrwt beam="1">  1        1 0.53675531E-02 0.74986126E+02</pdfrwt>
<pdfrwt beam="2">  1       -1 0.10205866E-01 0.74986126E+02</pdfrwt>
<totfact> 0.73163881E+04</totfact>
</mgrwt>
</event>
<event>
 6    1  0.1535970E-002  0.1345079E+03  0.7546771E-02  0.1243341E+00
         -2   -1    0    0    0  501 -0.00000000000E+00  0.00000000000E+00  0.17633730600E+03  0.17633730600E+03  0.00000000000E+00 0.  1.
          2   -1    0    0  501    0  0.00000000000E+00 -0.00000000000E+00 -0.68310820973E+02  0.68310820973E+02  0.00000000000E+00 0. -1.
         23    2    1    2    0    0  0.77674703182E+02 -0.33998863607E+02  0.61040998421E+02  0.14771042433E+03  0.10441783242E+03 0.  0.
         11    1    3    3    0    0  0.62739196953E+02 -0.28645830553E+02  0.90777599072E+02  0.11400597763E+03  0.00000000000E+00 0.  1.
        -11    1    3    3    0    0  0.14935506229E+02 -0.53530330539E+01 -0.29736600651E+02  0.33704446702E+02  0.00000000000E+00 0. -1.
         22    1    1    2    0    0 -0.77674703182E+02  0.33998863607E+02  0.46985486603E+02  0.96937702636E+02  0.00000000000E+00 0.  1.
<mgrwt>
<rscale>  0 0.11985232E+03</rscale>
<asrwt>0</asrwt>
<pdfrwt beam="1">  1        2 0.10509357E-01 0.13450787E+03</pdfrwt>
<pdfrwt beam="2">  1       -2 0.27128816E-01 0.13450787E+03</pdfrwt>
<totfact> 0.69832214E+03</totfact>
</mgrwt>
</event>
<event>
 6    1  0.1535970E-002  0.1001029E+03  0.7546771E-02  0.1315931E+00
         -3   -1    0    0    0  501 -0.00000000000E+00  0.00000000000E+00  0.23294291341E+02  0.23294291341E+02  0.00000000000E+00 0.  1.
          3   -1    0    0  501    0  0.00000000000E+00 -0.00000000000E+00 -0.26110734174E+03  0.26110734174E+03  0.00000000000E+00 0. -1.
         23    2    1    2    0    0 -0.26190886831E+02  0.44430224419E+02 -0.18639494790E+03  0.21157424359E+03  0.85793802545E+02 0.  0.
         13    1    3    3    0    0 -0.40710899926E+00 -0.22166798137E+02 -0.83028131040E+02  0.85937205105E+02  0.00000000000E+00 0. -1.
        -13    1    3    3    0    0 -0.25783777831E+02  0.66597022556E+02 -0.10336681686E+03  0.12563703849E+03  0.00000000000E+00 0.  1.
         22    1    1    2    0    0  0.26190886831E+02 -0.44430224419E+02 -0.51418102504E+02  0.72827389491E+02  0.00000000000E+00 0.  1.
<mgrwt>
<rscale>  0 0.84809644E+02</rscale>
<asrwt>0</asrwt>
<pdfrwt beam="1">  1        3 0.40170361E-01 0.10010287E+03</pdfrwt>
<pdfrwt beam="2">  1       -3 0.35837371E-02 0.10010287E+03</pdfrwt>
<totfact> 0.50819118E+03</totfact>
</mgrwt>
</event>
<event>
 6    1  0.1535970E-002  0.9398606E+02  0.7546771E-02  0.1371095E+00
          2   -1    0    0  501    0  0.00000000000E+00  0.00000000000E+00  0.39944049708E+02  0.39944049708E+02  0.00000000000E+00 0. -1.
         -2   -1    0    0    0  501 -0.00000000000E+00 -0.00000000000E+00 -0.93821869010E+02  0.93821869010E+02  0.00000000000E+00 0.  1.
         23    2    1    2    0    0 -0.22603071003E+02  0.82899952499E+01 -0.56317088046E+02  0.10956730570E+03  0.90850191151E+02 0.  0.
         13    1    3    3    0    0 -0.52909209845E+02 -0.12758433686E+02 -0.45979693538E+02  0.71248118111E+02  0.00000000000E+00 0. -1.
        -13    1    3    3    0    0  0.30306138842E+02  0.21048428936E+02 -0.10337394507E+02  0.38319187588E+02  0.00000000000E+00 0.  1.
         22    1    1    2    0    0  0.22603071003E+02 -0.82899952499E+01  0.24392687438E+01  0.24198613018E+02  0.00000000000E+00 0. -1.
<mgrwt>
<rscale>  0 0.66863758E+02</rscale>
<asrwt>0</asrwt>
<pdfrwt beam="1">  1        2 0.61452385E-02 0.93986063E+02</pdfrwt>
<pdfrwt beam="2">  1       -2 0.14434133E-01 0.93986063E+02</pdfrwt>
<totfact> 0.38016515E+04</totfact>
</mgrwt>
</event>
<event>
 6    1  0.1535970E-002  0.9278453E+02  0.7546771E-02  0.1406280E+00
          2   -1    0    0  501    0  0.00000000000E+00  0.00000000000E+00  0.38135142305E+03  0.38135142305E+03  0.00000000000E+00 0. -1.
         -2   -1    0    0    0  501 -0.00000000000E+00 -0.00000000000E+00 -0.75187796692E+01  0.75187796692E+01  0.00000000000E+00 0.  1.
         23    2    1    2    0    0  0.30701859221E+01  0.13862931607E+02  0.32994413000E+03  0.34274202780E+03  0.91691666942E+02 0.  0.
         13    1    3    3    0    0 -0.12107914790E+02  0.48312305455E+02  0.12858304724E+03  0.13789227860E+03  0.00000000000E+00 0. -1.
        -13    1    3    3    0    0  0.15178100712E+02 -0.34449373848E+02  0.20136108275E+03  0.20484974920E+03  0.00000000000E+00 0.  1.
         22    1    1    2    0    0 -0.30701859221E+01 -0.13862931607E+02  0.43888513381E+02  0.46128174916E+02  0.00000000000E+00 0. -1.
<mgrwt>
<rscale>  0 0.58032309E+02</rscale>
<asrwt>0</asrwt>
<pdfrwt beam="1">  1        2 0.58669435E-01 0.92784528E+02</pdfrwt>
<pdfrwt beam="2">  1       -2 0.11567356E-02 0.92784528E+02</pdfrwt>
<totfact> 0.12476775E+05</totfact>
</mgrwt>
</event>
<event>
 6    1  0.1535970E-002  0.9293686E+02  0.7546771E-02  0.1361407E+00
          2   -1    0    0  501    0  0.00000000000E+00  0.00000000000E+00  0.22317705774E+04  0.22317705774E+04  0.00000000000E+00 0. -1.
         -2   -1    0    0    0  501 -0.00000000000E+00 -0.00000000000E+00 -0.23256852150E+01  0.23256852150E+01  0.00000000000E+00 0.  1.
         23    2    1    2    0    0 -0.25093587207E+02 -0.15045041964E+02  0.20635006616E+04  0.20655924672E+04  0.88211216420E+02 0.  0.
         11    1    3    3    0    0 -0.37091453221E+02 -0.16452891030E+02  0.40096317371E+03  0.40301109191E+03  0.00000000000E+00 0. -1.
        -11    1    3    3    0    0  0.11997866014E+02  0.14078490654E+01  0.16625374879E+04  0.16625813753E+04  0.00000000000E+00 0.  1.
         22    1    1    2    0    0  0.25093587207E+02  0.15045041964E+02  0.16594423061E+03  0.16850379545E+03  0.00000000000E+00 0.  1.
<mgrwt>
<rscale>  0 0.69615003E+02</rscale>
<asrwt>0</asrwt>
<pdfrwt beam="1">  1        2 0.34334761E+00 0.92936861E+02</pdfrwt>
<pdfrwt beam="2">  1       -2 0.35779951E-03 0.92936861E+02</pdfrwt>
<totfact> 0.49147848E+04</totfact>
</mgrwt>
</event>
<event>
 6    1  0.1535970E-002  0.1013833E+03  0.7546771E-02  0.1323503E+00
         -2   -1    0    0    0  501 -0.00000000000E+00  0.00000000000E+00  0.25964121627E+02  0.25964121627E+02  0.00000000000E+00 0.  1.
          2   -1    0    0  501    0  0.00000000000E+00 -0.00000000000E+00 -0.30833688582E+03  0.30833688582E+03  0.00000000000E+00 0. -1.
         23    2    1    2    0    0 -0.32623642789E+02  0.28563838202E+02 -0.27118954524E+03  0.28952088565E+03  0.91642669432E+02 0.  0.
         11    1    3    3    0    0 -0.50012700246E+02  0.32111106588E+02 -0.92475138803E+02  0.10992745175E+03  0.00000000000E+00 0. -1.
        -11    1    3    3    0    0  0.17389057457E+02 -0.35472683864E+01 -0.17871440644E+03  0.17959343390E+03  0.00000000000E+00 0.  1.
         22    1    1    2    0    0  0.32623642789E+02 -0.28563838202E+02 -0.11183218953E+02  0.44780121793E+02  0.00000000000E+00 0.  1.
<mgrwt>
<rscale>  0 0.81987979E+02</rscale>
<asrwt>0</asrwt>
<pdfrwt beam="1">  1        2 0.47436442E-01 0.10138330E+03</pdfrwt>
<pdfrwt beam="2">  1       -2 0.39944804E-02 0.10138330E+03</pdfrwt>
<totfact> 0.26363965E+04</totfact>
</mgrwt>
</event>
<event>
 6    1  0.1535970E-002  0.9075545E+02  0.7546771E-02  0.1431732E+00
          1   -1    0    0  501    0  0.00000000000E+00  0.00000000000E+00  0.51545037346E+03  0.51545037346E+03  0.00000000000E+00 0.  1.
         -1   -1    0    0    0  501 -0.00000000000E+00 -0.00000000000E+00 -0.53947750353E+01  0.53947750353E+01  0.00000000000E+00 0. -1.
         23    2    1    2    0    0 -0.68390095727E+01 -0.76367150391E+01  0.48986600396E+03  0.49820202166E+03  0.90174614358E+02 0.  0.
         13    1    3    3    0    0  0.98020610661E+01  0.33203383073E+02  0.99458341869E+02  0.10531147523E+03  0.00000000000E+00 0. -1.
        -13    1    3    3    0    0 -0.16641070639E+02 -0.40840098112E+02  0.39040766210E+03  0.39289054642E+03  0.00000000000E+00 0.  1.
         22    1    1    2    0    0  0.68390095727E+01  0.76367150391E+01  0.20189594457E+02  0.22643126835E+02  0.00000000000E+00 0. -1.
<mgrwt>
<rscale>  0 0.52613899E+02</rscale>
<asrwt>0</asrwt>
<pdfrwt beam="1">  1        1 0.79300018E-01 0.90755455E+02</pdfrwt>
<pdfrwt beam="2">  1       -1 0.82996580E-03 0.90755455E+02</pdfrwt>
<totfact> 0.92774405E+04</totfact>
</mgrwt>
</event>
<event>
 6    1  0.1535970E-002  0.9266386E+02  0.7546771E-02  0.1350260E+00
          2   -1    0    0  501    0  0.00000000000E+00  0.00000000000E+00  0.14324155167E+04  0.14324155167E+04  0.00000000000E+00 0. -1.
         -2   -1    0    0    0  501 -0.00000000000E+00 -0.00000000000E+00 -0.47255382372E+01  0.47255382372E+01  0.00000000000E+00 0.  1.
         23    2    1    2    0    0  0.35275321384E+02 -0.50987634587E+01  0.13287483159E+04  0.13319754794E+04  0.85535051471E+02 0.  0.
         11    1    3    3    0    0 -0.43197480540E+01  0.30507763040E+02  0.79030837489E+03  0.79090878820E+03  0.00000000000E+00 0. -1.
        -11    1    3    3    0    0  0.39595069438E+02 -0.35606526499E+02  0.53843994097E+03  0.54106669116E+03  0.00000000000E+00 0.  1.
         22    1    1    2    0    0 -0.35275321384E+02  0.50987634587E+01  0.98941662590E+02  0.10516557556E+03  0.00000000000E+00 0.  1.
<mgrwt>
<rscale>  0 0.72974819E+02</rscale>
<asrwt>0</asrwt>
<pdfrwt beam="1">  1        2 0.22037127E+00 0.92663859E+02</pdfrwt>
<pdfrwt beam="2">  1       -2 0.72700702E-03 0.92663859E+02</pdfrwt>
<totfact> 0.46096164E+04</totfact>
</mgrwt>
</event>
<event>
 6    1  0.1535970E-002  0.1002200E+03  0.7546771E-02  0.1396824E+00
         -2   -1    0    0    0  501 -0.00000000000E+00  0.00000000000E+00  0.15713865774E+02  0.15713865774E+02  0.00000000000E+00 0.  1.
          2   -1    0    0  501    0  0.00000000000E+00 -0.00000000000E+00 -0.25641266535E+03  0.25641266535E+03  0.00000000000E+00 0. -1.
         23    2    1    2    0    0 -0.11802799825E+02 -0.56438254364E+01 -0.23870827150E+03  0.25889320005E+03  0.99362423983E+02 0.  0.
         11    1    3    3    0    0  0.27455719124E+02 -0.40315724329E+01 -0.14580538016E+02  0.31347442922E+02  0.00000000000E+00 0.  1.
        -11    1    3    3    0    0 -0.39258518949E+02 -0.16122530035E+01 -0.22412773349E+03  0.22754575713E+03  0.00000000000E+00 0. -1.
         22    1    1    2    0    0  0.11802799825E+02  0.56438254364E+01 -0.19905280729E+01  0.13233331073E+02  0.00000000000E+00 0. -1.
<mgrwt>
<rscale>  0 0.60240802E+02</rscale>
<asrwt>0</asrwt>
<pdfrwt beam="1">  1        2 0.39448097E-01 0.10022001E+03</pdfrwt>
<pdfrwt beam="2">  1       -2 0.24175181E-02 0.10022001E+03</pdfrwt>
<totfact> 0.66521536E+04</totfact>
</mgrwt>
</event>
<event>
 6    1  0.1535970E-002  0.9206285E+02  0.7546771E-02  0.1385367E+00
          2   -1    0    0  501    0  0.00000000000E+00  0.00000000000E+00  0.14174251443E+04  0.14174251443E+04  0.00000000000E+00 0. -1.
         -2   -1    0    0    0  501 -0.00000000000E+00 -0.00000000000E+00 -0.24865122458E+01  0.24865122458E+01  0.00000000000E+00 0.  1.
         23    2    1    2    0    0 -0.60138398503E+01  0.19371432568E+02  0.12951476106E+04  0.12984155352E+04  0.89800613920E+02 0.  0.
         11    1    3    3    0    0  0.33661073593E+02  0.17821257237E+02  0.98508377225E+03  0.98581981286E+03  0.00000000000E+00 0.  1.
        -11    1    3    3    0    0 -0.39674913443E+02  0.15501753310E+01  0.31006383833E+03  0.31259572237E+03  0.00000000000E+00 0. -1.
         22    1    1    2    0    0  0.60138398503E+01 -0.19371432568E+02  0.11979102148E+03  0.12149612132E+03  0.00000000000E+00 0. -1.
<mgrwt>
<rscale>  0 0.63073775E+02</rscale>
<asrwt>0</asrwt>
<pdfrwt beam="1">  1        2 0.21806476E+00 0.92062853E+02</pdfrwt>
<pdfrwt beam="2">  1       -2 0.38254148E-03 0.92062853E+02</pdfrwt>
<totfact> 0.11543028E+05</totfact>
</mgrwt>
</event>
<event>
 6    1  0.1535970E-002  0.9035303E+02  0.7546771E-02  0.1410539E+00
          1   -1    0    0  501    0  0.00000000000E+00  0.00000000000E+00  0.14229834435E+03  0.14229834435E+03  0.00000000000E+00 0. -1.
         -1   -1    0    0    0  501 -0.00000000000E+00 -0.00000000000E+00 -0.35611215911E+02  0.35611215911E+02  0.00000000000E+00 0.  1.
         23    2    1    2    0    0  0.14385105633E+02 -0.36230446133E-01  0.12524176196E+03  0.15443176219E+03  0.89200547415E+02 0.  0.
         11    1    3    3    0    0 -0.22636795696E+02  0.13438924102E+02  0.10845895726E+03  0.11160812968E+03  0.00000000000E+00 0. -1.
        -11    1    3    3    0    0  0.37021901329E+02 -0.13475154548E+02  0.16782804697E+02  0.42823632513E+02  0.00000000000E+00 0.  1.
         22    1    1    2    0    0 -0.14385105633E+02  0.36230446133E-01 -0.18554633524E+02  0.23477798064E+02  0.00000000000E+00 0.  1.
<mgrwt>
<rscale>  0 0.57073651E+02</rscale>
<asrwt>0</asrwt>
<pdfrwt beam="1">  1        1 0.21892053E-01 0.90353031E+02</pdfrwt>
<pdfrwt beam="2">  1       -1 0.54786487E-02 0.90353031E+02</pdfrwt>
<totfact> 0.30529256E+04</totfact>
</mgrwt>
</event>
<event>
 6    1  0.1535970E-002  0.9727087E+02  0.7546771E-02  0.1334158E+00
         -2   -1    0    0    0  501 -0.00000000000E+00  0.00000000000E+00  0.13640549171E+02  0.13640549171E+02  0.00000000000E+00 0. -1.
          2   -1    0    0  501    0  0.00000000000E+00 -0.00000000000E+00 -0.36020600394E+03  0.36020600394E+03  0.00000000000E+00 0.  1.
         23    2    1    2    0    0  0.11382304147E+02 -0.39065915380E+02 -0.27249043079E+03  0.28933139607E+03  0.88351113679E+02 0.  0.
         13    1    3    3    0    0 -0.66773023496E+01  0.26196870741E+02 -0.51018169697E+02  0.57738341183E+02  0.00000000000E+00 0. -1.
        -13    1    3    3    0    0  0.18059606496E+02 -0.65262786121E+02 -0.22147226109E+03  0.23159305489E+03  0.00000000000E+00 0.  1.
         22    1    1    2    0    0 -0.11382304147E+02  0.39065915380E+02 -0.74075023982E+02  0.84515157044E+02  0.00000000000E+00 0. -1.
<mgrwt>
<rscale>  0 0.78227578E+02</rscale>
<asrwt>0</asrwt>
<pdfrwt beam="1">  1        2 0.55416296E-01 0.97270869E+02</pdfrwt>
<pdfrwt beam="2">  1       -2 0.20985465E-02 0.97270869E+02</pdfrwt>
<totfact> 0.56905127E+04</totfact>
</mgrwt>
</event>
<event>
 6    1  0.1535970E-002  0.9161627E+02  0.7546771E-02  0.1429265E+00
         -2   -1    0    0    0  501 -0.00000000000E+00  0.00000000000E+00  0.29613459316E+01  0.29613459316E+01  0.00000000000E+00 0.  1.
          2   -1    0    0  501    0  0.00000000000E+00 -0.00000000000E+00 -0.90923410277E+03  0.90923410277E+03  0.00000000000E+00 0. -1.
         23    2    1    2    0    0  0.27122415686E+01 -0.99826929837E+01 -0.85464567975E+03  0.85954219142E+03  0.91030382316E+02 0.  0.
         11    1    3    3    0    0  0.22991900697E+02 -0.40491001700E+02 -0.64828701569E+03  0.64995707815E+03  0.00000000000E+00 0. -1.
        -11    1    3    3    0    0 -0.20279659129E+02  0.30508308716E+02 -0.20635866405E+03  0.20958511327E+03  0.00000000000E+00 0.  1.
         22    1    1    2    0    0 -0.27122415686E+01  0.99826929837E+01 -0.51627077092E+02  0.52653257284E+02  0.00000000000E+00 0. -1.
<mgrwt>
<rscale>  0 0.53107726E+02</rscale>
<asrwt>0</asrwt>
<pdfrwt beam="1">  1        2 0.13988233E+00 0.91616270E+02</pdfrwt>
<pdfrwt beam="2">  1       -2 0.45559115E-03 0.91616270E+02</pdfrwt>
<totfact> 0.17297682E+05</totfact>
</mgrwt>
</event>
<event>
 6    1  0.1535970E-002  0.9615716E+02  0.7546771E-02  0.1348192E+00
         -2   -1    0    0    0  501 -0.00000000000E+00  0.00000000000E+00  0.20332063391E+02  0.20332063391E+02  0.00000000000E+00 0.  1.
          2   -1    0    0  501    0  0.00000000000E+00 -0.00000000000E+00 -0.29113932612E+03  0.29113932612E+03  0.00000000000E+00 0. -1.
         23    2    1    2    0    0  0.23407295076E+02  0.23323043261E+02 -0.10489053527E+03  0.14229625463E+03  0.90301350401E+02 0.  0.
         11    1    3    3    0    0 -0.31207455288E+02 -0.88297622860E+01 -0.29901884954E+02  0.44113407161E+02  0.00000000000E+00 0. -1.
        -11    1    3    3    0    0  0.54614750364E+02  0.32152805547E+02 -0.74988650313E+02  0.98182847471E+02  0.00000000000E+00 0.  1.
         22    1    1    2    0    0 -0.23407295076E+02 -0.23323043261E+02 -0.16591672747E+03  0.16917513488E+03  0.00000000000E+00 0. -1.
<mgrwt>
<rscale>  0 0.73621962E+02</rscale>
<asrwt>0</asrwt>
<pdfrwt beam="1">  1        2 0.44790666E-01 0.96157161E+02</pdfrwt>
<pdfrwt beam="2">  1       -2 0.31280097E-02 0.96157161E+02</pdfrwt>
<totfact> 0.39828295E+04</totfact>
</mgrwt>
</event>
<event>
 6    1  0.1535970E-002  0.9104594E+02  0.7546771E-02  0.1422963E+00
          2   -1    0    0  501    0  0.00000000000E+00  0.00000000000E+00  0.10462461413E+02  0.10462461413E+02  0.00000000000E+00 0. -1.
         -2   -1    0    0    0  501 -0.00000000000E+00 -0.00000000000E+00 -0.25243236058E+03  0.25243236058E+03  0.00000000000E+00 0.  1.
         23    2    1    2    0    0 -0.44738046721E+01  0.10706166123E+02 -0.21012880722E+03  0.22900541277E+03  0.90303524470E+02 0.  0.
         13    1    3    3    0    0 -0.43946604715E+02  0.19248345152E+02 -0.14105843033E+03  0.14899424024E+03  0.00000000000E+00 0.  1.
        -13    1    3    3    0    0  0.39472800043E+02 -0.85421790291E+01 -0.69070376891E+02  0.80011172530E+02  0.00000000000E+00 0. -1.
         22    1    1    2    0    0  0.44738046721E+01 -0.10706166123E+02 -0.31841091950E+02  0.33889409229E+02  0.00000000000E+00 0. -1.
<mgrwt>
<rscale>  0 0.54399006E+02</rscale>
<asrwt>0</asrwt>
<pdfrwt beam="1">  1        2 0.16096095E-02 0.91045941E+02</pdfrwt>
<pdfrwt beam="2">  1       -2 0.38835747E-01 0.91045941E+02</pdfrwt>
<totfact> 0.40344439E+04</totfact>
</mgrwt>
</event>
<event>
 6    1  0.1535970E-002  0.9239156E+02  0.7546771E-02  0.1428007E+00
         -4   -1    0    0    0  501 -0.00000000000E+00  0.00000000000E+00  0.89588357831E+01  0.89588357831E+01  0.00000000000E+00 0.  1.
          4   -1    0    0  501    0  0.00000000000E+00 -0.00000000000E+00 -0.29655216844E+03  0.29655216844E+03  0.00000000000E+00 0. -1.
         23    2    1    2    0    0 -0.87108614790E+01  0.54609463101E+01 -0.24959323035E+03  0.26614466304E+03  0.91817754215E+02 0.  0.
         11    1    3    3    0    0 -0.31793083786E+02  0.36809150739E+02 -0.17942673877E+03  0.18590230859E+03  0.00000000000E+00 0. -1.
        -11    1    3    3    0    0  0.23082222307E+02 -0.31348204429E+02 -0.70166491580E+02  0.80242354453E+02  0.00000000000E+00 0.  1.
         22    1    1    2    0    0  0.87108614790E+01 -0.54609463101E+01 -0.38000102310E+02  0.39366341180E+02  0.00000000000E+00 0. -1.
<mgrwt>
<rscale>  0 0.53362252E+02</rscale>
<asrwt>0</asrwt>
<pdfrwt beam="1">  1        4 0.45623409E-01 0.92391564E+02</pdfrwt>
<pdfrwt beam="2">  1       -4 0.13782825E-02 0.92391564E+02</pdfrwt>
<totfact> 0.12297273E+04</totfact>
</mgrwt>
</event>
<event>
 6    1  0.1535970E-002  0.9370076E+02  0.7546771E-02  0.1373624E+00
          4   -1    0    0  501    0  0.00000000000E+00  0.00000000000E+00  0.20519937613E+03  0.20519937613E+03  0.00000000000E+00 0. -1.
         -4   -1    0    0    0  501 -0.00000000000E+00 -0.00000000000E+00 -0.26850765695E+02  0.26850765695E+02  0.00000000000E+00 0.  1.
         23    2    1    2    0    0  0.23070565836E+02  0.32844406180E+01  0.18537501908E+03  0.20771068874E+03  0.90756784646E+02 0.  0.
         13    1    3    3    0    0  0.22545681197E+01  0.44022953812E+02  0.61565679166E+02  0.75719458470E+02  0.00000000000E+00 0.  1.
        -13    1    3    3    0    0  0.20815997716E+02 -0.40738513194E+02  0.12380933991E+03  0.13199123027E+03  0.00000000000E+00 0. -1.
         22    1    1    2    0    0 -0.23070565836E+02 -0.32844406180E+01 -0.70264086443E+01  0.24339453088E+02  0.00000000000E+00 0.  1.
<mgrwt>
<rscale>  0 0.66170005E+02</rscale>
<asrwt>0</asrwt>
<pdfrwt beam="1">  1        4 0.31569134E-01 0.93700760E+02</pdfrwt>
<pdfrwt beam="2">  1       -4 0.41308871E-02 0.93700760E+02</pdfrwt>
<totfact> 0.46474009E+03</totfact>
</mgrwt>
</event>
<event>
 6    1  0.1535970E-002  0.8799431E+02  0.7546771E-02  0.1420909E+00
          4   -1    0    0  501    0  0.00000000000E+00  0.00000000000E+00  0.53943918674E+02  0.53943918674E+02  0.00000000000E+00 0. -1.
         -4   -1    0    0    0  501 -0.00000000000E+00 -0.00000000000E+00 -0.48072327621E+02  0.48072327621E+02  0.00000000000E+00 0.  1.
         23    2    1    2    0    0  0.13164196947E+02 -0.16245561181E+01  0.87984999628E+01  0.88433092773E+02  0.86988867288E+02 0.  0.
         13    1    3    3    0    0 -0.19195838961E+01  0.15347024208E+02 -0.35462094920E+02  0.38688191098E+02  0.00000000000E+00 0.  1.
        -13    1    3    3    0    0  0.15083780843E+02 -0.16971580326E+02  0.44260594883E+02  0.49744901675E+02  0.00000000000E+00 0. -1.
         22    1    1    2    0    0 -0.13164196947E+02  0.16245561181E+01 -0.29269089095E+01  0.13583153522E+02  0.00000000000E+00 0.  1.
<mgrwt>
<rscale>  0 0.54828965E+02</rscale>
<asrwt>0</asrwt>
<pdfrwt beam="1">  1        4 0.82990644E-02 0.87994308E+02</pdfrwt>
<pdfrwt beam="2">  1       -4 0.73957428E-02 0.87994308E+02</pdfrwt>
<totfact> 0.18598905E+04</totfact>
</mgrwt>
</event>
<event>
 6    1  0.1535970E-002  0.9237416E+02  0.7546771E-02  0.1405501E+00
          2   -1    0    0  501    0  0.00000000000E+00  0.00000000000E+00  0.36192458903E+03  0.36192458903E+03  0.00000000000E+00 0. -1.
         -2   -1    0    0    0  501 -0.00000000000E+00 -0.00000000000E+00 -0.83156670070E+01  0.83156670070E+01  0.00000000000E+00 0.  1.
         23    2    1    2    0    0  0.12633331010E+02 -0.72500345044E+01  0.32820504870E+03  0.34095679940E+03  0.91218534369E+02 0.  0.
         11    1    3    3    0    0  0.36717401283E+02 -0.28785442960E+02  0.27328059848E+03  0.27723465655E+03  0.00000000000E+00 0. -1.
        -11    1    3    3    0    0 -0.24084070273E+02  0.21535408456E+02  0.54924450221E+02  0.63722142858E+02  0.00000000000E+00 0.  1.
         22    1    1    2    0    0 -0.12633331010E+02  0.72500345044E+01  0.25403873316E+02  0.29283456630E+02  0.00000000000E+00 0.  1.
<mgrwt>
<rscale>  0 0.58209899E+02</rscale>
<asrwt>0</asrwt>
<pdfrwt beam="1">  1        2 0.55680694E-01 0.92374158E+02</pdfrwt>
<pdfrwt beam="2">  1       -2 0.12793337E-02 0.92374158E+02</pdfrwt>
<totfact> 0.11414941E+05</totfact>
</mgrwt>
</event>
<event>
 6    1  0.1535970E-002  0.9163885E+02  0.7546771E-02  0.1431125E+00
          1   -1    0    0  501    0  0.00000000000E+00  0.00000000000E+00  0.12474396495E+03  0.12474396495E+03  0.00000000000E+00 0. -1.
         -1   -1    0    0    0  501 -0.00000000000E+00 -0.00000000000E+00 -0.20916182684E+02  0.20916182684E+02  0.00000000000E+00 0.  1.
         23    2    1    2    0    0 -0.70326355391E+01 -0.71790929132E+01  0.97388891052E+02  0.13372462679E+03  0.91086126124E+02 0.  0.
         11    1    3    3    0    0  0.24685215184E+02  0.27964203593E+02  0.18295040964E+02  0.41545939093E+02  0.00000000000E+00 0.  1.
        -11    1    3    3    0    0 -0.31717850723E+02 -0.35143296506E+02  0.79093850088E+02  0.92178687697E+02  0.00000000000E+00 0. -1.
         22    1    1    2    0    0  0.70326355391E+01  0.71790929132E+01  0.64388912101E+01  0.11935520839E+02  0.00000000000E+00 0.  1.
<mgrwt>
<rscale>  0 0.52734943E+02</rscale>
<asrwt>0</asrwt>
<pdfrwt beam="1">  1        1 0.19191379E-01 0.91638855E+02</pdfrwt>
<pdfrwt beam="2">  1       -1 0.32178743E-02 0.91638855E+02</pdfrwt>
<totfact> 0.78251681E+04</totfact>
</mgrwt>
</event>
<event>
 6    1  0.1535970E-002  0.1056813E+03  0.7546771E-02  0.1303152E+00
          2   -1    0    0  501    0  0.00000000000E+00  0.00000000000E+00  0.15818867547E+04  0.15818867547E+04  0.00000000000E+00 0. -1.
         -2   -1    0    0    0  501 -0.00000000000E+00 -0.00000000000E+00 -0.55049712869E+01  0.55049712869E+01  0.00000000000E+00 0.  1.
         23    2    1    2    0    0 -0.34187649820E+02  0.43442777422E+02  0.13585637805E+04  0.13626680007E+04  0.90069218667E+02 0.  0.
         13    1    3    3    0    0 -0.29060339728E+02 -0.10017342175E+02  0.96120159792E+03  0.96169296677E+03  0.00000000000E+00 0. -1.
        -13    1    3    3    0    0 -0.51273100920E+01  0.53460119597E+02  0.39736218262E+03  0.40097503398E+03  0.00000000000E+00 0.  1.
         22    1    1    2    0    0  0.34187649820E+02 -0.43442777422E+02  0.21781800285E+03  0.22472372522E+03  0.00000000000E+00 0. -1.
<mgrwt>
<rscale>  0 0.89876052E+02</rscale>
<asrwt>0</asrwt>
<pdfrwt beam="1">  1        2 0.24336683E+00 0.10568129E+03</pdfrwt>
<pdfrwt beam="2">  1       -2 0.84691992E-03 0.10568129E+03</pdfrwt>
<totfact> 0.31494238E+04</totfact>
</mgrwt>
</event>
<event>
 6    1  0.1535970E-002  0.9109511E+02  0.7546771E-02  0.1429635E+00
          1   -1    0    0  501    0  0.00000000000E+00  0.00000000000E+00  0.75210484029E+03  0.75210484029E+03  0.00000000000E+00 0. -1.
         -1   -1    0    0    0  501 -0.00000000000E+00 -0.00000000000E+00 -0.35947185313E+01  0.35947185313E+01  0.00000000000E+00 0.  1.
         23    2    1    2    0    0 -0.73581618240E+01  0.74404736016E+01  0.70895970678E+03  0.71478820932E+03  0.90492072337E+02 0.  0.
         11    1    3    3    0    0 -0.38034104369E+02  0.27525616947E+02  0.53212362078E+03  0.53419079033E+03  0.00000000000E+00 0. -1.
        -11    1    3    3    0    0  0.30675942545E+02 -0.20085143345E+02  0.17683608600E+03  0.18059741899E+03  0.00000000000E+00 0.  1.
         22    1    1    2    0    0  0.73581618240E+01 -0.74404736016E+01  0.39550414985E+02  0.40911349505E+02  0.00000000000E+00 0.  1.
<mgrwt>
<rscale>  0 0.53033420E+02</rscale>
<asrwt>0</asrwt>
<pdfrwt beam="1">  1        1 0.11570831E+00 0.91095106E+02</pdfrwt>
<pdfrwt beam="2">  1       -1 0.55303422E-03 0.91095106E+02</pdfrwt>
<totfact> 0.98205632E+04</totfact>
</mgrwt>
</event>
<event>
 6    1  0.1535970E-002  0.9135344E+02  0.7546771E-02  0.1420826E+00
          4   -1    0    0  501    0  0.00000000000E+00  0.00000000000E+00  0.38202878394E+02  0.38202878394E+02  0.00000000000E+00 0. -1.
         -4   -1    0    0    0  501 -0.00000000000E+00 -0.00000000000E+00 -0.69728780519E+02  0.69728780519E+02  0.00000000000E+00 0.  1.
         23    2    1    2    0    0 -0.11369246507E+02  0.34087984840E+01 -0.28119553715E+02  0.95583262956E+02  0.90579088000E+02 0.  0.
         13    1    3    3    0    0 -0.39797838170E+02  0.11575689257E+02  0.14321758464E+02  0.43851764734E+02  0.00000000000E+00 0. -1.
        -13    1    3    3    0    0  0.28428591663E+02 -0.81668907731E+01 -0.42441312179E+02  0.51731498222E+02  0.00000000000E+00 0.  1.
         22    1    1    2    0    0  0.11369246507E+02 -0.34087984840E+01 -0.34063484097E+01  0.12348395958E+02  0.00000000000E+00 0.  1.
<mgrwt>
<rscale>  0 0.54846601E+02</rscale>
<asrwt>0</asrwt>
<pdfrwt beam="1">  1        4 0.58773659E-02 0.91353439E+02</pdfrwt>
<pdfrwt beam="2">  1       -4 0.10727505E-01 0.91353439E+02</pdfrwt>
<totfact> 0.17828458E+04</totfact>
</mgrwt>
</event>
<event>
 6    1  0.1535970E-002  0.9635335E+02  0.7546771E-02  0.1372205E+00
         -1   -1    0    0    0  501 -0.00000000000E+00  0.00000000000E+00  0.95055712092E+01  0.95055712092E+01  0.00000000000E+00 0.  1.
          1   -1    0    0  501    0  0.00000000000E+00 -0.00000000000E+00 -0.37178619378E+03  0.37178619378E+03  0.00000000000E+00 0. -1.
         23    2    1    2    0    0  0.16868291251E+02 -0.14026651383E+02 -0.27896927546E+03  0.29514034738E+03  0.93822608160E+02 0.  0.
         11    1    3    3    0    0  0.42179467154E+02 -0.24901730450E+02 -0.76715794986E+02  0.91019321186E+02  0.00000000000E+00 0.  1.
        -11    1    3    3    0    0 -0.25311175903E+02  0.10875079067E+02 -0.20225348047E+03  0.20412102619E+03  0.00000000000E+00 0. -1.
         22    1    1    2    0    0 -0.16868291251E+02  0.14026651383E+02 -0.83311347110E+02  0.86151417609E+02  0.00000000000E+00 0.  1.
<mgrwt>
<rscale>  0 0.66558042E+02</rscale>
<asrwt>0</asrwt>
<pdfrwt beam="1">  1        1 0.57197873E-01 0.96353350E+02</pdfrwt>
<pdfrwt beam="2">  1       -1 0.14623956E-02 0.96353350E+02</pdfrwt>
<totfact> 0.63396488E+04</totfact>
</mgrwt>
</event>
<event>
 6    1  0.1535970E-002  0.8830420E+02  0.7546771E-02  0.1407786E+00
          2   -1    0    0  501    0  0.00000000000E+00  0.00000000000E+00  0.31183634910E+03  0.31183634910E+03  0.00000000000E+00 0. -1.
         -2   -1    0    0    0  501 -0.00000000000E+00 -0.00000000000E+00 -0.91335184234E+01  0.91335184234E+01  0.00000000000E+00 0.  1.
         23    2    1    2    0    0 -0.15367628754E+02  0.47573901342E+01  0.27613999631E+03  0.28991538404E+03  0.86826468145E+02 0.  0.
         11    1    3    3    0    0  0.30717281725E+02  0.15891545534E+02  0.17268444912E+03  0.17611363259E+03  0.00000000000E+00 0. -1.
        -11    1    3    3    0    0 -0.46084910479E+02 -0.11134155400E+02  0.10345554719E+03  0.11380175145E+03  0.00000000000E+00 0.  1.
         22    1    1    2    0    0  0.15367628754E+02 -0.47573901342E+01  0.26562834368E+02  0.31054483477E+02  0.00000000000E+00 0. -1.
<mgrwt>
<rscale>  0 0.57690711E+02</rscale>
<asrwt>0</asrwt>
<pdfrwt beam="1">  1        2 0.47974815E-01 0.88304203E+02</pdfrwt>
<pdfrwt beam="2">  1       -2 0.14051569E-02 0.88304203E+02</pdfrwt>
<totfact> 0.11592085E+05</totfact>
</mgrwt>
</event>
<event>
 6    1  0.1535970E-002  0.9240028E+02  0.7546771E-02  0.1421319E+00
          2   -1    0    0  501    0  0.00000000000E+00  0.00000000000E+00  0.17430548477E+04  0.17430548477E+04  0.00000000000E+00 0.  1.
         -2   -1    0    0    0  501 -0.00000000000E+00 -0.00000000000E+00 -0.22939162342E+01  0.22939162342E+01  0.00000000000E+00 0. -1.
         23    2    1    2    0    0 -0.76833456146E+01 -0.83997959310E+01  0.17108720924E+04  0.17133654391E+04  0.91696350638E+02 0.  0.
         13    1    3    3    0    0  0.26209021042E+02 -0.11257769588E+00  0.16248108726E+03  0.16458137554E+03  0.00000000000E+00 0. -1.
        -13    1    3    3    0    0 -0.33892366657E+02 -0.82872182351E+01  0.15483910052E+04  0.15487840635E+04  0.00000000000E+00 0.  1.
         22    1    1    2    0    0  0.76833456146E+01  0.83997959310E+01  0.29888839057E+02  0.31983324900E+02  0.00000000000E+00 0. -1.
<mgrwt>
<rscale>  0 0.54742742E+02</rscale>
<asrwt>0</asrwt>
<pdfrwt beam="1">  1        2 0.26816123E+00 0.92400276E+02</pdfrwt>
<pdfrwt beam="2">  1       -2 0.35291158E-03 0.92400276E+02</pdfrwt>
<totfact> 0.88301634E+04</totfact>
</mgrwt>
</event>
<event>
 6    1  0.1535970E-002  0.9065983E+02  0.7546771E-02  0.1417473E+00
          1   -1    0    0  501    0  0.00000000000E+00  0.00000000000E+00  0.44573727912E+02  0.44573727912E+02  0.00000000000E+00 0. -1.
         -1   -1    0    0    0  501 -0.00000000000E+00 -0.00000000000E+00 -0.62615275569E+02  0.62615275569E+02  0.00000000000E+00 0.  1.
         23    2    1    2    0    0 -0.20325680902E+01  0.12624756272E+02 -0.81557442846E+01  0.91025930992E+02  0.89753485416E+02 0.  0.
         13    1    3    3    0    0  0.17635139949E+02 -0.29005406516E+02 -0.24829765985E+02  0.42057449364E+02  0.00000000000E+00 0.  1.
        -13    1    3    3    0    0 -0.19667708039E+02  0.41630162788E+02  0.16674021701E+02  0.48968481628E+02  0.00000000000E+00 0. -1.
         22    1    1    2    0    0  0.20325680902E+01 -0.12624756272E+02 -0.98858033723E+01  0.16163072489E+02  0.00000000000E+00 0.  1.
<mgrwt>
<rscale>  0 0.55559218E+02</rscale>
<asrwt>0</asrwt>
<pdfrwt beam="1">  1        1 0.68574967E-02 0.90659825E+02</pdfrwt>
<pdfrwt beam="2">  1       -1 0.96331192E-02 0.90659825E+02</pdfrwt>
<totfact> 0.59249023E+04</totfact>
</mgrwt>
</event>
<event>
 6    1  0.1535970E-002  0.9377090E+02  0.7546771E-02  0.1396055E+00
          2   -1    0    0  501    0  0.00000000000E+00  0.00000000000E+00  0.45449226734E+02  0.45449226734E+02  0.00000000000E+00 0. -1.
         -2   -1    0    0    0  501 -0.00000000000E+00 -0.00000000000E+00 -0.69355858372E+02  0.69355858372E+02  0.00000000000E+00 0.  1.
         23    2    1    2    0    0  0.39896701929E+01 -0.15668636188E+02 -0.11599904802E+02  0.94485657120E+02  0.92366433198E+02 0.  0.
         13    1    3    3    0    0 -0.29424831011E+02  0.20087089869E+02  0.15148273180E+02  0.38714106470E+02  0.00000000000E+00 0. -1.
        -13    1    3    3    0    0  0.33414501204E+02 -0.35755726057E+02 -0.26748177982E+02  0.55771550650E+02  0.00000000000E+00 0.  1.
         22    1    1    2    0    0 -0.39896701929E+01  0.15668636188E+02 -0.12306726836E+02  0.20319427985E+02  0.00000000000E+00 0.  1.
<mgrwt>
<rscale>  0 0.60425349E+02</rscale>
<asrwt>0</asrwt>
<pdfrwt beam="1">  1        2 0.69921888E-02 0.93770900E+02</pdfrwt>
<pdfrwt beam="2">  1       -2 0.10670132E-01 0.93770900E+02</pdfrwt>
<totfact> 0.52156139E+04</totfact>
</mgrwt>
</event>
<event>
 6    1  0.1535970E-002  0.1245936E+03  0.7546771E-02  0.1259998E+00
         -2   -1    0    0    0  501 -0.00000000000E+00  0.00000000000E+00  0.35481459263E+03  0.35481459263E+03  0.00000000000E+00 0.  1.
          2   -1    0    0  501    0  0.00000000000E+00 -0.00000000000E+00 -0.29166102224E+02  0.29166102224E+02  0.00000000000E+00 0. -1.
         23    2    1    2    0    0 -0.69149158978E+02  0.32843028701E+02  0.22886625292E+03  0.26058267131E+03  0.98302065796E+02 0.  0.
         13    1    3    3    0    0 -0.68305061440E+02 -0.10488410718E+02  0.19069357798E+03  0.20282906316E+03  0.00000000000E+00 0.  1.
        -13    1    3    3    0    0 -0.84409753853E+00  0.43331439419E+02  0.38172674939E+02  0.57753608154E+02  0.00000000000E+00 0. -1.
         22    1    1    2    0    0  0.69149158978E+02 -0.32843028701E+02  0.96782237487E+02  0.12339802354E+03  0.00000000000E+00 0. -1.
<mgrwt>
<rscale>  0 0.11030915E+03</rscale>
<asrwt>0</asrwt>
<pdfrwt beam="1">  1        2 0.44870929E-02 0.12459361E+03</pdfrwt>
<pdfrwt beam="2">  1       -2 0.54586857E-01 0.12459361E+03</pdfrwt>
<totfact> 0.54868572E+03</totfact>
</mgrwt>
</event>
<event>
 6    1  0.1535970E-002  0.9215478E+02  0.7546771E-02  0.1429162E+00
         -1   -1    0    0    0  501 -0.00000000000E+00  0.00000000000E+00  0.26603328915E+02  0.26603328915E+02  0.00000000000E+00 0.  1.
          1   -1    0    0  501    0  0.00000000000E+00 -0.00000000000E+00 -0.10503003560E+03  0.10503003560E+03  0.00000000000E+00 0. -1.
         23    2    1    2    0    0 -0.82050931371E+01 -0.60260928353E+01 -0.79077840075E+02  0.12143231933E+03  0.91590753013E+02 0.  0.
         13    1    3    3    0    0  0.15710883316E+02  0.36782970517E+02 -0.20201599475E+02  0.44809858245E+02  0.00000000000E+00 0. -1.
        -13    1    3    3    0    0 -0.23915976453E+02 -0.42809063352E+02 -0.58876240600E+02  0.76622461080E+02  0.00000000000E+00 0.  1.
         22    1    1    2    0    0  0.82050931371E+01  0.60260928353E+01  0.65113339050E+00  0.10201045189E+02  0.00000000000E+00 0. -1.
<mgrwt>
<rscale>  0 0.53128547E+02</rscale>
<asrwt>0</asrwt>
<pdfrwt beam="1">  1        1 0.16158467E-01 0.92154780E+02</pdfrwt>
<pdfrwt beam="2">  1       -1 0.40928199E-02 0.92154780E+02</pdfrwt>
<totfact> 0.68730121E+04</totfact>
</mgrwt>
</event>
<event>
 6    1  0.1535970E-002  0.1040395E+03  0.7546771E-02  0.1312290E+00
         -2   -1    0    0    0  501 -0.00000000000E+00  0.00000000000E+00  0.53201118879E+02  0.53201118879E+02  0.00000000000E+00 0.  1.
          2   -1    0    0  501    0  0.00000000000E+00 -0.00000000000E+00 -0.11321125627E+03  0.11321125627E+03  0.00000000000E+00 0. -1.
         23    2    1    2    0    0 -0.55799754169E+01 -0.48738454934E+02 -0.53302866893E+02  0.11689913861E+03  0.91747696830E+02 0.  0.
         11    1    3    3    0    0 -0.36433612206E+02 -0.59186848869E+02 -0.46497111500E+02  0.83621005467E+02  0.00000000000E+00 0. -1.
        -11    1    3    3    0    0  0.30853636789E+02  0.10448393936E+02 -0.68057553937E+01  0.33278133142E+02  0.00000000000E+00 0.  1.
         22    1    1    2    0    0  0.55799754169E+01  0.48738454934E+02 -0.67072704970E+01  0.49513236538E+02  0.00000000000E+00 0.  1.
<mgrwt>
<rscale>  0 0.86213149E+02</rscale>
<asrwt>0</asrwt>
<pdfrwt beam="1">  1        2 0.17417116E-01 0.10403948E+03</pdfrwt>
<pdfrwt beam="2">  1       -2 0.81847876E-02 0.10403948E+03</pdfrwt>
<totfact> 0.26644535E+04</totfact>
</mgrwt>
</event>
<event>
 6    1  0.1535970E-002  0.9400060E+02  0.7546771E-02  0.1396056E+00
         -1   -1    0    0    0  501 -0.00000000000E+00  0.00000000000E+00  0.43955556329E+02  0.43955556329E+02  0.00000000000E+00 0.  1.
          1   -1    0    0  501    0  0.00000000000E+00 -0.00000000000E+00 -0.68888533198E+02  0.68888533198E+02  0.00000000000E+00 0. -1.
         23    2    1    2    0    0 -0.10285321255E+02 -0.12321673318E+02 -0.21646841437E+02  0.96460861740E+02  0.92620195621E+02 0.  0.
         11    1    3    3    0    0  0.25636388744E+02  0.35956321113E+00 -0.44990378668E+02  0.51783084943E+02  0.00000000000E+00 0. -1.
        -11    1    3    3    0    0 -0.35921709998E+02 -0.12681236529E+02  0.23343537231E+02  0.44677776798E+02  0.00000000000E+00 0.  1.
         22    1    1    2    0    0  0.10285321255E+02  0.12321673318E+02 -0.32861354324E+01  0.16383227788E+02  0.00000000000E+00 0. -1.
<mgrwt>
<rscale>  0 0.60425271E+02</rscale>
<asrwt>0</asrwt>
<pdfrwt beam="1">  1        1 0.10598236E-01 0.94000596E+02</pdfrwt>
<pdfrwt beam="2">  1       -1 0.67623933E-02 0.94000596E+02</pdfrwt>
<totfact> 0.56848549E+04</totfact>
</mgrwt>
</event>
<event>
 6    1  0.1535970E-002  0.9223689E+02  0.7546771E-02  0.1419387E+00
          2   -1    0    0  501    0  0.00000000000E+00  0.00000000000E+00  0.13383920477E+03  0.13383920477E+03  0.00000000000E+00 0.  1.
         -2   -1    0    0    0  501 -0.00000000000E+00 -0.00000000000E+00 -0.45206124562E+02  0.45206124562E+02  0.00000000000E+00 0. -1.
         23    2    1    2    0    0  0.11372041725E+02  0.31091781005E+01  0.11661383300E+03  0.14868231155E+03  0.91480344325E+02 0.  0.
         13    1    3    3    0    0  0.18063040636E+02  0.95606167105E+01 -0.92802894777E+01  0.22445547481E+02  0.00000000000E+00 0. -1.
        -13    1    3    3    0    0 -0.66909989117E+01 -0.64514386100E+01  0.12589412248E+03  0.12623676407E+03  0.00000000000E+00 0.  1.
         22    1    1    2    0    0 -0.11372041725E+02 -0.31091781005E+01 -0.27980752800E+02  0.30363017780E+02  0.00000000000E+00 0. -1.
<mgrwt>
<rscale>  0 0.55150767E+02</rscale>
<asrwt>0</asrwt>
<pdfrwt beam="1">  1        2 0.20590647E-01 0.92236889E+02</pdfrwt>
<pdfrwt beam="2">  1       -2 0.69547884E-02 0.92236889E+02</pdfrwt>
<totfact> 0.27892407E+04</totfact>
</mgrwt>
</event>
<event>
 6    1  0.1535970E-002  0.9284287E+02  0.7546771E-02  0.1417483E+00
         -2   -1    0    0    0  501 -0.00000000000E+00  0.00000000000E+00  0.12165252645E+02  0.12165252645E+02  0.00000000000E+00 0.  1.
          2   -1    0    0  501    0  0.00000000000E+00 -0.00000000000E+00 -0.33835442243E+03  0.33835442243E+03  0.00000000000E+00 0. -1.
         23    2    1    2    0    0 -0.82266760899E+01  0.86045298272E+01 -0.32562464026E+03  0.33860183858E+03  0.92076504143E+02 0.  0.
         11    1    3    3    0    0 -0.28823240349E+02 -0.31128032244E+02 -0.10075551233E+03  0.10932249009E+03  0.00000000000E+00 0. -1.
        -11    1    3    3    0    0  0.20596564259E+02  0.39732562071E+02 -0.22486912793E+03  0.22927934849E+03  0.00000000000E+00 0.  1.
         22    1    1    2    0    0  0.82266760899E+01 -0.86045298272E+01 -0.56452952544E+00  0.11917836491E+02  0.00000000000E+00 0.  1.
<mgrwt>
<rscale>  0 0.55557006E+02</rscale>
<asrwt>0</asrwt>
<pdfrwt beam="1">  1        2 0.52054532E-01 0.92842871E+02</pdfrwt>
<pdfrwt beam="2">  1       -2 0.18715771E-02 0.92842871E+02</pdfrwt>
<totfact> 0.71193710E+04</totfact>
</mgrwt>
</event>
<event>
 6    1  0.1535970E-002  0.9326155E+02  0.7546771E-02  0.1401130E+00
         -2   -1    0    0    0  501 -0.00000000000E+00  0.00000000000E+00  0.79046073052E+01  0.79046073052E+01  0.00000000000E+00 0.  1.
          2   -1    0    0  501    0  0.00000000000E+00 -0.00000000000E+00 -0.52667133593E+03  0.52667133593E+03  0.00000000000E+00 0. -1.
         23    2    1    2    0    0  0.95425207753E+01 -0.11784173248E+02 -0.50666129784E+03  0.51517316260E+03  0.92020597105E+02 0.  0.
         11    1    3    3    0    0  0.42798193957E+02 -0.25755782952E+02 -0.38650277639E+03  0.38971713064E+03  0.00000000000E+00 0. -1.
        -11    1    3    3    0    0 -0.33255673182E+02  0.13971609704E+02 -0.12015852146E+03  0.12545603196E+03  0.00000000000E+00 0.  1.
         22    1    1    2    0    0 -0.95425207753E+01  0.11784173248E+02 -0.12105430781E+02  0.19402780632E+02  0.00000000000E+00 0. -1.
<mgrwt>
<rscale>  0 0.59220980E+02</rscale>
<asrwt>0</asrwt>
<pdfrwt beam="1">  1        2 0.81026369E-01 0.93261550E+02</pdfrwt>
<pdfrwt beam="2">  1       -2 0.12160933E-02 0.93261550E+02</pdfrwt>
<totfact> 0.82393008E+04</totfact>
</mgrwt>
</event>
<event>
 6    1  0.1535970E-002  0.9635304E+02  0.7546771E-02  0.1344144E+00
         -2   -1    0    0    0  501 -0.00000000000E+00  0.00000000000E+00  0.56047284539E+02  0.56047284539E+02  0.00000000000E+00 0.  1.
          2   -1    0    0  501    0  0.00000000000E+00 -0.00000000000E+00 -0.10463839610E+03  0.10463839610E+03  0.00000000000E+00 0. -1.
         23    2    1    2    0    0  0.32747480582E+02 -0.12924103175E+02 -0.70346837599E+02  0.11930039892E+03  0.89691012345E+02 0.  0.
         13    1    3    3    0    0 -0.37452245045E+01  0.15119454537E+02  0.15449848420E+02  0.21939061700E+02  0.00000000000E+00 0.  1.
        -13    1    3    3    0    0  0.36492705086E+02 -0.28043557712E+02 -0.85796686020E+02  0.97361337222E+02  0.00000000000E+00 0. -1.
         22    1    1    2    0    0 -0.32747480582E+02  0.12924103175E+02  0.21755726039E+02  0.41385281717E+02  0.00000000000E+00 0.  1.
<mgrwt>
<rscale>  0 0.74912071E+02</rscale>
<asrwt>0</asrwt>
<pdfrwt beam="1">  1        2 0.16098215E-01 0.96353036E+02</pdfrwt>
<pdfrwt beam="2">  1       -2 0.86226593E-02 0.96353036E+02</pdfrwt>
<totfact> 0.26673944E+04</totfact>
</mgrwt>
</event>
<event>
 6    1  0.1535970E-002  0.9008241E+02  0.7546771E-02  0.1410118E+00
          1   -1    0    0  501    0  0.00000000000E+00  0.00000000000E+00  0.59014359585E+03  0.59014359585E+03  0.00000000000E+00 0. -1.
         -1   -1    0    0    0  501 -0.00000000000E+00 -0.00000000000E+00 -0.54285602713E+01  0.54285602713E+01  0.00000000000E+00 0.  1.
         23    2    1    2    0    0 -0.83956394848E+01 -0.11957845402E+02  0.55704148575E+03  0.56427835179E+03  0.88889620489E+02 0.  0.
         13    1    3    3    0    0 -0.14982757759E+02 -0.25019427976E+02  0.54369405181E+03  0.54447559796E+03  0.00000000000E+00 0. -1.
        -13    1    3    3    0    0  0.65871182740E+01  0.13061582575E+02  0.13347433940E+02  0.19802753831E+02  0.00000000000E+00 0.  1.
         22    1    1    2    0    0  0.83956394848E+01  0.11957845402E+02  0.27673549831E+02  0.31293804327E+02  0.00000000000E+00 0.  1.
<mgrwt>
<rscale>  0 0.57167455E+02</rscale>
<asrwt>0</asrwt>
<pdfrwt beam="1">  1        1 0.90791272E-01 0.90082415E+02</pdfrwt>
<pdfrwt beam="2">  1       -1 0.83516359E-03 0.90082415E+02</pdfrwt>
<totfact> 0.76922585E+04</totfact>
</mgrwt>
</event>
<event>
 6    1  0.1535970E-002  0.9273223E+02  0.7546771E-02  0.1411272E+00
          4   -1    0    0  501    0  0.00000000000E+00  0.00000000000E+00  0.11749977920E+03  0.11749977920E+03  0.00000000000E+00 0.  1.
         -4   -1    0    0    0  501 -0.00000000000E+00 -0.00000000000E+00 -0.41699170527E+02  0.41699170527E+02  0.00000000000E+00 0. -1.
         23    2    1    2    0    0 -0.25960813463E+00 -0.13152455313E+02  0.97034808524E+02  0.13422004421E+03  0.91794399206E+02 0.  0.
         13    1    3    3    0    0  0.13975801149E+02 -0.20949475121E+02  0.11037437539E+03  0.11321089289E+03  0.00000000000E+00 0.  1.
        -13    1    3    3    0    0 -0.14235409283E+02  0.77970198076E+01 -0.13339566864E+02  0.21009151326E+02  0.00000000000E+00 0. -1.
         22    1    1    2    0    0  0.25960813463E+00  0.13152455313E+02 -0.21234199854E+02  0.24978905512E+02  0.00000000000E+00 0. -1.
<mgrwt>
<rscale>  0 0.56910956E+02</rscale>
<asrwt>0</asrwt>
<pdfrwt beam="1">  1        4 0.18076889E-01 0.92732229E+02</pdfrwt>
<pdfrwt beam="2">  1       -4 0.64152571E-02 0.92732229E+02</pdfrwt>
<totfact> 0.63371040E+03</totfact>
</mgrwt>
</event>
<event>
 6    1  0.1535970E-002  0.9368365E+02  0.7546771E-02  0.1396674E+00
          2   -1    0    0  501    0  0.00000000000E+00  0.00000000000E+00  0.46702898856E+03  0.46702898856E+03  0.00000000000E+00 0. -1.
         -2   -1    0    0    0  501 -0.00000000000E+00 -0.00000000000E+00 -0.66075110418E+01  0.66075110418E+01  0.00000000000E+00 0.  1.
         23    2    1    2    0    0  0.55830159603E+01  0.15052884088E+02  0.41554768429E+03  0.42597711747E+03  0.92297710167E+02 0.  0.
         13    1    3    3    0    0  0.29333606521E+02 -0.29085571359E+02  0.23490848635E+03  0.23851295120E+03  0.00000000000E+00 0. -1.
        -13    1    3    3    0    0 -0.23750590560E+02  0.44138455447E+02  0.18063919794E+03  0.18746416627E+03  0.00000000000E+00 0.  1.
         22    1    1    2    0    0 -0.55830159603E+01 -0.15052884088E+02  0.44873793231E+02  0.47659382135E+02  0.00000000000E+00 0.  1.
<mgrwt>
<rscale>  0 0.60276728E+02</rscale>
<asrwt>0</asrwt>
<pdfrwt beam="1">  1        2 0.71850588E-01 0.93683652E+02</pdfrwt>
<pdfrwt beam="2">  1       -2 0.10165405E-02 0.93683652E+02</pdfrwt>
<totfact> 0.12107779E+05</totfact>
</mgrwt>
</event>
<event>
 6    1  0.1535970E-002  0.9498890E+02  0.7546771E-02  0.1374058E+00
         -2   -1    0    0    0  501 -0.00000000000E+00  0.00000000000E+00  0.42693020535E+01  0.42693020535E+01  0.00000000000E+00 0.  1.
          2   -1    0    0  501    0  0.00000000000E+00 -0.00000000000E+00 -0.13670211315E+04  0.13670211315E+04  0.00000000000E+00 0. -1.
         23    2    1    2    0    0  0.84133978563E+01  0.20553369742E+02 -0.13171235991E+04  0.13205443827E+04  0.92356186175E+02 0.  0.
         11    1    3    3    0    0  0.40100696778E+02 -0.14566792847E+02 -0.41651100895E+03  0.41869043208E+03  0.00000000000E+00 0. -1.
        -11    1    3    3    0    0 -0.31687298921E+02  0.35120162588E+02 -0.90061259019E+03  0.90185395067E+03  0.00000000000E+00 0.  1.
         22    1    1    2    0    0 -0.84133978563E+01 -0.20553369742E+02 -0.45628230286E+02  0.50746050784E+02  0.00000000000E+00 0.  1.
<mgrwt>
<rscale>  0 0.66051917E+02</rscale>
<asrwt>0</asrwt>
<pdfrwt beam="1">  1        2 0.21031077E+00 0.94988901E+02</pdfrwt>
<pdfrwt beam="2">  1       -2 0.65681625E-03 0.94988901E+02</pdfrwt>
<totfact> 0.57651600E+04</totfact>
</mgrwt>
</event>
<event>
 6    1  0.1535970E-002  0.9053537E+02  0.7546771E-02  0.1415501E+00
          1   -1    0    0  501    0  0.00000000000E+00  0.00000000000E+00  0.11856329993E+03  0.11856329993E+03  0.00000000000E+00 0. -1.
         -1   -1    0    0    0  501 -0.00000000000E+00 -0.00000000000E+00 -0.23402916520E+02  0.23402916520E+02  0.00000000000E+00 0.  1.
         23    2    1    2    0    0  0.34098853534E+01  0.12790851326E+02  0.90284880345E+02  0.12785934841E+03  0.89562381398E+02 0.  0.
         13    1    3    3    0    0 -0.37273384573E+02 -0.49593253235E+00  0.72482941088E+02  0.81506612586E+02  0.00000000000E+00 0.  1.
        -13    1    3    3    0    0  0.40683269926E+02  0.13286783858E+02  0.17801939258E+02  0.46352735826E+02  0.00000000000E+00 0. -1.
         22    1    1    2    0    0 -0.34098853534E+01 -0.12790851326E+02  0.48755030691E+01  0.14106868041E+02  0.00000000000E+00 0.  1.
<mgrwt>
<rscale>  0 0.55984237E+02</rscale>
<asrwt>0</asrwt>
<pdfrwt beam="1">  1        1 0.18240507E-01 0.90535371E+02</pdfrwt>
<pdfrwt beam="2">  1       -1 0.36004488E-02 0.90535371E+02</pdfrwt>
<totfact> 0.70797363E+04</totfact>
</mgrwt>
</event>
<event>
 6    1  0.1535970E-002  0.9308714E+02  0.7546771E-02  0.1367125E+00
          3   -1    0    0  501    0  0.00000000000E+00  0.00000000000E+00  0.82304435320E+02  0.82304435320E+02  0.00000000000E+00 0. -1.
         -3   -1    0    0    0  501 -0.00000000000E+00 -0.00000000000E+00 -0.53226325611E+02  0.53226325611E+02  0.00000000000E+00 0.  1.
         23    2    1    2    0    0  0.18566629799E+02 -0.18859521095E+02  0.46289555425E+02  0.10396123224E+03  0.89245804326E+02 0.  0.
         13    1    3    3    0    0  0.17127004188E+02 -0.24077636451E+02  0.71926439636E+02  0.77759112445E+02  0.00000000000E+00 0. -1.
        -13    1    3    3    0    0  0.14396256107E+01  0.52181153565E+01 -0.25636884211E+02  0.26202119797E+02  0.00000000000E+00 0.  1.
         22    1    1    2    0    0 -0.18566629799E+02  0.18859521095E+02 -0.17211445716E+02  0.31569528689E+02  0.00000000000E+00 0.  1.
<mgrwt>
<rscale>  0 0.67972872E+02</rscale>
<asrwt>0</asrwt>
<pdfrwt beam="1">  1        3 0.12662221E-01 0.93087136E+02</pdfrwt>
<pdfrwt beam="2">  1       -3 0.81886655E-02 0.93087136E+02</pdfrwt>
<totfact> 0.10565778E+04</totfact>
</mgrwt>
</event>
<event>
 6    1  0.1535970E-002  0.9227405E+02  0.7546771E-02  0.1426409E+00
          2   -1    0    0  501    0  0.00000000000E+00  0.00000000000E+00  0.41754779306E+02  0.41754779306E+02  0.00000000000E+00 0. -1.
         -2   -1    0    0    0  501 -0.00000000000E+00 -0.00000000000E+00 -0.69192923402E+02  0.69192923402E+02  0.00000000000E+00 0.  1.
         23    2    1    2    0    0  0.75360283607E+01  0.74181610007E+01 -0.13201733585E+02  0.93213661421E+02  0.91666133713E+02 0.  0.
         11    1    3    3    0    0  0.17806713143E+01  0.16162061361E+02  0.37799969410E+02  0.41148763106E+02  0.00000000000E+00 0. -1.
        -11    1    3    3    0    0  0.57553570464E+01 -0.87439003604E+01 -0.51001702995E+02  0.52064898316E+02  0.00000000000E+00 0.  1.
         22    1    1    2    0    0 -0.75360283607E+01 -0.74181610007E+01 -0.14236410511E+02  0.17734041286E+02  0.00000000000E+00 0.  1.
<mgrwt>
<rscale>  0 0.53687730E+02</rscale>
<asrwt>0</asrwt>
<pdfrwt beam="1">  1        2 0.64238123E-02 0.92274053E+02</pdfrwt>
<pdfrwt beam="2">  1       -2 0.10645065E-01 0.92274053E+02</pdfrwt>
<totfact> 0.58123317E+04</totfact>
</mgrwt>
</event>
<event>
 6    1  0.1535970E-002  0.9444995E+02  0.7546771E-02  0.1392728E+00
         -2   -1    0    0    0  501 -0.00000000000E+00  0.00000000000E+00  0.35865174661E+01  0.35865174661E+01  0.00000000000E+00 0.  1.
          2   -1    0    0  501    0  0.00000000000E+00 -0.00000000000E+00 -0.17456846441E+04  0.17456846441E+04  0.00000000000E+00 0. -1.
         23    2    1    2    0    0  0.42848748994E+01 -0.16126214507E+02 -0.17139404916E+04  0.17165409407E+04  0.92964388027E+02 0.  0.
         11    1    3    3    0    0  0.34080602725E+02  0.49343190304E+01 -0.14096656347E+04  0.14100861806E+04  0.00000000000E+00 0. -1.
        -11    1    3    3    0    0 -0.29795727826E+02 -0.21060533538E+02 -0.30427485684E+03  0.30645476008E+03  0.00000000000E+00 0.  1.
         22    1    1    2    0    0 -0.42848748994E+01  0.16126214507E+02 -0.28157635107E+02  0.32730220929E+02  0.00000000000E+00 0.  1.
<mgrwt>
<rscale>  0 0.61233327E+02</rscale>
<asrwt>0</asrwt>
<pdfrwt beam="1">  1        2 0.26856699E+00 0.94449946E+02</pdfrwt>
<pdfrwt beam="2">  1       -2 0.55177167E-03 0.94449946E+02</pdfrwt>
<totfact> 0.47186781E+04</totfact>
</mgrwt>
</event>
<event>
 6    1  0.1535970E-002  0.8449858E+02  0.7546771E-02  0.1427897E+00
         -2   -1    0    0    0  501 -0.00000000000E+00  0.00000000000E+00  0.21471589793E+02  0.21471589793E+02  0.00000000000E+00 0.  1.
          2   -1    0    0  501    0  0.00000000000E+00 -0.00000000000E+00 -0.12166664862E+03  0.12166664862E+03  0.00000000000E+00 0. -1.
         23    2    1    2    0    0 -0.10374505722E+02 -0.85787061443E+01 -0.98165675408E+02  0.12952416609E+03  0.83419333526E+02 0.  0.
         13    1    3    3    0    0 -0.16772998607E+02  0.26876877835E+02 -0.85752041270E+02  0.91417244688E+02  0.00000000000E+00 0. -1.
        -13    1    3    3    0    0  0.63984928848E+01 -0.35455583979E+02 -0.12413634138E+02  0.38106921405E+02  0.00000000000E+00 0.  1.
         22    1    1    2    0    0  0.10374505722E+02  0.85787061443E+01 -0.20293834209E+01  0.13614072321E+02  0.00000000000E+00 0.  1.
<mgrwt>
<rscale>  0 0.53384378E+02</rscale>
<asrwt>0</asrwt>
<pdfrwt beam="1">  1        2 0.18717946E-01 0.84498579E+02</pdfrwt>
<pdfrwt beam="2">  1       -2 0.33033215E-02 0.84498579E+02</pdfrwt>
<totfact> 0.92444463E+04</totfact>
</mgrwt>
</event>
<event>
 6    1  0.1535970E-002  0.9268082E+02  0.7546771E-02  0.1406057E+00
         -2   -1    0    0    0  501 -0.00000000000E+00  0.00000000000E+00  0.88775812389E+01  0.88775812389E+01  0.00000000000E+00 0.  1.
          2   -1    0    0  501    0  0.00000000000E+00 -0.00000000000E+00 -0.32276341085E+03  0.32276341085E+03  0.00000000000E+00 0. -1.
         23    2    1    2    0    0 -0.17185881234E+01 -0.14192691013E+02 -0.27615469097E+03  0.29129220219E+03  0.91571544091E+02 0.  0.
         13    1    3    3    0    0 -0.17241613552E+02  0.94913442364E+01 -0.25546346992E+03  0.25622049746E+03  0.00000000000E+00 0. -1.
        -13    1    3    3    0    0  0.15523025428E+02 -0.23684035250E+02 -0.20691221049E+02  0.35071704730E+02  0.00000000000E+00 0.  1.
         22    1    1    2    0    0  0.17185881234E+01  0.14192691013E+02 -0.37731138636E+02  0.40348789897E+02  0.00000000000E+00 0. -1.
<mgrwt>
<rscale>  0 0.58082966E+02</rscale>
<asrwt>0</asrwt>
<pdfrwt beam="1">  1        2 0.49655909E-01 0.92680816E+02</pdfrwt>
<pdfrwt beam="2">  1       -2 0.13657817E-02 0.92680816E+02</pdfrwt>
<totfact> 0.11731541E+05</totfact>
</mgrwt>
</event>
<event>
 6    1  0.1535970E-002  0.9977835E+02  0.7546771E-02  0.1414153E+00
         -2   -1    0    0    0  501 -0.00000000000E+00  0.00000000000E+00  0.11601302623E+02  0.11601302623E+02  0.00000000000E+00 0.  1.
          2   -1    0    0  501    0  0.00000000000E+00 -0.00000000000E+00 -0.56632601383E+03  0.56632601383E+03  0.00000000000E+00 0. -1.
         23    2    1    2    0    0  0.70602248476E+01 -0.72192010470E+01 -0.55835250417E+03  0.56719770693E+03  0.99266087813E+02 0.  0.
         11    1    3    3    0    0  0.16414453302E+02 -0.45600190745E+02 -0.16798524734E+03  0.17483665233E+03  0.00000000000E+00 0.  1.
        -11    1    3    3    0    0 -0.93542284542E+01  0.38380989698E+02 -0.39036725683E+03  0.39236105460E+03  0.00000000000E+00 0. -1.
         22    1    1    2    0    0 -0.70602248476E+01  0.72192010470E+01  0.36277929691E+01  0.10729609521E+02  0.00000000000E+00 0. -1.
<mgrwt>
<rscale>  0 0.56277256E+02</rscale>
<asrwt>0</asrwt>
<pdfrwt beam="1">  1        2 0.87127067E-01 0.99778354E+02</pdfrwt>
<pdfrwt beam="2">  1       -2 0.17848160E-02 0.99778354E+02</pdfrwt>
<totfact> 0.44350032E+04</totfact>
</mgrwt>
</event>
<event>
 6    1  0.1535970E-002  0.9865861E+02  0.7546771E-02  0.1338318E+00
         -2   -1    0    0    0  501 -0.00000000000E+00  0.00000000000E+00  0.48585466782E+02  0.48585466782E+02  0.00000000000E+00 0. -1.
          2   -1    0    0  501    0  0.00000000000E+00 -0.00000000000E+00 -0.11408241595E+03  0.11408241595E+03  0.00000000000E+00 0.  1.
         23    2    1    2    0    0  0.15497567563E+02  0.32792800215E+02 -0.76413803834E+02  0.12479018399E+03  0.91749540911E+02 0.  0.
         11    1    3    3    0    0 -0.99758451321E+01  0.10113903181E+02  0.18850853788E+02  0.23604304950E+02  0.00000000000E+00 0. -1.
        -11    1    3    3    0    0  0.25473412695E+02  0.22678897034E+02 -0.95264657622E+02  0.10118587904E+03  0.00000000000E+00 0.  1.
         22    1    1    2    0    0 -0.15497567563E+02 -0.32792800215E+02  0.10916854665E+02  0.37877698744E+02  0.00000000000E+00 0. -1.
<mgrwt>
<rscale>  0 0.76822659E+02</rscale>
<asrwt>0</asrwt>
<pdfrwt beam="1">  1        2 0.17551141E-01 0.98658606E+02</pdfrwt>
<pdfrwt beam="2">  1       -2 0.74746872E-02 0.98658606E+02</pdfrwt>
<totfact> 0.30159697E+04</totfact>
</mgrwt>
</event>
<event>
 6    1  0.1535970E-002  0.9034616E+02  0.7546771E-02  0.1422158E+00
         -4   -1    0    0    0  501 -0.00000000000E+00  0.00000000000E+00  0.33207806961E+01  0.33207806961E+01  0.00000000000E+00 0.  1.
          4   -1    0    0  501    0  0.00000000000E+00 -0.00000000000E+00 -0.83403165655E+03  0.83403165655E+03  0.00000000000E+00 0. -1.
         23    2    1    2    0    0  0.12011347717E+02 -0.51394152636E+00 -0.78100870620E+03  0.78621690872E+03  0.89542681326E+02 0.  0.
         13    1    3    3    0    0 -0.29685404735E+02 -0.17887434889E+01 -0.11112663510E+03  0.11503717610E+03  0.00000000000E+00 0.  1.
        -13    1    3    3    0    0  0.41696752452E+02  0.12748019625E+01 -0.66988207110E+03  0.67117973261E+03  0.00000000000E+00 0. -1.
         22    1    1    2    0    0 -0.12011347717E+02  0.51394152636E+00 -0.49702169654E+02  0.51135528531E+02  0.00000000000E+00 0.  1.
<mgrwt>
<rscale>  0 0.54566928E+02</rscale>
<asrwt>0</asrwt>
<pdfrwt beam="1">  1        4 0.12831243E+00 0.90346159E+02</pdfrwt>
<pdfrwt beam="2">  1       -4 0.51088987E-03 0.90346159E+02</pdfrwt>
<totfact> 0.55954524E+03</totfact>
</mgrwt>
</event>
<event>
 6    1  0.1535970E-002  0.9097359E+02  0.7546771E-02  0.1387159E+00
          4   -1    0    0  501    0  0.00000000000E+00  0.00000000000E+00  0.13464456390E+02  0.13464456390E+02  0.00000000000E+00 0. -1.
         -4   -1    0    0    0  501 -0.00000000000E+00 -0.00000000000E+00 -0.26476640451E+03  0.26476640451E+03  0.00000000000E+00 0.  1.
         23    2    1    2    0    0  0.35481449519E+01 -0.20110290348E+02 -0.15446479680E+03  0.17926396246E+03  0.88652025793E+02 0.  0.
         13    1    3    3    0    0  0.30362292473E+02 -0.35903215404E+02 -0.13402098738E+03  0.14203004872E+03  0.00000000000E+00 0. -1.
        -13    1    3    3    0    0 -0.26814147522E+02  0.15792925056E+02 -0.20443809417E+02  0.37233913743E+02  0.00000000000E+00 0.  1.
         22    1    1    2    0    0 -0.35481449519E+01  0.20110290348E+02 -0.96837151323E+02  0.98966898440E+02  0.00000000000E+00 0.  1.
<mgrwt>
<rscale>  0 0.62618870E+02</rscale>
<asrwt>0</asrwt>
<pdfrwt beam="1">  1        4 0.20714551E-02 0.90973594E+02</pdfrwt>
<pdfrwt beam="2">  1       -4 0.40733287E-01 0.90973594E+02</pdfrwt>
<totfact> 0.82474952E+03</totfact>
</mgrwt>
</event>
<event>
 6    1  0.1535970E-002  0.9628104E+02  0.7546771E-02  0.1347207E+00
         -2   -1    0    0    0  501 -0.00000000000E+00  0.00000000000E+00  0.12459892326E+02  0.12459892326E+02  0.00000000000E+00 0.  1.
          2   -1    0    0  501    0  0.00000000000E+00 -0.00000000000E+00 -0.40977061626E+03  0.40977061626E+03  0.00000000000E+00 0. -1.
         23    2    1    2    0    0  0.29672399240E+02 -0.15497811621E+02 -0.35738823919E+03  0.37013023766E+03  0.90274059851E+02 0.  0.
         11    1    3    3    0    0  0.42357421808E+02 -0.33044295649E+02 -0.33386437880E+03  0.33815898641E+03  0.00000000000E+00 0. -1.
        -11    1    3    3    0    0 -0.12685022568E+02  0.17546484028E+02 -0.23523860384E+02  0.31971251252E+02  0.00000000000E+00 0.  1.
         22    1    1    2    0    0 -0.29672399240E+02  0.15497811621E+02 -0.39922484746E+02  0.52100270921E+02  0.00000000000E+00 0.  1.
<mgrwt>
<rscale>  0 0.73933036E+02</rscale>
<asrwt>0</asrwt>
<pdfrwt beam="1">  1        2 0.63041637E-01 0.96281043E+02</pdfrwt>
<pdfrwt beam="2">  1       -2 0.19169064E-02 0.96281043E+02</pdfrwt>
<totfact> 0.56518409E+04</totfact>
</mgrwt>
</event>
<event>
 6    1  0.1535970E-002  0.9175820E+02  0.7546771E-02  0.1428492E+00
          2   -1    0    0  501    0  0.00000000000E+00  0.00000000000E+00  0.38919439987E+03  0.38919439987E+03  0.00000000000E+00 0. -1.
         -2   -1    0    0    0  501 -0.00000000000E+00 -0.00000000000E+00 -0.10551056915E+02  0.10551056915E+02  0.00000000000E+00 0.  1.
         23    2    1    2    0    0 -0.46089120034E+01 -0.93434314941E+01  0.37835557745E+03  0.38932314462E+03  0.91164829667E+02 0.  0.
         11    1    3    3    0    0  0.18794742703E+02 -0.24879053887E+02  0.44775465896E+02  0.54562368183E+02  0.00000000000E+00 0.  1.
        -11    1    3    3    0    0 -0.23403654706E+02  0.15535622393E+02  0.33358011155E+03  0.33476077643E+03  0.00000000000E+00 0. -1.
         22    1    1    2    0    0  0.46089120034E+01  0.93434314941E+01  0.28776550985E+00  0.10422312168E+02  0.00000000000E+00 0.  1.
<mgrwt>
<rscale>  0 0.53263941E+02</rscale>
<asrwt>0</asrwt>
<pdfrwt beam="1">  1        2 0.59876050E-01 0.91758204E+02</pdfrwt>
<pdfrwt beam="2">  1       -2 0.16232398E-02 0.91758204E+02</pdfrwt>
<totfact> 0.75249568E+04</totfact>
</mgrwt>
</event>
<event>
 6    1  0.1535970E-002  0.9006658E+02  0.7546771E-02  0.1398524E+00
          4   -1    0    0  501    0  0.00000000000E+00  0.00000000000E+00  0.44616117440E+02  0.44616117440E+02  0.00000000000E+00 0. -1.
         -4   -1    0    0    0  501 -0.00000000000E+00 -0.00000000000E+00 -0.87836021623E+02  0.87836021623E+02  0.00000000000E+00 0.  1.
         23    2    1    2    0    0 -0.49858537648E+01 -0.16821076759E+02 -0.47748525447E+01  0.90193064812E+02  0.88341283454E+02 0.  0.
         13    1    3    3    0    0 -0.73553072282E+00 -0.49983483938E+02  0.13915767191E+02  0.51889673814E+02  0.00000000000E+00 0. -1.
        -13    1    3    3    0    0 -0.42503230420E+01  0.33162407179E+02 -0.18690619736E+02  0.38303390998E+02  0.00000000000E+00 0.  1.
         22    1    1    2    0    0  0.49858537648E+01  0.16821076759E+02 -0.38445051638E+02  0.42259074251E+02  0.00000000000E+00 0.  1.
<mgrwt>
<rscale>  0 0.59835324E+02</rscale>
<asrwt>0</asrwt>
<pdfrwt beam="1">  1        4 0.68640181E-02 0.90066585E+02</pdfrwt>
<pdfrwt beam="2">  1       -4 0.13513234E-01 0.90066585E+02</pdfrwt>
<totfact> 0.93370104E+03</totfact>
</mgrwt>
</event>
<event>
 6    1  0.1535970E-002  0.9389767E+02  0.7546771E-02  0.1380616E+00
          2   -1    0    0  501    0  0.00000000000E+00  0.00000000000E+00  0.34308475168E+02  0.34308475168E+02  0.00000000000E+00 0. -1.
         -2   -1    0    0    0  501 -0.00000000000E+00 -0.00000000000E+00 -0.11466293106E+03  0.11466293106E+03  0.00000000000E+00 0.  1.
         23    2    1    2    0    0  0.20453320664E+02  0.28492179840E+01 -0.36952826605E+02  0.10090730534E+03  0.91598670886E+02 0.  0.
         13    1    3    3    0    0  0.10273393471E+02  0.17976177290E+02  0.27217048909E+02  0.34197270573E+02  0.00000000000E+00 0. -1.
        -13    1    3    3    0    0  0.10179927193E+02 -0.15126959306E+02 -0.64169875513E+02  0.66710034769E+02  0.00000000000E+00 0.  1.
         22    1    1    2    0    0 -0.20453320664E+02 -0.28492179840E+01 -0.43401629291E+02  0.48064100890E+02  0.00000000000E+00 0.  1.
<mgrwt>
<rscale>  0 0.64302143E+02</rscale>
<asrwt>0</asrwt>
<pdfrwt beam="1">  1        2 0.52782269E-02 0.93897672E+02</pdfrwt>
<pdfrwt beam="2">  1       -2 0.17640451E-01 0.93897672E+02</pdfrwt>
<totfact> 0.33288905E+04</totfact>
</mgrwt>
</event>
<event>
 6    1  0.1535970E-002  0.9385728E+02  0.7546771E-02  0.1364825E+00
         -3   -1    0    0    0  501 -0.00000000000E+00  0.00000000000E+00  0.14032872584E+03  0.14032872584E+03  0.00000000000E+00 0.  1.
          3   -1    0    0  501    0  0.00000000000E+00 -0.00000000000E+00 -0.25948936617E+02  0.25948936617E+02  0.00000000000E+00 0. -1.
         23    2    1    2    0    0  0.19261893433E+02  0.18672967788E+02  0.88448317900E+02  0.12896625040E+03  0.89941584034E+02 0.  0.
         11    1    3    3    0    0  0.39323800813E+02  0.35117365301E+02  0.21086402809E+02  0.56782277512E+02  0.00000000000E+00 0. -1.
        -11    1    3    3    0    0 -0.20061907380E+02 -0.16444397512E+02  0.67361915091E+02  0.72183972888E+02  0.00000000000E+00 0.  1.
         22    1    1    2    0    0 -0.19261893433E+02 -0.18672967788E+02  0.25931471322E+02  0.37311412055E+02  0.00000000000E+00 0.  1.
<mgrwt>
<rscale>  0 0.68626986E+02</rscale>
<asrwt>0</asrwt>
<pdfrwt beam="1">  1        3 0.39921442E-02 0.93857279E+02</pdfrwt>
<pdfrwt beam="2">  1       -3 0.21589034E-01 0.93857279E+02</pdfrwt>
<totfact> 0.13217334E+04</totfact>
</mgrwt>
</event>
<event>
 6    1  0.1535970E-002  0.9153721E+02  0.7546771E-02  0.1427077E+00
          2   -1    0    0  501    0  0.00000000000E+00  0.00000000000E+00  0.51735108303E+03  0.51735108303E+03  0.00000000000E+00 0. -1.
         -2   -1    0    0    0  501 -0.00000000000E+00 -0.00000000000E+00 -0.51165288557E+01  0.51165288557E+01  0.00000000000E+00 0.  1.
         23    2    1    2    0    0 -0.50468522769E+01 -0.94602422457E+01  0.47401577469E+03  0.48277325452E+03  0.90907060922E+02 0.  0.
         13    1    3    3    0    0 -0.25281528394E+02 -0.61144289202E+01  0.45176122774E+03  0.45250939085E+03  0.00000000000E+00 0. -1.
        -13    1    3    3    0    0  0.20234676117E+02 -0.33458133255E+01  0.22254546950E+02  0.30263863671E+02  0.00000000000E+00 0.  1.
         22    1    1    2    0    0  0.50468522769E+01  0.94602422457E+01  0.38218779486E+02  0.39694357365E+02  0.00000000000E+00 0. -1.
<mgrwt>
<rscale>  0 0.53551280E+02</rscale>
<asrwt>0</asrwt>
<pdfrwt beam="1">  1        2 0.79592433E-01 0.91537209E+02</pdfrwt>
<pdfrwt beam="2">  1       -2 0.78715870E-03 0.91537209E+02</pdfrwt>
<totfact> 0.15509241E+05</totfact>
</mgrwt>
</event>
<event>
 6    1  0.1535970E-002  0.9254328E+02  0.7546771E-02  0.1392291E+00
         -2   -1    0    0    0  501 -0.00000000000E+00  0.00000000000E+00  0.23121620717E+02  0.23121620717E+02  0.00000000000E+00 0.  1.
          2   -1    0    0  501    0  0.00000000000E+00 -0.00000000000E+00 -0.73923823270E+03  0.73923823270E+03  0.00000000000E+00 0. -1.
         23    2    1    2    0    0 -0.78203871184E+01 -0.16060086365E+02 -0.73237921017E+03  0.73820293043E+03  0.90802941477E+02 0.  0.
         11    1    3    3    0    0  0.16108097509E+02 -0.37819303627E+02 -0.61724499279E+03  0.61861227894E+03  0.00000000000E+00 0. -1.
        -11    1    3    3    0    0 -0.23928484627E+02  0.21759217262E+02 -0.11513421738E+03  0.11959065149E+03  0.00000000000E+00 0.  1.
         22    1    1    2    0    0  0.78203871184E+01  0.16060086365E+02  0.16262598182E+02  0.24156922990E+02  0.00000000000E+00 0.  1.
<mgrwt>
<rscale>  0 0.61340448E+02</rscale>
<asrwt>0</asrwt>
<pdfrwt beam="1">  1        2 0.11372896E+00 0.92543282E+02</pdfrwt>
<pdfrwt beam="2">  1       -2 0.35571725E-02 0.92543282E+02</pdfrwt>
<totfact> 0.11949595E+04</totfact>
</mgrwt>
</event>
<event>
 6    1  0.1535970E-002  0.9260062E+02  0.7546771E-02  0.1424753E+00
          4   -1    0    0  501    0  0.00000000000E+00  0.00000000000E+00  0.95880557855E+02  0.95880557855E+02  0.00000000000E+00 0. -1.
         -4   -1    0    0    0  501 -0.00000000000E+00 -0.00000000000E+00 -0.30719344812E+02  0.30719344812E+02  0.00000000000E+00 0.  1.
         23    2    1    2    0    0 -0.49540279734E+01 -0.95186447008E+01  0.68698601978E+02  0.11530122528E+03  0.91976777766E+02 0.  0.
         11    1    3    3    0    0 -0.19155409503E+01 -0.46589424995E+02  0.61887811486E+02  0.77487708890E+02  0.00000000000E+00 0. -1.
        -11    1    3    3    0    0 -0.30384870231E+01  0.37070780294E+02  0.68107904918E+01  0.37813516394E+02  0.00000000000E+00 0.  1.
         22    1    1    2    0    0  0.49540279734E+01  0.95186447008E+01 -0.35373889349E+01  0.11298677382E+02  0.00000000000E+00 0.  1.
<mgrwt>
<rscale>  0 0.54027764E+02</rscale>
<asrwt>0</asrwt>
<pdfrwt beam="1">  1        4 0.14750855E-01 0.92600619E+02</pdfrwt>
<pdfrwt beam="2">  1       -4 0.47260531E-02 0.92600619E+02</pdfrwt>
<totfact> 0.14746675E+04</totfact>
</mgrwt>
</event>
<event>
 6    1  0.1535970E-002  0.9320854E+02  0.7546771E-02  0.1353420E+00
         -2   -1    0    0    0  501 -0.00000000000E+00  0.00000000000E+00  0.70937917096E+01  0.70937917096E+01  0.00000000000E+00 0.  1.
          2   -1    0    0  501    0  0.00000000000E+00 -0.00000000000E+00 -0.15223088284E+04  0.15223088284E+04  0.00000000000E+00 0. -1.
         23    2    1    2    0    0  0.17765076228E+02 -0.28032150865E+02 -0.14718364085E+04  0.14747848135E+04  0.87100133957E+02 0.  0.
         11    1    3    3    0    0 -0.14295576266E+02 -0.39485198180E+02 -0.12120330401E+04  0.12127602956E+04  0.00000000000E+00 0. -1.
        -11    1    3    3    0    0  0.32060652494E+02  0.11453047315E+02 -0.25980336835E+03  0.26202451782E+03  0.00000000000E+00 0.  1.
         22    1    1    2    0    0 -0.17765076228E+02  0.28032150865E+02 -0.43378628216E+02  0.54617806633E+02  0.00000000000E+00 0.  1.
<mgrwt>
<rscale>  0 0.72000398E+02</rscale>
<asrwt>0</asrwt>
<pdfrwt beam="1">  1        2 0.23420122E+00 0.93208544E+02</pdfrwt>
<pdfrwt beam="2">  1       -2 0.10913532E-02 0.93208544E+02</pdfrwt>
<totfact> 0.23352750E+04</totfact>
</mgrwt>
</event>
<event>
 6    1  0.1535970E-002  0.9067319E+02  0.7546771E-02  0.1414571E+00
          2   -1    0    0  501    0  0.00000000000E+00  0.00000000000E+00  0.58581066580E+03  0.58581066580E+03  0.00000000000E+00 0. -1.
         -2   -1    0    0    0  501 -0.00000000000E+00 -0.00000000000E+00 -0.99419102093E+01  0.99419102093E+01  0.00000000000E+00 0.  1.
         23    2    1    2    0    0 -0.10734031848E+02 -0.79683704215E+01  0.57526864128E+03  0.58237070379E+03  0.89682287163E+02 0.  0.
         13    1    3    3    0    0  0.14695360644E+02 -0.13329456725E+02  0.52845377801E+03  0.52882608061E+03  0.00000000000E+00 0. -1.
        -13    1    3    3    0    0 -0.25429392492E+02  0.53610863039E+01  0.46814863272E+02  0.53544623185E+02  0.00000000000E+00 0.  1.
         22    1    1    2    0    0  0.10734031848E+02  0.79683704215E+01  0.60011431432E+00  0.13381872219E+02  0.00000000000E+00 0.  1.
<mgrwt>
<rscale>  0 0.56186127E+02</rscale>
<asrwt>0</asrwt>
<pdfrwt beam="1">  1        2 0.90124691E-01 0.90673188E+02</pdfrwt>
<pdfrwt beam="2">  1       -2 0.15295251E-02 0.90673188E+02</pdfrwt>
<totfact> 0.52672036E+04</totfact>
</mgrwt>
</event>
<event>
 6    1  0.1535970E-002  0.9490550E+02  0.7546771E-02  0.1401497E+00
          1   -1    0    0  501    0  0.00000000000E+00  0.00000000000E+00  0.12745683145E+03  0.12745683145E+03  0.00000000000E+00 0. -1.
         -1   -1    0    0    0  501 -0.00000000000E+00 -0.00000000000E+00 -0.24626463831E+02  0.24626463831E+02  0.00000000000E+00 0.  1.
         23    2    1    2    0    0 -0.13115111411E+02  0.57140649022E+01  0.99277448991E+02  0.13734287751E+03  0.93821092729E+02 0.  0.
         11    1    3    3    0    0  0.15718944336E+02  0.41182983009E+02  0.26597295653E+02  0.51483389910E+02  0.00000000000E+00 0. -1.
        -11    1    3    3    0    0 -0.28834055747E+02 -0.35468918107E+02  0.72680153338E+02  0.85859487605E+02  0.00000000000E+00 0.  1.
         22    1    1    2    0    0  0.13115111411E+02 -0.57140649022E+01  0.35529186241E+01  0.14740417761E+02  0.00000000000E+00 0.  1.
<mgrwt>
<rscale>  0 0.59135297E+02</rscale>
<asrwt>0</asrwt>
<pdfrwt beam="1">  1        1 0.19608743E-01 0.94905501E+02</pdfrwt>
<pdfrwt beam="2">  1       -1 0.37886868E-02 0.94905501E+02</pdfrwt>
<totfact> 0.60432380E+04</totfact>
</mgrwt>
</event>
<event>
 6    1  0.1535970E-002  0.9367971E+02  0.7546771E-02  0.1401940E+00
         -2   -1    0    0    0  501 -0.00000000000E+00  0.00000000000E+00  0.13441478851E+03  0.13441478851E+03  0.00000000000E+00 0.  1.
          2   -1    0    0  501    0  0.00000000000E+00 -0.00000000000E+00 -0.22326963445E+02  0.22326963445E+02  0.00000000000E+00 0. -1.
         23    2    1    2    0    0 -0.91812484036E+01 -0.11571100688E+02  0.88265687706E+02  0.12871176941E+03  0.92507849743E+02 0.  0.
         11    1    3    3    0    0  0.14674751882E+02 -0.15574737685E+02  0.99689446553E+02  0.10196031851E+03  0.00000000000E+00 0.  1.
        -11    1    3    3    0    0 -0.23856000285E+02  0.40036369975E+01 -0.11423758847E+02  0.26751450896E+02  0.00000000000E+00 0. -1.
         22    1    1    2    0    0  0.91812484036E+01  0.11571100688E+02  0.23822137360E+02  0.28029982551E+02  0.00000000000E+00 0.  1.
<mgrwt>
<rscale>  0 0.59031992E+02</rscale>
<asrwt>0</asrwt>
<pdfrwt beam="1">  1        2 0.34349175E-02 0.93679709E+02</pdfrwt>
<pdfrwt beam="2">  1       -2 0.20679198E-01 0.93679709E+02</pdfrwt>
<totfact> 0.44709117E+04</totfact>
</mgrwt>
</event>
<event>
 6    1  0.1535970E-002  0.9593143E+02  0.7546771E-02  0.1355365E+00
         -1   -1    0    0    0  501 -0.00000000000E+00  0.00000000000E+00  0.38466478912E+02  0.38466478912E+02  0.00000000000E+00 0.  1.
          1   -1    0    0  501    0  0.00000000000E+00 -0.00000000000E+00 -0.10676472522E+03  0.10676472522E+03  0.00000000000E+00 0. -1.
         23    2    1    2    0    0 -0.18487102138E+02 -0.22929197304E+02 -0.64347273043E+02  0.11551368028E+03  0.91297961360E+02 0.  0.
         11    1    3    3    0    0 -0.44374289272E+02 -0.43546731920E+02 -0.48327137444E+02  0.78745841940E+02  0.00000000000E+00 0. -1.
        -11    1    3    3    0    0  0.25887187133E+02  0.20617534616E+02 -0.16020135599E+02  0.36767838336E+02  0.00000000000E+00 0.  1.
         22    1    1    2    0    0  0.18487102138E+02  0.22929197304E+02 -0.39509732674E+01  0.29717523858E+02  0.00000000000E+00 0.  1.
<mgrwt>
<rscale>  0 0.71409449E+02</rscale>
<asrwt>0</asrwt>
<pdfrwt beam="1">  1        1 0.16425342E-01 0.95931428E+02</pdfrwt>
<pdfrwt beam="2">  1       -1 0.59179199E-02 0.95931428E+02</pdfrwt>
<totfact> 0.39446701E+04</totfact>
</mgrwt>
</event>
<event>
 6    1  0.1535970E-002  0.8988381E+02  0.7546771E-02  0.1410323E+00
          2   -1    0    0  501    0  0.00000000000E+00  0.00000000000E+00  0.19967007475E+03  0.19967007475E+03  0.00000000000E+00 0. -1.
         -2   -1    0    0    0  501 -0.00000000000E+00 -0.00000000000E+00 -0.14950393068E+02  0.14950393068E+02  0.00000000000E+00 0.  1.
         23    2    1    2    0    0  0.57183769662E+01 -0.13499722099E+02  0.17583727098E+03  0.19747871902E+03  0.88680078200E+02 0.  0.
         13    1    3    3    0    0  0.36928750447E+02 -0.31089253682E+02  0.13382579736E+03  0.14226601260E+03  0.00000000000E+00 0. -1.
        -13    1    3    3    0    0 -0.31210373481E+02  0.17589531583E+02  0.42011473618E+02  0.55212706415E+02  0.00000000000E+00 0.  1.
         22    1    1    2    0    0 -0.57183769662E+01  0.13499722099E+02  0.88824107029E+01  0.17141748796E+02  0.00000000000E+00 0.  1.
<mgrwt>
<rscale>  0 0.57121728E+02</rscale>
<asrwt>0</asrwt>
<pdfrwt beam="1">  1        2 0.30718471E-01 0.89883806E+02</pdfrwt>
<pdfrwt beam="2">  1       -2 0.23000606E-02 0.89883806E+02</pdfrwt>
<totfact> 0.91739504E+04</totfact>
</mgrwt>
</event>
<event>
 6    1  0.1535970E-002  0.9507628E+02  0.7546771E-02  0.1364424E+00
         -2   -1    0    0    0  501 -0.00000000000E+00  0.00000000000E+00  0.45961892527E+01  0.45961892527E+01  0.00000000000E+00 0.  1.
          2   -1    0    0  501    0  0.00000000000E+00 -0.00000000000E+00 -0.82445155992E+03  0.82445155992E+03  0.00000000000E+00 0. -1.
         23    2    1    2    0    0 -0.21884156087E+02  0.14005332705E+02 -0.69859422948E+03  0.70503432250E+03  0.91457273169E+02 0.  0.
         13    1    3    3    0    0 -0.51656500535E+02 -0.13847344724E+02 -0.34962922577E+03  0.35369582768E+03  0.00000000000E+00 0. -1.
        -13    1    3    3    0    0  0.29772344448E+02  0.27852677428E+02 -0.34896500371E+03  0.35133849483E+03  0.00000000000E+00 0.  1.
         22    1    1    2    0    0  0.21884156087E+02 -0.14005332705E+02 -0.12126114119E+03  0.12401342667E+03  0.00000000000E+00 0.  1.
<mgrwt>
<rscale>  0 0.68742034E+02</rscale>
<asrwt>0</asrwt>
<pdfrwt beam="1">  1        2 0.12683857E+00 0.95076277E+02</pdfrwt>
<pdfrwt beam="2">  1       -2 0.70710679E-03 0.95076277E+02</pdfrwt>
<totfact> 0.10611750E+05</totfact>
</mgrwt>
</event>
<event>
 6    1  0.1535970E-002  0.9230850E+02  0.7546771E-02  0.1427803E+00
         -2   -1    0    0    0  501 -0.00000000000E+00  0.00000000000E+00  0.14602511411E+02  0.14602511411E+02  0.00000000000E+00 0.  1.
          2   -1    0    0  501    0  0.00000000000E+00 -0.00000000000E+00 -0.21160610330E+03  0.21160610330E+03  0.00000000000E+00 0. -1.
         23    2    1    2    0    0 -0.10340570488E+02 -0.63485845718E-01 -0.19490218856E+03  0.21565649055E+03  0.91727462521E+02 0.  0.
         13    1    3    3    0    0 -0.21092065958E+02  0.38121169413E+01 -0.20138147781E+03  0.20251890550E+03  0.00000000000E+00 0. -1.
        -13    1    3    3    0    0  0.10751495470E+02 -0.38756027870E+01  0.64792892425E+01  0.13137585048E+02  0.00000000000E+00 0.  1.
         22    1    1    2    0    0  0.10340570488E+02  0.63485845718E-01 -0.21014033307E+01  0.10552124167E+02  0.00000000000E+00 0.  1.
<mgrwt>
<rscale>  0 0.53403465E+02</rscale>
<asrwt>0</asrwt>
<pdfrwt beam="1">  1        2 0.32554782E-01 0.92308498E+02</pdfrwt>
<pdfrwt beam="2">  1       -2 0.22465404E-02 0.92308498E+02</pdfrwt>
<totfact> 0.89573680E+04</totfact>
</mgrwt>
</event>
<event>
 6    1  0.1535970E-002  0.9302969E+02  0.7546771E-02  0.1421848E+00
          1   -1    0    0  501    0  0.00000000000E+00  0.00000000000E+00  0.77367242788E+02  0.77367242788E+02  0.00000000000E+00 0. -1.
         -1   -1    0    0    0  501 -0.00000000000E+00 -0.00000000000E+00 -0.35301076136E+02  0.35301076136E+02  0.00000000000E+00 0.  1.
         23    2    1    2    0    0 -0.82629388790E+01 -0.73580415539E+01  0.40615817652E+02  0.10150944592E+03  0.92369399878E+02 0.  0.
         11    1    3    3    0    0  0.28048404049E+02 -0.11356793678E+02 -0.15924272816E+02  0.34194622341E+02  0.00000000000E+00 0.  1.
        -11    1    3    3    0    0 -0.36311342928E+02  0.39987521242E+01  0.56540090468E+02  0.67314823582E+02  0.00000000000E+00 0. -1.
         22    1    1    2    0    0  0.82629388790E+01  0.73580415539E+01  0.14503489997E+01  0.11158873001E+02  0.00000000000E+00 0. -1.
<mgrwt>
<rscale>  0 0.54631907E+02</rscale>
<asrwt>0</asrwt>
<pdfrwt beam="1">  1        1 0.11902653E-01 0.93029689E+02</pdfrwt>
<pdfrwt beam="2">  1       -1 0.54309348E-02 0.93029689E+02</pdfrwt>
<totfact> 0.67438445E+04</totfact>
</mgrwt>
</event>
<event>
 6    1  0.1535970E-002  0.1078507E+03  0.7546771E-02  0.1305945E+00
         -2   -1    0    0    0  501 -0.00000000000E+00  0.00000000000E+00  0.69511055207E+01  0.69511055207E+01  0.00000000000E+00 0.  1.
          2   -1    0    0  501    0  0.00000000000E+00 -0.00000000000E+00 -0.11121795876E+04  0.11121795876E+04  0.00000000000E+00 0. -1.
         23    2    1    2    0    0  0.49398454488E+02 -0.14738939117E+01 -0.95294684205E+03  0.95903048213E+03  0.95861369747E+02 0.  0.
         13    1    3    3    0    0 -0.13178320459E+02 -0.31929159543E+02 -0.20895896614E+03  0.21179468569E+03  0.00000000000E+00 0. -1.
        -13    1    3    3    0    0  0.62576774947E+02  0.30455265631E+02 -0.74398787591E+03  0.74723579643E+03  0.00000000000E+00 0.  1.
         22    1    1    2    0    0 -0.49398454488E+02  0.14738939117E+01 -0.15228163999E+03  0.16010021095E+03  0.00000000000E+00 0. -1.
<mgrwt>
<rscale>  0 0.88734803E+02</rscale>
<asrwt>0</asrwt>
<pdfrwt beam="1">  1        2 0.17110449E+00 0.10785074E+03</pdfrwt>
<pdfrwt beam="2">  1       -2 0.10694012E-02 0.10785074E+03</pdfrwt>
<totfact> 0.40217907E+04</totfact>
</mgrwt>
</event>
<event>
 6    1  0.1535970E-002  0.9668260E+02  0.7546771E-02  0.1347553E+00
          1   -1    0    0  501    0  0.00000000000E+00  0.00000000000E+00  0.58051426515E+03  0.58051426515E+03  0.00000000000E+00 0. -1.
         -1   -1    0    0    0  501 -0.00000000000E+00 -0.00000000000E+00 -0.83848400763E+01  0.83848400763E+01  0.00000000000E+00 0.  1.
         23    2    1    2    0    0  0.23793660951E+02  0.22671419602E+02  0.50481598387E+03  0.51399095523E+03  0.90925205120E+02 0.  0.
         11    1    3    3    0    0  0.55679105832E+02 -0.20074012583E+01  0.32163423054E+03  0.32642421898E+03  0.00000000000E+00 0. -1.
        -11    1    3    3    0    0 -0.31885444881E+02  0.24678820860E+02  0.18318175333E+03  0.18756673625E+03  0.00000000000E+00 0.  1.
         22    1    1    2    0    0 -0.23793660951E+02 -0.22671419602E+02  0.67313441205E+02  0.74908149991E+02  0.00000000000E+00 0.  1.
<mgrwt>
<rscale>  0 0.73823701E+02</rscale>
<asrwt>0</asrwt>
<pdfrwt beam="1">  1        1 0.89309855E-01 0.96682597E+02</pdfrwt>
<pdfrwt beam="2">  1       -1 0.12899759E-02 0.96682597E+02</pdfrwt>
<totfact> 0.42934793E+04</totfact>
</mgrwt>
</event>
<event>
 6    1  0.1535970E-002  0.1005808E+03  0.7546771E-02  0.1388263E+00
         -1   -1    0    0    0  501 -0.00000000000E+00  0.00000000000E+00  0.79109204046E+02  0.79109204046E+02  0.00000000000E+00 0.  1.
          1   -1    0    0  501    0  0.00000000000E+00 -0.00000000000E+00 -0.49868217450E+02  0.49868217450E+02  0.00000000000E+00 0. -1.
         23    2    1    2    0    0 -0.28493964721E+01 -0.14567761590E+02  0.51900981475E+01  0.10071465494E+03  0.99479474586E+02 0.  0.
         13    1    3    3    0    0  0.12992540578E+01 -0.22612512992E+02 -0.44646259369E+02  0.50062983137E+02  0.00000000000E+00 0. -1.
        -13    1    3    3    0    0 -0.41486505300E+01  0.80447514017E+01  0.49836357517E+02  0.50651671807E+02  0.00000000000E+00 0.  1.
         22    1    1    2    0    0  0.28493964721E+01  0.14567761590E+02  0.24050888449E+02  0.28262766552E+02  0.00000000000E+00 0.  1.
<mgrwt>
<rscale>  0 0.62340860E+02</rscale>
<asrwt>0</asrwt>
<pdfrwt beam="1">  1        1 0.76720335E-02 0.10058084E+03</pdfrwt>
<pdfrwt beam="2">  1       -1 0.12170647E-01 0.10058084E+03</pdfrwt>
<totfact> 0.36278314E+04</totfact>
</mgrwt>
</event>
<event>
 6    1  0.1535970E-002  0.9470850E+02  0.7546771E-02  0.1399816E+00
          4   -1    0    0  501    0  0.00000000000E+00  0.00000000000E+00  0.64975504723E+02  0.64975504723E+02  0.00000000000E+00 0. -1.
         -4   -1    0    0    0  501 -0.00000000000E+00 -0.00000000000E+00 -0.46273036302E+02  0.46273036302E+02  0.00000000000E+00 0.  1.
         23    2    1    2    0    0 -0.13523634491E+02 -0.59713877011E+01  0.18296666767E+02  0.96459665614E+02  0.93547597055E+02 0.  0.
         11    1    3    3    0    0  0.12399897895E+02  0.33410033129E+01  0.51638389589E+02  0.53211305663E+02  0.00000000000E+00 0. -1.
        -11    1    3    3    0    0 -0.25923532387E+02 -0.93123910140E+01 -0.33341722822E+02  0.43248359952E+02  0.00000000000E+00 0.  1.
         22    1    1    2    0    0  0.13523634491E+02  0.59713877011E+01  0.40580165331E+00  0.14788875411E+02  0.00000000000E+00 0.  1.
<mgrwt>
<rscale>  0 0.59529824E+02</rscale>
<asrwt>0</asrwt>
<pdfrwt beam="1">  1        4 0.99962316E-02 0.94708495E+02</pdfrwt>
<pdfrwt beam="2">  1       -4 0.71189286E-02 0.94708495E+02</pdfrwt>
<totfact> 0.14874735E+04</totfact>
</mgrwt>
</event>
<event>
 6    1  0.1535970E-002  0.8309177E+02  0.7546771E-02  0.1440640E+00
         -2   -1    0    0    0  501 -0.00000000000E+00  0.00000000000E+00  0.13181984749E+02  0.13181984749E+02  0.00000000000E+00 0. -1.
          2   -1    0    0  501    0  0.00000000000E+00 -0.00000000000E+00 -0.17091484713E+03  0.17091484713E+03  0.00000000000E+00 0.  1.
         23    2    1    2    0    0 -0.10953182799E+02 -0.40674833667E+01 -0.14156492101E+03  0.16414892566E+03  0.82266191723E+02 0.  0.
         13    1    3    3    0    0 -0.45091467395E+02 -0.12031962618E+02 -0.65829180937E+02  0.80693801615E+02  0.00000000000E+00 0. -1.
        -13    1    3    3    0    0  0.34138284597E+02  0.79644792515E+01 -0.75735740076E+02  0.83455124048E+02  0.00000000000E+00 0.  1.
         22    1    1    2    0    0  0.10953182799E+02  0.40674833667E+01 -0.16167941370E+02  0.19947906218E+02  0.00000000000E+00 0. -1.
<mgrwt>
<rscale>  0 0.50882298E+02</rscale>
<asrwt>0</asrwt>
<pdfrwt beam="1">  1        2 0.26294591E-01 0.83091774E+02</pdfrwt>
<pdfrwt beam="2">  1       -2 0.20279977E-02 0.83091774E+02</pdfrwt>
<totfact> 0.12828193E+05</totfact>
</mgrwt>
</event>
<event>
 6    1  0.1535970E-002  0.8799922E+02  0.7546771E-02  0.1430720E+00
          2   -1    0    0  501    0  0.00000000000E+00  0.00000000000E+00  0.82018231651E+03  0.82018231651E+03  0.00000000000E+00 0. -1.
         -2   -1    0    0    0  501 -0.00000000000E+00 -0.00000000000E+00 -0.51094322703E+01  0.51094322703E+01  0.00000000000E+00 0.  1.
         23    2    1    2    0    0 -0.10742114835E+02 -0.38722823435E+01  0.80577592847E+03  0.81056690623E+03  0.87255228888E+02 0.  0.
         11    1    3    3    0    0  0.95555222784E+00 -0.35969057931E+02  0.65420900623E+03  0.65519776407E+03  0.00000000000E+00 0. -1.
        -11    1    3    3    0    0 -0.11697667062E+02  0.32096775588E+02  0.15156692224E+03  0.15536914215E+03  0.00000000000E+00 0.  1.
         22    1    1    2    0    0  0.10742114835E+02  0.38722823435E+01  0.92969557746E+01  0.14724842557E+02  0.00000000000E+00 0.  1.
<mgrwt>
<rscale>  0 0.52815774E+02</rscale>
<asrwt>0</asrwt>
<pdfrwt beam="1">  1        2 0.12618179E+00 0.87999219E+02</pdfrwt>
<pdfrwt beam="2">  1       -2 0.78606715E-03 0.87999219E+02</pdfrwt>
<totfact> 0.91051536E+04</totfact>
</mgrwt>
</event>
<event>
 6    1  0.1535970E-002  0.9502553E+02  0.7546771E-02  0.1361301E+00
         -2   -1    0    0    0  501 -0.00000000000E+00  0.00000000000E+00  0.70282256207E+01  0.70282256207E+01  0.00000000000E+00 0.  1.
          2   -1    0    0  501    0  0.00000000000E+00 -0.00000000000E+00 -0.60584919070E+03  0.60584919070E+03  0.00000000000E+00 0. -1.
         23    2    1    2    0    0  0.26635643232E+02 -0.65098941351E+01 -0.53563068320E+03  0.54399455970E+03  0.90983602848E+02 0.  0.
         13    1    3    3    0    0 -0.21450848199E+02 -0.34158649743E+01 -0.38989083251E+03  0.39049541393E+03  0.00000000000E+00 0. -1.
        -13    1    3    3    0    0  0.48086491431E+02 -0.30940291607E+01 -0.14573985069E+03  0.15349914577E+03  0.00000000000E+00 0.  1.
         22    1    1    2    0    0 -0.26635643232E+02  0.65098941351E+01 -0.63190281875E+02  0.68882856615E+02  0.00000000000E+00 0.  1.
<mgrwt>
<rscale>  0 0.69645915E+02</rscale>
<asrwt>0</asrwt>
<pdfrwt beam="1">  1        2 0.93207589E-01 0.95025534E+02</pdfrwt>
<pdfrwt beam="2">  1       -2 0.10812652E-02 0.95025534E+02</pdfrwt>
<totfact> 0.83595290E+04</totfact>
</mgrwt>
</event>
<event>
 6    1  0.1535970E-002  0.9034867E+02  0.7546771E-02  0.1419679E+00
          2   -1    0    0  501    0  0.00000000000E+00  0.00000000000E+00  0.41196898450E+03  0.41196898450E+03  0.00000000000E+00 0. -1.
         -2   -1    0    0    0  501 -0.00000000000E+00 -0.00000000000E+00 -0.77531429464E+01  0.77531429464E+01  0.00000000000E+00 0.  1.
         23    2    1    2    0    0  0.26218366554E+01  0.12209519827E+02  0.39191163630E+03  0.40219101599E+03  0.89481485670E+02 0.  0.
         11    1    3    3    0    0 -0.38784674242E+02 -0.13806030456E+02  0.19497126493E+03  0.19927029779E+03  0.00000000000E+00 0. -1.
        -11    1    3    3    0    0  0.41406510898E+02  0.26015550283E+02  0.19694037136E+03  0.20292071820E+03  0.00000000000E+00 0.  1.
         22    1    1    2    0    0 -0.26218366554E+01 -0.12209519827E+02  0.12304205257E+02  0.17531111455E+02  0.00000000000E+00 0.  1.
<mgrwt>
<rscale>  0 0.55088792E+02</rscale>
<asrwt>0</asrwt>
<pdfrwt beam="1">  1        2 0.63379827E-01 0.90348673E+02</pdfrwt>
<pdfrwt beam="2">  1       -2 0.11927915E-02 0.90348673E+02</pdfrwt>
<totfact> 0.10968200E+05</totfact>
</mgrwt>
</event>
<event>
 6    1  0.1535970E-002  0.9293697E+02  0.7546771E-02  0.1399589E+00
          2   -1    0    0  501    0  0.00000000000E+00  0.00000000000E+00  0.77802234533E+03  0.77802234533E+03  0.00000000000E+00 0. -1.
         -2   -1    0    0    0  501 -0.00000000000E+00 -0.00000000000E+00 -0.45978830904E+01  0.45978830904E+01  0.00000000000E+00 0.  1.
         23    2    1    2    0    0 -0.39610493079E+01  0.15193270111E+02  0.73854722334E+03  0.74437173615E+03  0.91601064925E+02 0.  0.
         13    1    3    3    0    0 -0.31558913441E+02  0.43275907124E+02  0.42293169966E+03  0.42630973685E+03  0.00000000000E+00 0. -1.
        -13    1    3    3    0    0  0.27597864133E+02 -0.28082637014E+02  0.31561552368E+03  0.31806199930E+03  0.00000000000E+00 0.  1.
         22    1    1    2    0    0  0.39610493079E+01 -0.15193270111E+02  0.34877238893E+02  0.38248492272E+02  0.00000000000E+00 0.  1.
<mgrwt>
<rscale>  0 0.59583236E+02</rscale>
<asrwt>0</asrwt>
<pdfrwt beam="1">  1        2 0.11969564E+00 0.92936970E+02</pdfrwt>
<pdfrwt beam="2">  1       -2 0.70736725E-03 0.92936970E+02</pdfrwt>
<totfact> 0.11350995E+05</totfact>
</mgrwt>
</event>
<event>
 6    1  0.1535970E-002  0.9285859E+02  0.7546771E-02  0.1409824E+00
         -2   -1    0    0    0  501 -0.00000000000E+00  0.00000000000E+00  0.23418619942E+01  0.23418619942E+01  0.00000000000E+00 0.  1.
          2   -1    0    0  501    0  0.00000000000E+00 -0.00000000000E+00 -0.15314169421E+04  0.15314169421E+04  0.00000000000E+00 0. -1.
         23    2    1    2    0    0 -0.13383783969E+02  0.66950743862E+00 -0.14792947362E+04  0.14822063400E+04  0.91886581812E+02 0.  0.
         13    1    3    3    0    0 -0.47848824539E+01 -0.13288904408E+02 -0.14334292544E+04  0.14334988377E+04  0.00000000000E+00 0. -1.
        -13    1    3    3    0    0 -0.85989015154E+01  0.13958411847E+02 -0.45865481713E+02  0.48707502310E+02  0.00000000000E+00 0.  1.
         22    1    1    2    0    0  0.13383783969E+02 -0.66950743862E+00 -0.49780343980E+02  0.51552464154E+02  0.00000000000E+00 0.  1.
<mgrwt>
<rscale>  0 0.57233061E+02</rscale>
<asrwt>0</asrwt>
<pdfrwt beam="1">  1        2 0.23560257E+00 0.92858591E+02</pdfrwt>
<pdfrwt beam="2">  1       -2 0.36028652E-03 0.92858591E+02</pdfrwt>
<totfact> 0.10980326E+05</totfact>
</mgrwt>
</event>
<event>
 6    1  0.1535970E-002  0.1184008E+03  0.7546771E-02  0.1269298E+00
         -2   -1    0    0    0  501 -0.00000000000E+00  0.00000000000E+00  0.84818726366E+02  0.84818726366E+02  0.00000000000E+00 0.  1.
          2   -1    0    0  501    0  0.00000000000E+00 -0.00000000000E+00 -0.11416204693E+03  0.11416204693E+03  0.00000000000E+00 0. -1.
         23    2    1    2    0    0  0.71731628079E+02  0.19765055042E+02 -0.37335608383E+02  0.12414788926E+03  0.92101394597E+02 0.  0.
         13    1    3    3    0    0  0.42835348596E+02  0.56690394789E+02 -0.17118120820E+02  0.73086920930E+02  0.00000000000E+00 0.  1.
        -13    1    3    3    0    0  0.28896279484E+02 -0.36925339747E+02 -0.20217487563E+02  0.51060968330E+02  0.00000000000E+00 0. -1.
         22    1    1    2    0    0 -0.71731628079E+02 -0.19765055042E+02  0.79922878239E+01  0.74832884031E+02  0.00000000000E+00 0. -1.
<mgrwt>
<rscale>  0 0.10541838E+03</rscale>
<asrwt>0</asrwt>
<pdfrwt beam="1">  1        2 0.17563392E-01 0.11840081E+03</pdfrwt>
<pdfrwt beam="2">  1       -2 0.13049035E-01 0.11840081E+03</pdfrwt>
<totfact> 0.12867327E+04</totfact>
</mgrwt>
</event>
<event>
 6    1  0.1535970E-002  0.9697713E+02  0.7546771E-02  0.1343449E+00
         -2   -1    0    0    0  501 -0.00000000000E+00  0.00000000000E+00  0.72681014395E+01  0.72681014395E+01  0.00000000000E+00 0.  1.
          2   -1    0    0  501    0  0.00000000000E+00 -0.00000000000E+00 -0.22168921532E+04  0.22168921532E+04  0.00000000000E+00 0. -1.
         23    2    1    2    0    0  0.91042552386E+01 -0.33739040134E+02 -0.21664327742E+04  0.21686022062E+04  0.90461887717E+02 0.  0.
         11    1    3    3    0    0 -0.15533222523E+02  0.16602132679E+02 -0.18713404628E+03  0.18851011402E+03  0.00000000000E+00 0.  1.
        -11    1    3    3    0    0  0.24637477761E+02 -0.50341172813E+02 -0.19792987279E+04  0.19800920922E+04  0.00000000000E+00 0. -1.
         22    1    1    2    0    0 -0.91042552386E+01  0.33739040134E+02 -0.43191277510E+02  0.55558048432E+02  0.00000000000E+00 0.  1.
<mgrwt>
<rscale>  0 0.75136472E+02</rscale>
<asrwt>0</asrwt>
<pdfrwt beam="1">  1        2 0.34106019E+00 0.96977128E+02</pdfrwt>
<pdfrwt beam="2">  1       -2 0.11181699E-02 0.96977128E+02</pdfrwt>
<totfact> 0.10081634E+04</totfact>
</mgrwt>
</event>
<event>
 6    1  0.1535970E-002  0.9520786E+02  0.7546771E-02  0.1381463E+00
         -2   -1    0    0    0  501 -0.00000000000E+00  0.00000000000E+00  0.14699059940E+02  0.14699059940E+02  0.00000000000E+00 0.  1.
          2   -1    0    0  501    0  0.00000000000E+00 -0.00000000000E+00 -0.26950190022E+03  0.26950190022E+03  0.00000000000E+00 0. -1.
         23    2    1    2    0    0  0.19010583101E+02 -0.45117030505E+01 -0.24390522521E+03  0.26182875087E+03  0.93181426057E+02 0.  0.
         13    1    3    3    0    0 -0.55523114306E+01  0.35435372636E+01 -0.23408286302E+03  0.23417551447E+03  0.00000000000E+00 0. -1.
        -13    1    3    3    0    0  0.24562894531E+02 -0.80552403141E+01 -0.98223621931E+01  0.27653236399E+02  0.00000000000E+00 0.  1.
         22    1    1    2    0    0 -0.19010583101E+02  0.45117030505E+01 -0.10897615065E+02  0.22372209287E+02  0.00000000000E+00 0.  1.
<mgrwt>
<rscale>  0 0.64080821E+02</rscale>
<asrwt>0</asrwt>
<pdfrwt beam="1">  1        2 0.41461828E-01 0.95207856E+02</pdfrwt>
<pdfrwt beam="2">  1       -2 0.22613940E-02 0.95207856E+02</pdfrwt>
<totfact> 0.69043156E+04</totfact>
</mgrwt>
</event>
<event>
 6    1  0.1535970E-002  0.1073049E+03  0.7546771E-02  0.1310696E+00
          2   -1    0    0  501    0  0.00000000000E+00  0.00000000000E+00  0.72077359062E+02  0.72077359062E+02  0.00000000000E+00 0. -1.
         -2   -1    0    0    0  501 -0.00000000000E+00 -0.00000000000E+00 -0.95380881902E+02  0.95380881902E+02  0.00000000000E+00 0.  1.
         23    2    1    2    0    0  0.42353839555E+02  0.18007128083E+02  0.14002012300E+02  0.10821461397E+03  0.96934214507E+02 0.  0.
         13    1    3    3    0    0  0.54568152634E+02  0.41683938337E+02 -0.13436682753E+02  0.69969839506E+02  0.00000000000E+00 0.  1.
        -13    1    3    3    0    0 -0.12214313079E+02 -0.23676810254E+02  0.27438695053E+02  0.38244774467E+02  0.00000000000E+00 0. -1.
         22    1    1    2    0    0 -0.42353839555E+02 -0.18007128083E+02 -0.37305535140E+02  0.59243626990E+02  0.00000000000E+00 0. -1.
<mgrwt>
<rscale>  0 0.86837668E+02</rscale>
<asrwt>0</asrwt>
<pdfrwt beam="1">  1        2 0.11088824E-01 0.10730492E+03</pdfrwt>
<pdfrwt beam="2">  1       -2 0.14673982E-01 0.10730492E+03</pdfrwt>
<totfact> 0.18098240E+04</totfact>
</mgrwt>
</event>
<event>
 6    1  0.1535970E-002  0.9047111E+02  0.7546771E-02  0.1391040E+00
         -1   -1    0    0    0  501 -0.00000000000E+00  0.00000000000E+00  0.13035804257E+03  0.13035804257E+03  0.00000000000E+00 0.  1.
          1   -1    0    0  501    0  0.00000000000E+00 -0.00000000000E+00 -0.24127741152E+02  0.24127741152E+02  0.00000000000E+00 0. -1.
         23    2    1    2    0    0 -0.18185347823E+02  0.70553735858E+01  0.74307871269E+02  0.11707553488E+03  0.88343284763E+02 0.  0.
         11    1    3    3    0    0 -0.89689224807E+01  0.16237584140E+02 -0.16810038279E+02  0.25033539424E+02  0.00000000000E+00 0. -1.
        -11    1    3    3    0    0 -0.92164253426E+01 -0.91822105542E+01  0.91117909549E+02  0.92041995455E+02  0.00000000000E+00 0.  1.
         22    1    1    2    0    0  0.18185347823E+02 -0.70553735858E+01  0.31922430149E+02  0.37410248843E+02  0.00000000000E+00 0.  1.
<mgrwt>
<rscale>  0 0.61648802E+02</rscale>
<asrwt>0</asrwt>
<pdfrwt beam="1">  1        1 0.37119602E-02 0.90471107E+02</pdfrwt>
<pdfrwt beam="2">  1       -1 0.20055083E-01 0.90471107E+02</pdfrwt>
<totfact> 0.43721579E+04</totfact>
</mgrwt>
</event>
<event>
 6    1  0.1535970E-002  0.9189734E+02  0.7546771E-02  0.1427155E+00
         -1   -1    0    0    0  501 -0.00000000000E+00  0.00000000000E+00  0.26496166186E+02  0.26496166186E+02  0.00000000000E+00 0. -1.
          1   -1    0    0  501    0  0.00000000000E+00 -0.00000000000E+00 -0.27267273948E+03  0.27267273948E+03  0.00000000000E+00 0.  1.
         23    2    1    2    0    0 -0.68614941824E+01  0.80586622762E+01 -0.26339031214E+03  0.27896160635E+03  0.91285810238E+02 0.  0.
         13    1    3    3    0    0 -0.41529297637E+02  0.27086501523E+02 -0.17942232035E+03  0.18614706597E+03  0.00000000000E+00 0.  1.
        -13    1    3    3    0    0  0.34667803455E+02 -0.19027839247E+02 -0.83967991786E+02  0.92814540388E+02  0.00000000000E+00 0. -1.
         22    1    1    2    0    0  0.68614941824E+01 -0.80586622762E+01  0.17213738850E+02  0.20207299307E+02  0.00000000000E+00 0. -1.
<mgrwt>
<rscale>  0 0.53535294E+02</rscale>
<asrwt>0</asrwt>
<pdfrwt beam="1">  1        1 0.41949650E-01 0.91897341E+02</pdfrwt>
<pdfrwt beam="2">  1       -1 0.40763334E-02 0.91897341E+02</pdfrwt>
<totfact> 0.21168353E+04</totfact>
</mgrwt>
</event>
<event>
 6    1  0.1535970E-002  0.1212753E+03  0.7546771E-02  0.1260141E+00
          4   -1    0    0  501    0  0.00000000000E+00  0.00000000000E+00  0.45014275893E+03  0.45014275893E+03  0.00000000000E+00 0. -1.
         -4   -1    0    0    0  501 -0.00000000000E+00 -0.00000000000E+00 -0.23276740022E+02  0.23276740022E+02  0.00000000000E+00 0.  1.
         23    2    1    2    0    0 -0.77731091400E+02 -0.28461605923E+02  0.23464991123E+03  0.26413687274E+03  0.88631377742E+02 0.  0.
         13    1    3    3    0    0 -0.57843649106E+02 -0.58961836481E+02  0.18467006525E+03  0.20230031859E+03  0.00000000000E+00 0. -1.
        -13    1    3    3    0    0 -0.19887442294E+02  0.30500230558E+02  0.49979845980E+02  0.61836554151E+02  0.00000000000E+00 0.  1.
         22    1    1    2    0    0  0.77731091400E+02  0.28461605923E+02  0.19221610768E+03  0.20928262621E+03  0.00000000000E+00 0. -1.
<mgrwt>
<rscale>  0 0.11023208E+03</rscale>
<asrwt>0</asrwt>
<pdfrwt beam="1">  1        4 0.69252726E-01 0.12127533E+03</pdfrwt>
<pdfrwt beam="2">  1       -4 0.35810373E-02 0.12127533E+03</pdfrwt>
<totfact> 0.12814113E+03</totfact>
</mgrwt>
</event>
<event>
 6    1  0.1535970E-002  0.9249715E+02  0.7546771E-02  0.1393017E+00
         -2   -1    0    0    0  501 -0.00000000000E+00  0.00000000000E+00  0.48871274929E+03  0.48871274929E+03  0.00000000000E+00 0.  1.
          2   -1    0    0  501    0  0.00000000000E+00 -0.00000000000E+00 -0.62748833150E+01  0.62748833150E+01  0.00000000000E+00 0. -1.
         23    2    1    2    0    0 -0.11656658907E+02 -0.13296990253E+02  0.38476304060E+03  0.39572505578E+03  0.90791159870E+02 0.  0.
         11    1    3    3    0    0 -0.78294099123E+01 -0.42415122184E+02  0.33632317365E+03  0.33907760083E+03  0.00000000000E+00 0.  1.
        -11    1    3    3    0    0 -0.38272489947E+01  0.29118131931E+02  0.48439866955E+02  0.56647454953E+02  0.00000000000E+00 0. -1.
         22    1    1    2    0    0  0.11656658907E+02  0.13296990253E+02  0.97674825368E+02  0.99262576822E+02  0.00000000000E+00 0. -1.
<mgrwt>
<rscale>  0 0.61162481E+02</rscale>
<asrwt>0</asrwt>
<pdfrwt beam="1">  1        2 0.96536705E-03 0.92497148E+02</pdfrwt>
<pdfrwt beam="2">  1       -2 0.75186547E-01 0.92497148E+02</pdfrwt>
<totfact> 0.21706018E+04</totfact>
</mgrwt>
</event>
<event>
 6    1  0.1535970E-002  0.9516033E+02  0.7546771E-02  0.1387222E+00
         -2   -1    0    0    0  501 -0.00000000000E+00  0.00000000000E+00  0.47079741559E+01  0.47079741559E+01  0.00000000000E+00 0.  1.
          2   -1    0    0  501    0  0.00000000000E+00 -0.00000000000E+00 -0.84733774058E+03  0.84733774058E+03  0.00000000000E+00 0. -1.
         23    2    1    2    0    0  0.67761620715E+01  0.16486098788E+02 -0.80266561118E+03  0.80828681244E+03  0.93476093040E+02 0.  0.
         13    1    3    3    0    0 -0.28615056590E+02  0.33619836249E+02 -0.22536314641E+03  0.22964682147E+03  0.00000000000E+00 0.  1.
        -13    1    3    3    0    0  0.35391218662E+02 -0.17133737461E+02 -0.57730246477E+03  0.57863999097E+03  0.00000000000E+00 0. -1.
         22    1    1    2    0    0 -0.67761620715E+01 -0.16486098788E+02 -0.39964155245E+02  0.43758902296E+02  0.00000000000E+00 0. -1.
<mgrwt>
<rscale>  0 0.62603041E+02</rscale>
<asrwt>0</asrwt>
<pdfrwt beam="1">  1        2 0.13035963E+00 0.95160327E+02</pdfrwt>
<pdfrwt beam="2">  1       -2 0.72430383E-03 0.95160327E+02</pdfrwt>
<totfact> 0.99154854E+04</totfact>
</mgrwt>
</event>
<event>
 6    1  0.1535970E-002  0.9391868E+02  0.7546771E-02  0.1367764E+00
         -2   -1    0    0    0  501 -0.00000000000E+00  0.00000000000E+00  0.98565667579E+01  0.98565667579E+01  0.00000000000E+00 0.  1.
          2   -1    0    0  501    0  0.00000000000E+00 -0.00000000000E+00 -0.36908537374E+03  0.36908537374E+03  0.00000000000E+00 0. -1.
         23    2    1    2    0    0 -0.13524142304E+01 -0.25460331116E+02 -0.30256133267E+03  0.31680290180E+03  0.90391709134E+02 0.  0.
         11    1    3    3    0    0  0.42262915607E+02 -0.26793795321E+02 -0.17291691850E+03  0.18001200573E+03  0.00000000000E+00 0. -1.
        -11    1    3    3    0    0 -0.43615329837E+02  0.13334642054E+01 -0.12964441416E+03  0.13679089607E+03  0.00000000000E+00 0.  1.
         22    1    1    2    0    0  0.13524142304E+01  0.25460331116E+02 -0.56667474313E+02  0.62139038694E+02  0.00000000000E+00 0.  1.
<mgrwt>
<rscale>  0 0.67792704E+02</rscale>
<asrwt>0</asrwt>
<pdfrwt beam="1">  1        2 0.56782368E-01 0.93918681E+02</pdfrwt>
<pdfrwt beam="2">  1       -2 0.15163948E-02 0.93918681E+02</pdfrwt>
<totfact> 0.87975420E+04</totfact>
</mgrwt>
</event>
<event>
 6    1  0.1535970E-002  0.9469029E+02  0.7546771E-02  0.1405242E+00
          1   -1    0    0  501    0  0.00000000000E+00  0.00000000000E+00  0.19099223548E+03  0.19099223548E+03  0.00000000000E+00 0.  1.
         -1   -1    0    0    0  501 -0.00000000000E+00 -0.00000000000E+00 -0.16601541910E+02  0.16601541910E+02  0.00000000000E+00 0. -1.
         23    2    1    2    0    0  0.10894913990E+02  0.81034551349E+01  0.16739144478E+03  0.19231782833E+03  0.93711718447E+02 0.  0.
         13    1    3    3    0    0  0.28899284928E+02  0.16587445319E+02  0.11634069816E+02  0.35293959710E+02  0.00000000000E+00 0. -1.
        -13    1    3    3    0    0 -0.18004370938E+02 -0.84839901844E+01  0.15575737496E+03  0.15702386862E+03  0.00000000000E+00 0.  1.
         22    1    1    2    0    0 -0.10894913990E+02 -0.81034551349E+01  0.69992487962E+01  0.15275949060E+02  0.00000000000E+00 0.  1.
<mgrwt>
<rscale>  0 0.58269184E+02</rscale>
<asrwt>0</asrwt>
<pdfrwt beam="1">  1        1 0.29383419E-01 0.94690292E+02</pdfrwt>
<pdfrwt beam="2">  1       -1 0.25540835E-02 0.94690292E+02</pdfrwt>
<totfact> 0.64538231E+04</totfact>
</mgrwt>
</event>
<event>
 6    1  0.1535970E-002  0.9214307E+02  0.7546771E-02  0.1412063E+00
         -2   -1    0    0    0  501 -0.00000000000E+00  0.00000000000E+00  0.51049044182E+01  0.51049044182E+01  0.00000000000E+00 0.  1.
          2   -1    0    0  501    0  0.00000000000E+00 -0.00000000000E+00 -0.76549283582E+03  0.76549283582E+03  0.00000000000E+00 0. -1.
         23    2    1    2    0    0  0.11634453542E+02  0.63296554101E+01 -0.74324198812E+03  0.74893190497E+03  0.91186184976E+02 0.  0.
         13    1    3    3    0    0  0.34421688076E+02  0.11597285967E+02 -0.68780277175E+03  0.68876120860E+03  0.00000000000E+00 0. -1.
        -13    1    3    3    0    0 -0.22787234534E+02 -0.52676305564E+01 -0.55439216376E+02  0.60170696371E+02  0.00000000000E+00 0.  1.
         22    1    1    2    0    0 -0.11634453542E+02 -0.63296554101E+01 -0.17145943279E+02  0.21665835266E+02  0.00000000000E+00 0.  1.
<mgrwt>
<rscale>  0 0.56735967E+02</rscale>
<asrwt>0</asrwt>
<pdfrwt beam="1">  1        2 0.11776804E+00 0.92143070E+02</pdfrwt>
<pdfrwt beam="2">  1       -2 0.78537052E-03 0.92143070E+02</pdfrwt>
<totfact> 0.99768499E+04</totfact>
</mgrwt>
</event>
<event>
 6    1  0.1535970E-002  0.9439318E+02  0.7546771E-02  0.1375766E+00
         -2   -1    0    0    0  501 -0.00000000000E+00  0.00000000000E+00  0.16461459095E+03  0.16461459095E+03  0.00000000000E+00 0.  1.
          2   -1    0    0  501    0  0.00000000000E+00 -0.00000000000E+00 -0.35159923458E+02  0.35159923458E+02  0.00000000000E+00 0. -1.
         23    2    1    2    0    0  0.13663207660E+02  0.17249805132E+02  0.31700387671E+02  0.99574024170E+02  0.91792334594E+02 0.  0.
         13    1    3    3    0    0  0.11438176244E+02 -0.19754740072E+02  0.52370654467E+02  0.57129388938E+02  0.00000000000E+00 0.  1.
        -13    1    3    3    0    0  0.22250314163E+01  0.37004545204E+02 -0.20670266797E+02  0.42444635232E+02  0.00000000000E+00 0. -1.
         22    1    1    2    0    0 -0.13663207660E+02 -0.17249805132E+02  0.97754279820E+02  0.10020049024E+03  0.00000000000E+00 0.  1.
<mgrwt>
<rscale>  0 0.65590044E+02</rscale>
<asrwt>0</asrwt>
<pdfrwt beam="1">  1        2 0.54092191E-02 0.94393176E+02</pdfrwt>
<pdfrwt beam="2">  1       -2 0.25325321E-01 0.94393176E+02</pdfrwt>
<totfact> 0.17512261E+04</totfact>
</mgrwt>
</event>
<event>
 6    1  0.1535970E-002  0.9218708E+02  0.7546771E-02  0.1400465E+00
          2   -1    0    0  501    0  0.00000000000E+00  0.00000000000E+00  0.55188693627E+03  0.55188693627E+03  0.00000000000E+00 0. -1.
         -2   -1    0    0    0  501 -0.00000000000E+00 -0.00000000000E+00 -0.90824630146E+01  0.90824630146E+01  0.00000000000E+00 0.  1.
         23    2    1    2    0    0 -0.58662547501E+01 -0.14741512870E+02  0.53571957880E+03  0.54359352878E+03  0.90811520606E+02 0.  0.
         11    1    3    3    0    0 -0.38823454090E+02 -0.23201722614E+02  0.15804124485E+03  0.16438556991E+03  0.00000000000E+00 0.  1.
        -11    1    3    3    0    0  0.32957199340E+02  0.84602097444E+01  0.37767833395E+03  0.37920795887E+03  0.00000000000E+00 0. -1.
         22    1    1    2    0    0  0.58662547501E+01  0.14741512870E+02  0.70848944615E+01  0.17375870511E+02  0.00000000000E+00 0. -1.
<mgrwt>
<rscale>  0 0.59377015E+02</rscale>
<asrwt>0</asrwt>
<pdfrwt beam="1">  1        2 0.84905656E-01 0.92187078E+02</pdfrwt>
<pdfrwt beam="2">  1       -2 0.13973024E-02 0.92187078E+02</pdfrwt>
<totfact> 0.64140394E+04</totfact>
</mgrwt>
</event>
<event>
 6    1  0.1535970E-002  0.9341664E+02  0.7546771E-02  0.1392559E+00
          2   -1    0    0  501    0  0.00000000000E+00  0.00000000000E+00  0.24094548160E+03  0.24094548160E+03  0.00000000000E+00 0.  1.
         -2   -1    0    0    0  501 -0.00000000000E+00 -0.00000000000E+00 -0.17918810466E+02  0.17918810466E+02  0.00000000000E+00 0. -1.
         23    2    1    2    0    0 -0.37207224701E+01  0.16887299666E+02  0.22277673029E+03  0.24157015618E+03  0.91802201130E+02 0.  0.
         11    1    3    3    0    0 -0.63548974356E+01 -0.36537515115E+02  0.63322296948E+02  0.73383158988E+02  0.00000000000E+00 0. -1.
        -11    1    3    3    0    0  0.26341749655E+01  0.53424814781E+02  0.15945443334E+03  0.16818699719E+03  0.00000000000E+00 0.  1.
         22    1    1    2    0    0  0.37207224701E+01 -0.16887299666E+02  0.24994084741E+00  0.17294135889E+02  0.00000000000E+00 0. -1.
<mgrwt>
<rscale>  0 0.61274752E+02</rscale>
<asrwt>0</asrwt>
<pdfrwt beam="1">  1        2 0.37068533E-01 0.93416641E+02</pdfrwt>
<pdfrwt beam="2">  1       -2 0.27567402E-02 0.93416641E+02</pdfrwt>
<totfact> 0.58167911E+04</totfact>
</mgrwt>
</event>
<event>
 6    1  0.1535970E-002  0.9387399E+02  0.7546771E-02  0.1422416E+00
          3   -1    0    0  501    0  0.00000000000E+00  0.00000000000E+00  0.38725026480E+02  0.38725026480E+02  0.00000000000E+00 0. -1.
         -3   -1    0    0    0  501 -0.00000000000E+00 -0.00000000000E+00 -0.77301861562E+02  0.77301861562E+02  0.00000000000E+00 0.  1.
         23    2    1    2    0    0 -0.73183802574E+00 -0.10649856275E+02 -0.22175666401E+02  0.96457693892E+02  0.93265060473E+02 0.  0.
         11    1    3    3    0    0  0.10322454560E+02 -0.96507489298E+01 -0.57614081288E+02  0.59321769914E+02  0.00000000000E+00 0.  1.
        -11    1    3    3    0    0 -0.11054292586E+02 -0.99910734501E+00  0.35438414886E+02  0.37135923978E+02  0.00000000000E+00 0. -1.
         22    1    1    2    0    0  0.73183802574E+00  0.10649856275E+02 -0.16401168681E+02  0.19569194150E+02  0.00000000000E+00 0.  1.
<mgrwt>
<rscale>  0 0.54513072E+02</rscale>
<asrwt>0</asrwt>
<pdfrwt beam="1">  1        3 0.59576965E-02 0.93873993E+02</pdfrwt>
<pdfrwt beam="2">  1       -3 0.11892594E-01 0.93873993E+02</pdfrwt>
<totfact> 0.19542008E+04</totfact>
</mgrwt>
</event>
<event>
 6    1  0.1535970E-002  0.9475587E+02  0.7546771E-02  0.1385583E+00
         -2   -1    0    0    0  501 -0.00000000000E+00  0.00000000000E+00  0.16331328832E+02  0.16331328832E+02  0.00000000000E+00 0.  1.
          2   -1    0    0  501    0  0.00000000000E+00 -0.00000000000E+00 -0.20190525146E+03  0.20190525146E+03  0.00000000000E+00 0. -1.
         23    2    1    2    0    0 -0.13588893634E+02  0.12609390765E+02 -0.16690657382E+03  0.19192831776E+03  0.92924808370E+02 0.  0.
         11    1    3    3    0    0 -0.37842473298E+02 -0.14065085513E+02 -0.14319519867E+03  0.14877749943E+03  0.00000000000E+00 0. -1.
        -11    1    3    3    0    0  0.24253579664E+02  0.26674476278E+02 -0.23711375150E+02  0.43150818332E+02  0.00000000000E+00 0.  1.
         22    1    1    2    0    0  0.13588893634E+02 -0.12609390765E+02 -0.18667348815E+02  0.26308262532E+02  0.00000000000E+00 0.  1.
<mgrwt>
<rscale>  0 0.63018765E+02</rscale>
<asrwt>0</asrwt>
<pdfrwt beam="1">  1        2 0.31062344E-01 0.94755869E+02</pdfrwt>
<pdfrwt beam="2">  1       -2 0.25125123E-02 0.94755869E+02</pdfrwt>
<totfact> 0.80417758E+04</totfact>
</mgrwt>
</event>
<event>
 6    1  0.1535970E-002  0.9220375E+02  0.7546771E-02  0.1396494E+00
          1   -1    0    0  501    0  0.00000000000E+00  0.00000000000E+00  0.12217722663E+04  0.12217722663E+04  0.00000000000E+00 0. -1.
         -1   -1    0    0    0  501 -0.00000000000E+00 -0.00000000000E+00 -0.32792786844E+01  0.32792786844E+01  0.00000000000E+00 0.  1.
         23    2    1    2    0    0  0.10831430297E+02  0.12958148556E+02  0.11713736781E+04  0.11749969465E+04  0.90643792591E+02 0.  0.
         11    1    3    3    0    0 -0.31732378027E+02  0.58945958850E+01  0.19360716420E+03  0.19627894463E+03  0.00000000000E+00 0. -1.
        -11    1    3    3    0    0  0.42563808325E+02  0.70635526708E+01  0.97776651390E+03  0.97871800191E+03  0.00000000000E+00 0.  1.
         22    1    1    2    0    0 -0.10831430297E+02 -0.12958148556E+02  0.47119309519E+02  0.50054598449E+02  0.00000000000E+00 0. -1.
<mgrwt>
<rscale>  0 0.60320021E+02</rscale>
<asrwt>0</asrwt>
<pdfrwt beam="1">  1        1 0.18796460E+00 0.92203745E+02</pdfrwt>
<pdfrwt beam="2">  1       -1 0.50450539E-03 0.92203745E+02</pdfrwt>
<totfact> 0.50604325E+04</totfact>
</mgrwt>
</event>
<event>
 6    1  0.1535970E-002  0.9269752E+02  0.7546771E-02  0.1392761E+00
         -2   -1    0    0    0  501 -0.00000000000E+00  0.00000000000E+00  0.21831212750E+02  0.21831212750E+02  0.00000000000E+00 0.  1.
          2   -1    0    0  501    0  0.00000000000E+00 -0.00000000000E+00 -0.14969464212E+03  0.14969464212E+03  0.00000000000E+00 0. -1.
         23    2    1    2    0    0 -0.14439387734E+02 -0.10133944257E+02 -0.12138711485E+03  0.15273395783E+03  0.91003502569E+02 0.  0.
         13    1    3    3    0    0  0.19606148845E+02 -0.79415398848E+01 -0.11633894595E+03  0.11824643535E+03  0.00000000000E+00 0. -1.
        -13    1    3    3    0    0 -0.34045536578E+02 -0.21924043727E+01 -0.50481689000E+01  0.34487522484E+02  0.00000000000E+00 0.  1.
         22    1    1    2    0    0  0.14439387734E+02  0.10133944257E+02 -0.64763145171E+01  0.18791897032E+02  0.00000000000E+00 0.  1.
<mgrwt>
<rscale>  0 0.61225138E+02</rscale>
<asrwt>0</asrwt>
<pdfrwt beam="1">  1        2 0.23029945E-01 0.92697520E+02</pdfrwt>
<pdfrwt beam="2">  1       -2 0.33586481E-02 0.92697520E+02</pdfrwt>
<totfact> 0.72682859E+04</totfact>
</mgrwt>
</event>
<event>
 6    1  0.1535970E-002  0.9180840E+02  0.7546771E-02  0.1411586E+00
         -2   -1    0    0    0  501 -0.00000000000E+00  0.00000000000E+00  0.36642693842E+01  0.36642693842E+01  0.00000000000E+00 0.  1.
          2   -1    0    0  501    0  0.00000000000E+00 -0.00000000000E+00 -0.77281412528E+03  0.77281412528E+03  0.00000000000E+00 0. -1.
         23    2    1    2    0    0 -0.13487908588E+02  0.23301647410E+00 -0.70278858302E+03  0.70875988529E+03  0.90811918778E+02 0.  0.
         13    1    3    3    0    0  0.35288425981E+02  0.18007610980E+02 -0.33172445032E+03  0.33408181334E+03  0.00000000000E+00 0. -1.
        -13    1    3    3    0    0 -0.48776334569E+02 -0.17774594506E+02 -0.37106413270E+03  0.37467807195E+03  0.00000000000E+00 0.  1.
         22    1    1    2    0    0  0.13487908588E+02 -0.23301647410E+00 -0.66361272874E+02  0.67718509377E+02  0.00000000000E+00 0. -1.
<mgrwt>
<rscale>  0 0.56841322E+02</rscale>
<asrwt>0</asrwt>
<pdfrwt beam="1">  1        2 0.11889448E+00 0.91808401E+02</pdfrwt>
<pdfrwt beam="2">  1       -2 0.56373375E-03 0.91808401E+02</pdfrwt>
<totfact> 0.15718568E+05</totfact>
</mgrwt>
</event>
<event>
 6    1  0.1535970E-002  0.9110112E+02  0.7546771E-02  0.1419633E+00
         -2   -1    0    0    0  501 -0.00000000000E+00  0.00000000000E+00  0.63006226285E+01  0.63006226285E+01  0.00000000000E+00 0.  1.
          2   -1    0    0  501    0  0.00000000000E+00 -0.00000000000E+00 -0.43182191060E+03  0.43182191060E+03  0.00000000000E+00 0. -1.
         23    2    1    2    0    0 -0.32702493080E+01 -0.11742787394E+02 -0.39220044682E+03  0.40264203096E+03  0.90281930761E+02 0.  0.
         11    1    3    3    0    0  0.28919358330E+01  0.39231797241E+02 -0.18944852222E+03  0.19348963740E+03  0.00000000000E+00 0.  1.
        -11    1    3    3    0    0 -0.61621851410E+01 -0.50974584636E+02 -0.20275192460E+03  0.20915239356E+03  0.00000000000E+00 0. -1.
         22    1    1    2    0    0  0.32702493080E+01  0.11742787394E+02 -0.33320841153E+02  0.35480502272E+02  0.00000000000E+00 0. -1.
<mgrwt>
<rscale>  0 0.55098606E+02</rscale>
<asrwt>0</asrwt>
<pdfrwt beam="1">  1        2 0.66434142E-01 0.91101123E+02</pdfrwt>
<pdfrwt beam="2">  1       -2 0.96932653E-03 0.91101123E+02</pdfrwt>
<totfact> 0.14020170E+05</totfact>
</mgrwt>
</event>
<event>
 6    1  0.1535970E-002  0.9146710E+02  0.7546771E-02  0.1406183E+00
         -1   -1    0    0    0  501 -0.00000000000E+00  0.00000000000E+00  0.34760811784E+02  0.34760811784E+02  0.00000000000E+00 0.  1.
          1   -1    0    0  501    0  0.00000000000E+00 -0.00000000000E+00 -0.83914586064E+02  0.83914586064E+02  0.00000000000E+00 0. -1.
         23    2    1    2    0    0 -0.14656260124E+02 -0.23520715389E+01 -0.49140319110E+02  0.10383159839E+03  0.90254593569E+02 0.  0.
         13    1    3    3    0    0 -0.45301432101E+01 -0.32791078671E+02 -0.61185103037E+02  0.69565752145E+02  0.00000000000E+00 0. -1.
        -13    1    3    3    0    0 -0.10126116914E+02  0.30439007132E+02  0.12044783927E+02  0.34265846243E+02  0.00000000000E+00 0.  1.
         22    1    1    2    0    0  0.14656260124E+02  0.23520715389E+01 -0.13455169367E-01  0.14843799459E+02  0.00000000000E+00 0. -1.
<mgrwt>
<rscale>  0 0.58054367E+02</rscale>
<asrwt>0</asrwt>
<pdfrwt beam="1">  1        1 0.12909936E-01 0.91467097E+02</pdfrwt>
<pdfrwt beam="2">  1       -1 0.53478173E-02 0.91467097E+02</pdfrwt>
<totfact> 0.61945676E+04</totfact>
</mgrwt>
</event>
<event>
 6    1  0.1535970E-002  0.9051296E+02  0.7546771E-02  0.1428563E+00
         -2   -1    0    0    0  501 -0.00000000000E+00  0.00000000000E+00  0.23098273428E+01  0.23098273428E+01  0.00000000000E+00 0.  1.
          2   -1    0    0  501    0  0.00000000000E+00 -0.00000000000E+00 -0.17131650952E+04  0.17131650952E+04  0.00000000000E+00 0. -1.
         23    2    1    2    0    0 -0.21106994546E+01  0.10635193043E+02 -0.16851163766E+04  0.16875454953E+04  0.89861190775E+02 0.  0.
         13    1    3    3    0    0 -0.12277557077E+02  0.23283017475E+02 -0.16268133850E+04  0.16270263142E+04  0.00000000000E+00 0. -1.
        -13    1    3    3    0    0  0.10166857623E+02 -0.12647824432E+02 -0.58302991588E+02  0.60519181132E+02  0.00000000000E+00 0.  1.
         22    1    1    2    0    0  0.21106994546E+01 -0.10635193043E+02 -0.25738891205E+02  0.27929427200E+02  0.00000000000E+00 0.  1.
<mgrwt>
<rscale>  0 0.53249634E+02</rscale>
<asrwt>0</asrwt>
<pdfrwt beam="1">  1        2 0.26356361E+00 0.90512960E+02</pdfrwt>
<pdfrwt beam="2">  1       -2 0.35535839E-03 0.90512960E+02</pdfrwt>
<totfact> 0.90330374E+04</totfact>
</mgrwt>
</event>
<event>
 6    1  0.1535970E-002  0.9559852E+02  0.7546771E-02  0.1356576E+00
          1   -1    0    0  501    0  0.00000000000E+00  0.00000000000E+00  0.53485923616E+03  0.53485923616E+03  0.00000000000E+00 0. -1.
         -1   -1    0    0    0  501 -0.00000000000E+00 -0.00000000000E+00 -0.99484186915E+01  0.99484186915E+01  0.00000000000E+00 0.  1.
         23    2    1    2    0    0 -0.28183775346E+02  0.74787576271E+01  0.49038308794E+03  0.49961450145E+03  0.91042957491E+02 0.  0.
         13    1    3    3    0    0 -0.59110735485E+02  0.10968530206E+02  0.38720551702E+03  0.39184499502E+03  0.00000000000E+00 0.  1.
        -13    1    3    3    0    0  0.30926960140E+02 -0.34897725787E+01  0.10317757092E+03  0.10776950643E+03  0.00000000000E+00 0. -1.
         22    1    1    2    0    0  0.28183775346E+02 -0.74787576271E+01  0.34527729528E+02  0.45193153405E+02  0.00000000000E+00 0. -1.
<mgrwt>
<rscale>  0 0.71044777E+02</rscale>
<asrwt>0</asrwt>
<pdfrwt beam="1">  1        1 0.82286014E-01 0.95598520E+02</pdfrwt>
<pdfrwt beam="2">  1       -1 0.15305264E-02 0.95598520E+02</pdfrwt>
<totfact> 0.37469493E+04</totfact>
</mgrwt>
</event>
<event>
 6    1  0.1535970E-002  0.9315552E+02  0.7546771E-02  0.1413547E+00
          2   -1    0    0  501    0  0.00000000000E+00  0.00000000000E+00  0.97344455078E+03  0.97344455078E+03  0.00000000000E+00 0. -1.
         -2   -1    0    0    0  501 -0.00000000000E+00 -0.00000000000E+00 -0.30765668665E+01  0.30765668665E+01  0.00000000000E+00 0.  1.
         23    2    1    2    0    0  0.10994326115E+02  0.60011417188E+01  0.91620775843E+03  0.92093137999E+03  0.92309593914E+02 0.  0.
         13    1    3    3    0    0  0.15352895806E+02  0.45090696638E+02  0.33180652520E+03  0.33520807344E+03  0.00000000000E+00 0. -1.
        -13    1    3    3    0    0 -0.43585696908E+01 -0.39089554919E+02  0.58440123323E+03  0.58572330655E+03  0.00000000000E+00 0.  1.
         22    1    1    2    0    0 -0.10994326115E+02 -0.60011417188E+01  0.54160225488E+02  0.55589737664E+02  0.00000000000E+00 0. -1.
<mgrwt>
<rscale>  0 0.56409917E+02</rscale>
<asrwt>0</asrwt>
<pdfrwt beam="1">  1        2 0.14976045E+00 0.93155515E+02</pdfrwt>
<pdfrwt beam="2">  1       -2 0.47331876E-03 0.93155515E+02</pdfrwt>
<totfact> 0.15030072E+05</totfact>
</mgrwt>
</event>
<event>
 6    1  0.1535970E-002  0.9227559E+02  0.7546771E-02  0.1418266E+00
          1   -1    0    0  501    0  0.00000000000E+00  0.00000000000E+00  0.64627700282E+03  0.64627700282E+03  0.00000000000E+00 0. -1.
         -1   -1    0    0    0  501 -0.00000000000E+00 -0.00000000000E+00 -0.42217402099E+01  0.42217402099E+01  0.00000000000E+00 0.  1.
         23    2    1    2    0    0  0.52618498488E+01  0.10762420458E+02  0.58055011742E+03  0.58783775323E+03  0.91494636604E+02 0.  0.
         13    1    3    3    0    0  0.19668035715E+02  0.48246990106E+02  0.32238847533E+03  0.32657148177E+03  0.00000000000E+00 0. -1.
        -13    1    3    3    0    0 -0.14406185866E+02 -0.37484569648E+02  0.25816164209E+03  0.26126627145E+03  0.00000000000E+00 0.  1.
         22    1    1    2    0    0 -0.52618498488E+01 -0.10762420458E+02  0.61505145192E+02  0.62660989803E+02  0.00000000000E+00 0.  1.
<mgrwt>
<rscale>  0 0.55389566E+02</rscale>
<asrwt>0</asrwt>
<pdfrwt beam="1">  1        1 0.99427153E-01 0.92275594E+02</pdfrwt>
<pdfrwt beam="2">  1       -1 0.64949901E-03 0.92275594E+02</pdfrwt>
<totfact> 0.97188127E+04</totfact>
</mgrwt>
</event>
<event>
 6    1  0.1535970E-002  0.9175424E+02  0.7546771E-02  0.1416005E+00
          2   -1    0    0  501    0  0.00000000000E+00  0.00000000000E+00  0.76611238253E+03  0.76611238253E+03  0.00000000000E+00 0. -1.
         -2   -1    0    0    0  501 -0.00000000000E+00 -0.00000000000E+00 -0.38025043729E+01  0.38025043729E+01  0.00000000000E+00 0.  1.
         23    2    1    2    0    0 -0.47273053300E+01 -0.11699117565E+02  0.71814651396E+03  0.72398429247E+03  0.90882470628E+02 0.  0.
         11    1    3    3    0    0 -0.36202907413E+02 -0.17952867611E+02  0.16384703700E+03  0.16875665170E+03  0.00000000000E+00 0. -1.
        -11    1    3    3    0    0  0.31475602083E+02  0.62537500460E+01  0.55429947696E+03  0.55522764077E+03  0.00000000000E+00 0.  1.
         22    1    1    2    0    0  0.47273053300E+01  0.11699117565E+02  0.44163364199E+02  0.45930594432E+02  0.00000000000E+00 0.  1.
<mgrwt>
<rscale>  0 0.55875086E+02</rscale>
<asrwt>0</asrwt>
<pdfrwt beam="1">  1        2 0.11786332E+00 0.91754238E+02</pdfrwt>
<pdfrwt beam="2">  1       -2 0.58500128E-03 0.91754238E+02</pdfrwt>
<totfact> 0.15078220E+05</totfact>
</mgrwt>
</event>
<event>
 6    1  0.1535970E-002  0.9445667E+02  0.7546771E-02  0.1400189E+00
          2   -1    0    0  501    0  0.00000000000E+00  0.00000000000E+00  0.84915557260E+02  0.84915557260E+02  0.00000000000E+00 0. -1.
         -2   -1    0    0    0  501 -0.00000000000E+00 -0.00000000000E+00 -0.38418169121E+02  0.38418169121E+02  0.00000000000E+00 0.  1.
         23    2    1    2    0    0 -0.60221908210E+01  0.13534705152E+02  0.51641755355E+02  0.10765190442E+03  0.93287762350E+02 0.  0.
         11    1    3    3    0    0  0.48301725646E+01  0.32774589530E+02  0.70956375929E+02  0.78309077193E+02  0.00000000000E+00 0. -1.
        -11    1    3    3    0    0 -0.10852363386E+02 -0.19239884379E+02 -0.19314620574E+02  0.29342827231E+02  0.00000000000E+00 0.  1.
         22    1    1    2    0    0  0.60221908210E+01 -0.13534705152E+02 -0.51443672159E+01  0.15681821957E+02  0.00000000000E+00 0.  1.
<mgrwt>
<rscale>  0 0.59441895E+02</rscale>
<asrwt>0</asrwt>
<pdfrwt beam="1">  1        2 0.13063932E-01 0.94456665E+02</pdfrwt>
<pdfrwt beam="2">  1       -2 0.59104876E-02 0.94456665E+02</pdfrwt>
<totfact> 0.60198533E+04</totfact>
</mgrwt>
</event>
<event>
 6    1  0.1535970E-002  0.8336328E+02  0.7546771E-02  0.1408855E+00
         -2   -1    0    0    0  501 -0.00000000000E+00  0.00000000000E+00  0.11058934118E+02  0.11058934118E+02  0.00000000000E+00 0.  1.
          2   -1    0    0  501    0  0.00000000000E+00 -0.00000000000E+00 -0.23799176144E+03  0.23799176144E+03  0.00000000000E+00 0. -1.
         23    2    1    2    0    0 -0.86148802075E+01  0.16714058440E+02 -0.19348785765E+03  0.21068219406E+03  0.81214899662E+02 0.  0.
         11    1    3    3    0    0 -0.29412108396E+00  0.22321618543E+02 -0.19830100459E+03  0.19955357572E+03  0.00000000000E+00 0. -1.
        -11    1    3    3    0    0 -0.83207591236E+01 -0.56075601032E+01  0.48131469419E+01  0.11128618341E+02  0.00000000000E+00 0.  1.
         22    1    1    2    0    0  0.86148802075E+01 -0.16714058440E+02 -0.33444969677E+02  0.38368501498E+02  0.00000000000E+00 0. -1.
<mgrwt>
<rscale>  0 0.57450183E+02</rscale>
<asrwt>0</asrwt>
<pdfrwt beam="1">  1        2 0.36614118E-01 0.83363276E+02</pdfrwt>
<pdfrwt beam="2">  1       -2 0.17013744E-02 0.83363276E+02</pdfrwt>
<totfact> 0.11601040E+05</totfact>
</mgrwt>
</event>
<event>
 6    1  0.1535970E-002  0.9176820E+02  0.7546771E-02  0.1427745E+00
          2   -1    0    0  501    0  0.00000000000E+00  0.00000000000E+00  0.14612587518E+04  0.14612587518E+04  0.00000000000E+00 0. -1.
         -2   -1    0    0    0  501 -0.00000000000E+00 -0.00000000000E+00 -0.19605330741E+01  0.19605330741E+01  0.00000000000E+00 0.  1.
         23    2    1    2    0    0 -0.10469090252E+02  0.11658771042E+01  0.13991027634E+04  0.14021091060E+04  0.91161622708E+02 0.  0.
         11    1    3    3    0    0 -0.30095731871E+01 -0.44775590653E+02  0.62587085347E+03  0.62747767791E+03  0.00000000000E+00 0. -1.
        -11    1    3    3    0    0 -0.74595170646E+01  0.45941467757E+02  0.77323190993E+03  0.77463142809E+03  0.00000000000E+00 0.  1.
         22    1    1    2    0    0  0.10469090252E+02 -0.11658771042E+01  0.60195455327E+02  0.61110178875E+02  0.00000000000E+00 0.  1.
<mgrwt>
<rscale>  0 0.53415281E+02</rscale>
<asrwt>0</asrwt>
<pdfrwt beam="1">  1        2 0.22480817E+00 0.91768200E+02</pdfrwt>
<pdfrwt beam="2">  1       -2 0.30162164E-03 0.91768200E+02</pdfrwt>
<totfact> 0.15259259E+05</totfact>
</mgrwt>
</event>
<event>
 6    1  0.1535970E-002  0.8822250E+02  0.7546771E-02  0.1431983E+00
          1   -1    0    0  501    0  0.00000000000E+00  0.00000000000E+00  0.13192700225E+02  0.13192700225E+02  0.00000000000E+00 0. -1.
         -1   -1    0    0    0  501 -0.00000000000E+00 -0.00000000000E+00 -0.18980647187E+03  0.18980647187E+03  0.00000000000E+00 0.  1.
         23    2    1    2    0    0 -0.11036627644E+02 -0.13398014340E+01 -0.14797702446E+03  0.17228003300E+03  0.87519185230E+02 0.  0.
         13    1    3    3    0    0 -0.40782681523E+01 -0.42913813496E+02 -0.52626615101E+02  0.68027849274E+02  0.00000000000E+00 0. -1.
        -13    1    3    3    0    0 -0.69583594918E+01  0.41574012062E+02 -0.95350409360E+02  0.10425218372E+03  0.00000000000E+00 0.  1.
         22    1    1    2    0    0  0.11036627644E+02  0.13398014340E+01 -0.28636747188E+02  0.30719139101E+02  0.00000000000E+00 0.  1.
<mgrwt>
<rscale>  0 0.52563928E+02</rscale>
<asrwt>0</asrwt>
<pdfrwt beam="1">  1        1 0.20296463E-02 0.88222503E+02</pdfrwt>
<pdfrwt beam="2">  1       -1 0.29200994E-01 0.88222503E+02</pdfrwt>
<totfact> 0.54206613E+04</totfact>
</mgrwt>
</event>
<event>
 6    1  0.1535970E-002  0.9701527E+02  0.7546771E-02  0.1362480E+00
          2   -1    0    0  501    0  0.00000000000E+00  0.00000000000E+00  0.42461943808E+03  0.42461943808E+03  0.00000000000E+00 0. -1.
         -2   -1    0    0    0  501 -0.00000000000E+00 -0.00000000000E+00 -0.88103808276E+01  0.88103808276E+01  0.00000000000E+00 0.  1.
         23    2    1    2    0    0  0.11220109855E+02 -0.22634346166E+02  0.33484087968E+03  0.34861207153E+03  0.93668336257E+02 0.  0.
         11    1    3    3    0    0  0.70682809246E+01 -0.48798873681E+02  0.30392259160E+03  0.30789646369E+03  0.00000000000E+00 0. -1.
        -11    1    3    3    0    0  0.41518289300E+01  0.26164527516E+02  0.30918288076E+02  0.40715607832E+02  0.00000000000E+00 0.  1.
         22    1    1    2    0    0 -0.11220109855E+02  0.22634346166E+02  0.80968177571E+02  0.84817747381E+02  0.00000000000E+00 0.  1.
<mgrwt>
<rscale>  0 0.69302681E+02</rscale>
<asrwt>0</asrwt>
<pdfrwt beam="1">  1        2 0.65326052E-01 0.97015265E+02</pdfrwt>
<pdfrwt beam="2">  1       -2 0.13554435E-02 0.97015265E+02</pdfrwt>
<totfact> 0.89475462E+04</totfact>
</mgrwt>
</event>
<event>
 6    1  0.1535970E-002  0.9535069E+02  0.7546771E-02  0.1395070E+00
         -2   -1    0    0    0  501 -0.00000000000E+00  0.00000000000E+00  0.32493630286E+02  0.32493630286E+02  0.00000000000E+00 0.  1.
          2   -1    0    0  501    0  0.00000000000E+00 -0.00000000000E+00 -0.11295329229E+03  0.11295329229E+03  0.00000000000E+00 0. -1.
         23    2    1    2    0    0 -0.37330962427E+01 -0.15169046601E+02 -0.86459355073E+02  0.12871275695E+03  0.94062307749E+02 0.  0.
         11    1    3    3    0    0 -0.35210434703E+01  0.40012870369E+02 -0.36693883998E+02  0.54404675031E+02  0.00000000000E+00 0.  1.
        -11    1    3    3    0    0 -0.21205277234E+00 -0.55181916970E+02 -0.49765471075E+02  0.74308081917E+02  0.00000000000E+00 0. -1.
         22    1    1    2    0    0  0.37330962427E+01  0.15169046601E+02  0.59996930695E+01  0.16734165628E+02  0.00000000000E+00 0. -1.
<mgrwt>
<rscale>  0 0.60663101E+02</rscale>
<asrwt>0</asrwt>
<pdfrwt beam="1">  1        2 0.17377429E-01 0.95350688E+02</pdfrwt>
<pdfrwt beam="2">  1       -2 0.49990201E-02 0.95350688E+02</pdfrwt>
<totfact> 0.55641677E+04</totfact>
</mgrwt>
</event>
<event>
 6    1  0.1535970E-002  0.9582623E+02  0.7546771E-02  0.1350614E+00
          1   -1    0    0  501    0  0.00000000000E+00  0.00000000000E+00  0.64792729280E+02  0.64792729280E+02  0.00000000000E+00 0. -1.
         -1   -1    0    0    0  501 -0.00000000000E+00 -0.00000000000E+00 -0.66847549476E+02  0.66847549476E+02  0.00000000000E+00 0.  1.
         23    2    1    2    0    0 -0.28852737149E+02  0.13917938628E+02  0.12158480629E+02  0.96594489037E+02  0.90313217219E+02 0.  0.
         11    1    3    3    0    0  0.26629612736E+02  0.17618294134E+02 -0.14334372421E+02  0.35000211362E+02  0.00000000000E+00 0.  1.
        -11    1    3    3    0    0 -0.55482349885E+02 -0.37003555065E+01  0.26492853050E+02  0.61594277675E+02  0.00000000000E+00 0. -1.
         22    1    1    2    0    0  0.28852737149E+02 -0.13917938628E+02 -0.14213300825E+02  0.35045789718E+02  0.00000000000E+00 0.  1.
<mgrwt>
<rscale>  0 0.72864628E+02</rscale>
<asrwt>0</asrwt>
<pdfrwt beam="1">  1        1 0.99681122E-02 0.95826232E+02</pdfrwt>
<pdfrwt beam="2">  1       -1 0.10284238E-01 0.95826232E+02</pdfrwt>
<totfact> 0.32963318E+04</totfact>
</mgrwt>
</event>
<event>
 6    1  0.1535970E-002  0.9255558E+02  0.7546771E-02  0.1416900E+00
         -3   -1    0    0    0  501 -0.00000000000E+00  0.00000000000E+00  0.73130797394E+02  0.73130797394E+02  0.00000000000E+00 0.  1.
          3   -1    0    0  501    0  0.00000000000E+00 -0.00000000000E+00 -0.42361986356E+02  0.42361986356E+02  0.00000000000E+00 0. -1.
         23    2    1    2    0    0 -0.11099997773E+02  0.48773016954E+01  0.12256552574E+02  0.93363578255E+02  0.91758033116E+02 0.  0.
         11    1    3    3    0    0  0.23522312358E+01 -0.32361031297E+02 -0.23461170439E+02  0.40039928281E+02  0.00000000000E+00 0. -1.
        -11    1    3    3    0    0 -0.13452229009E+02  0.37238332992E+02  0.35717723013E+02  0.53323649974E+02  0.00000000000E+00 0.  1.
         22    1    1    2    0    0  0.11099997773E+02 -0.48773016954E+01  0.18512258464E+02  0.22129205495E+02  0.00000000000E+00 0.  1.
<mgrwt>
<rscale>  0 0.55682135E+02</rscale>
<asrwt>0</asrwt>
<pdfrwt beam="1">  1        3 0.65172287E-02 0.92555576E+02</pdfrwt>
<pdfrwt beam="2">  1       -3 0.11250892E-01 0.92555576E+02</pdfrwt>
<totfact> 0.18512035E+04</totfact>
</mgrwt>
</event>
<event>
 6    1  0.1535970E-002  0.9178793E+02  0.7546771E-02  0.1411957E+00
          2   -1    0    0  501    0  0.00000000000E+00  0.00000000000E+00  0.60230648704E+02  0.60230648704E+02  0.00000000000E+00 0.  1.
         -2   -1    0    0    0  501 -0.00000000000E+00 -0.00000000000E+00 -0.49483890679E+02  0.49483890679E+02  0.00000000000E+00 0. -1.
         23    2    1    2    0    0 -0.13186515232E+02  0.24998783880E+01  0.19305832720E+02  0.93796268887E+02  0.90801383824E+02 0.  0.
         11    1    3    3    0    0 -0.39031631173E+02 -0.89119379381E+01 -0.20503132806E+02  0.44980766164E+02  0.00000000000E+00 0. -1.
        -11    1    3    3    0    0  0.25845115941E+02  0.11411816326E+02  0.39808965526E+02  0.48815502724E+02  0.00000000000E+00 0.  1.
         22    1    1    2    0    0  0.13186515232E+02 -0.24998783880E+01 -0.85590746951E+01  0.15918270495E+02  0.00000000000E+00 0. -1.
<mgrwt>
<rscale>  0 0.56759496E+02</rscale>
<asrwt>0</asrwt>
<pdfrwt beam="1">  1        2 0.92662535E-02 0.91787934E+02</pdfrwt>
<pdfrwt beam="2">  1       -2 0.76129063E-02 0.91787934E+02</pdfrwt>
<totfact> 0.61752956E+04</totfact>
</mgrwt>
</event>
<event>
 6    1  0.1535970E-002  0.9094958E+02  0.7546771E-02  0.1383966E+00
         -1   -1    0    0    0  501 -0.00000000000E+00  0.00000000000E+00  0.43612412854E+02  0.43612412854E+02  0.00000000000E+00 0.  1.
          1   -1    0    0  501    0  0.00000000000E+00 -0.00000000000E+00 -0.72745462289E+02  0.72745462289E+02  0.00000000000E+00 0. -1.
         23    2    1    2    0    0  0.11257200371E+01  0.21490917902E+02 -0.26131538382E+02  0.94629187506E+02  0.88366843510E+02 0.  0.
         13    1    3    3    0    0 -0.26397080005E+02  0.15688589187E+02  0.22761009880E+02  0.38223045852E+02  0.00000000000E+00 0.  1.
        -13    1    3    3    0    0  0.27522800042E+02  0.58023287150E+01 -0.48892548262E+02  0.56406141653E+02  0.00000000000E+00 0. -1.
         22    1    1    2    0    0 -0.11257200371E+01 -0.21490917902E+02 -0.30015110537E+01  0.21728687638E+02  0.00000000000E+00 0. -1.
<mgrwt>
<rscale>  0 0.63432672E+02</rscale>
<asrwt>0</asrwt>
<pdfrwt beam="1">  1        1 0.11191610E-01 0.90949579E+02</pdfrwt>
<pdfrwt beam="2">  1       -1 0.67096020E-02 0.90949579E+02</pdfrwt>
<totfact> 0.53320052E+04</totfact>
</mgrwt>
</event>
<event>
 6    1  0.1535970E-002  0.1108195E+03  0.7546771E-02  0.1285532E+00
          4   -1    0    0  501    0  0.00000000000E+00  0.00000000000E+00  0.14921389717E+03  0.14921389717E+03  0.00000000000E+00 0. -1.
         -4   -1    0    0    0  501 -0.00000000000E+00 -0.00000000000E+00 -0.71690047815E+02  0.71690047815E+02  0.00000000000E+00 0.  1.
         23    2    1    2    0    0  0.64955390358E+02 -0.14430671691E+02  0.10140122972E+03  0.15021040699E+03  0.88620031361E+02 0.  0.
         11    1    3    3    0    0  0.58413412344E+02  0.13668091012E+02  0.10520792999E+03  0.12111008210E+03  0.00000000000E+00 0. -1.
        -11    1    3    3    0    0  0.65419780142E+01 -0.28098762703E+02 -0.38067002735E+01  0.29100324891E+02  0.00000000000E+00 0.  1.
         22    1    1    2    0    0 -0.64955390358E+02  0.14430671691E+02 -0.23877380357E+02  0.70693537998E+02  0.00000000000E+00 0.  1.
<mgrwt>
<rscale>  0 0.97550893E+02</rscale>
<asrwt>0</asrwt>
<pdfrwt beam="1">  1        4 0.22955984E-01 0.11081948E+03</pdfrwt>
<pdfrwt beam="2">  1       -4 0.11029238E-01 0.11081948E+03</pdfrwt>
<totfact> 0.17674945E+03</totfact>
</mgrwt>
</event>
<event>
 6    1  0.1535970E-002  0.8862759E+02  0.7546771E-02  0.1412000E+00
          2   -1    0    0  501    0  0.00000000000E+00  0.00000000000E+00  0.11484394296E+04  0.11484394296E+04  0.00000000000E+00 0.  1.
         -2   -1    0    0    0  501 -0.00000000000E+00 -0.00000000000E+00 -0.82586383655E+01  0.82586383655E+01  0.00000000000E+00 0. -1.
         23    2    1    2    0    0 -0.14654240420E+02  0.26892682712E+01  0.11382261796E+04  0.11416714439E+04  0.87366302657E+02 0.  0.
         11    1    3    3    0    0 -0.29463894892E+02 -0.27955755666E+02  0.29787327612E+03  0.30062956276E+03  0.00000000000E+00 0. -1.
        -11    1    3    3    0    0  0.14809654472E+02  0.30645023938E+02  0.84035290350E+03  0.84104188111E+03  0.00000000000E+00 0.  1.
         22    1    1    2    0    0  0.14654240420E+02 -0.26892682712E+01  0.19546116467E+01  0.15026624132E+02  0.00000000000E+00 0. -1.
<mgrwt>
<rscale>  0 0.56749975E+02</rscale>
<asrwt>0</asrwt>
<pdfrwt beam="1">  1        2 0.17668286E+00 0.88627590E+02</pdfrwt>
<pdfrwt beam="2">  1       -2 0.12705607E-02 0.88627590E+02</pdfrwt>
<totfact> 0.29494660E+04</totfact>
</mgrwt>
</event>
<event>
 6    1  0.1535970E-002  0.9301228E+02  0.7546771E-02  0.1385014E+00
          2   -1    0    0  501    0  0.00000000000E+00  0.00000000000E+00  0.15697755131E+03  0.15697755131E+03  0.00000000000E+00 0. -1.
         -2   -1    0    0    0  501 -0.00000000000E+00 -0.00000000000E+00 -0.23421805124E+02  0.23421805124E+02  0.00000000000E+00 0.  1.
         23    2    1    2    0    0 -0.79080775227E+01  0.18131811374E+02  0.13069325765E+03  0.16041200757E+03  0.90884455794E+02 0.  0.
         13    1    3    3    0    0  0.12146309007E+02 -0.33097404559E+02  0.70763620548E+02  0.79059857096E+02  0.00000000000E+00 0.  1.
        -13    1    3    3    0    0 -0.20054386529E+02  0.51229215933E+02  0.59929637100E+02  0.81352150476E+02  0.00000000000E+00 0. -1.
         22    1    1    2    0    0  0.79080775227E+01 -0.18131811374E+02  0.28624885366E+01  0.19987348860E+02  0.00000000000E+00 0.  1.
<mgrwt>
<rscale>  0 0.63163908E+02</rscale>
<asrwt>0</asrwt>
<pdfrwt beam="1">  1        2 0.24150392E-01 0.93012282E+02</pdfrwt>
<pdfrwt beam="2">  1       -2 0.36033547E-02 0.93012282E+02</pdfrwt>
<totfact> 0.62277355E+04</totfact>
</mgrwt>
</event>
<event>
 6    1  0.1535970E-002  0.9191591E+02  0.7546771E-02  0.1427355E+00
         -1   -1    0    0    0  501 -0.00000000000E+00  0.00000000000E+00  0.28182426765E+02  0.28182426765E+02  0.00000000000E+00 0.  1.
          1   -1    0    0  501    0  0.00000000000E+00 -0.00000000000E+00 -0.93246660933E+02  0.93246660933E+02  0.00000000000E+00 0. -1.
         23    2    1    2    0    0 -0.10539613205E+02  0.35233218927E+00 -0.57019658096E+02  0.10816549887E+03  0.91308959864E+02 0.  0.
         11    1    3    3    0    0 -0.45430827209E+02  0.62470710331E+01 -0.62519906582E+01  0.46282538226E+02  0.00000000000E+00 0.  1.
        -11    1    3    3    0    0  0.34891214004E+02 -0.58947388438E+01 -0.50767667437E+02  0.61882960642E+02  0.00000000000E+00 0. -1.
         22    1    1    2    0    0  0.10539613205E+02 -0.35233218927E+00 -0.80445760720E+01  0.13263588830E+02  0.00000000000E+00 0.  1.
<mgrwt>
<rscale>  0 0.53494583E+02</rscale>
<asrwt>0</asrwt>
<pdfrwt beam="1">  1        1 0.14345640E-01 0.91915906E+02</pdfrwt>
<pdfrwt beam="2">  1       -1 0.43357580E-02 0.91915906E+02</pdfrwt>
<totfact> 0.73550162E+04</totfact>
</mgrwt>
</event>
<event>
 6    1  0.1535970E-002  0.9362677E+02  0.7546771E-02  0.1408065E+00
         -2   -1    0    0    0  501 -0.00000000000E+00  0.00000000000E+00  0.12171811785E+03  0.12171811785E+03  0.00000000000E+00 0.  1.
          2   -1    0    0  501    0  0.00000000000E+00 -0.00000000000E+00 -0.23556275896E+02  0.23556275896E+02  0.00000000000E+00 0. -1.
         23    2    1    2    0    0 -0.12550596686E+02  0.48019399722E+01  0.84714687075E+02  0.12626381566E+03  0.92657416515E+02 0.  0.
         11    1    3    3    0    0  0.19400690959E+02 -0.29660676956E+02  0.67455207002E+02  0.76199393166E+02  0.00000000000E+00 0.  1.
        -11    1    3    3    0    0 -0.31951287644E+02  0.34462616928E+02  0.17259480074E+02  0.50064422498E+02  0.00000000000E+00 0. -1.
         22    1    1    2    0    0  0.12550596686E+02 -0.48019399722E+01  0.13447154876E+02  0.19010578080E+02  0.00000000000E+00 0. -1.
<mgrwt>
<rscale>  0 0.57627872E+02</rscale>
<asrwt>0</asrwt>
<pdfrwt beam="1">  1        2 0.36240425E-02 0.93626775E+02</pdfrwt>
<pdfrwt beam="2">  1       -2 0.18725864E-01 0.93626775E+02</pdfrwt>
<totfact> 0.49181124E+04</totfact>
</mgrwt>
</event>
<event>
 6    1  0.1535970E-002  0.9350090E+02  0.7546771E-02  0.1386791E+00
         -3   -1    0    0    0  501 -0.00000000000E+00  0.00000000000E+00  0.12057130797E+02  0.12057130797E+02  0.00000000000E+00 0.  1.
          3   -1    0    0  501    0  0.00000000000E+00 -0.00000000000E+00 -0.27096143451E+03  0.27096143451E+03  0.00000000000E+00 0. -1.
         23    2    1    2    0    0 -0.38977041158E+01 -0.18515512231E+02 -0.23194649739E+03  0.25008317989E+03  0.91566385335E+02 0.  0.
         11    1    3    3    0    0  0.10243383163E+02  0.33002666298E+02 -0.52490483788E+02  0.62843884107E+02  0.00000000000E+00 0. -1.
        -11    1    3    3    0    0 -0.14141087279E+02 -0.51518178529E+02 -0.17945601360E+03  0.18723929578E+03  0.00000000000E+00 0.  1.
         22    1    1    2    0    0  0.38977041158E+01  0.18515512231E+02 -0.26957806324E+02  0.32935385414E+02  0.00000000000E+00 0. -1.
<mgrwt>
<rscale>  0 0.62711864E+02</rscale>
<asrwt>0</asrwt>
<pdfrwt beam="1">  1        3 0.41686371E-01 0.93500905E+02</pdfrwt>
<pdfrwt beam="2">  1       -3 0.18549434E-02 0.93500905E+02</pdfrwt>
<totfact> 0.12725525E+04</totfact>
</mgrwt>
</event>
<event>
 6    1  0.1535970E-002  0.8930627E+02  0.7546771E-02  0.1414818E+00
          1   -1    0    0  501    0  0.00000000000E+00  0.00000000000E+00  0.71532681183E+02  0.71532681183E+02  0.00000000000E+00 0. -1.
         -1   -1    0    0    0  501 -0.00000000000E+00 -0.00000000000E+00 -0.42073135445E+02  0.42073135445E+02  0.00000000000E+00 0.  1.
         23    2    1    2    0    0 -0.11631452915E+01 -0.13889641731E+02  0.38222263156E+02  0.97141908497E+02  0.88211869560E+02 0.  0.
         13    1    3    3    0    0 -0.10269783031E+02 -0.44705978594E+02 -0.16901402203E+01  0.45901520014E+02  0.00000000000E+00 0.  1.
        -13    1    3    3    0    0  0.91066377396E+01  0.30816336864E+02  0.39912403377E+02  0.51240388483E+02  0.00000000000E+00 0. -1.
         22    1    1    2    0    0  0.11631452915E+01  0.13889641731E+02 -0.87627174192E+01  0.16463908131E+02  0.00000000000E+00 0.  1.
<mgrwt>
<rscale>  0 0.56132395E+02</rscale>
<asrwt>0</asrwt>
<pdfrwt beam="1">  1        1 0.11005028E-01 0.89306265E+02</pdfrwt>
<pdfrwt beam="2">  1       -1 0.64727901E-02 0.89306265E+02</pdfrwt>
<totfact> 0.57321256E+04</totfact>
</mgrwt>
</event>
<event>
 6    1  0.1535970E-002  0.1116437E+03  0.7546771E-02  0.1286267E+00
         -2   -1    0    0    0  501 -0.00000000000E+00  0.00000000000E+00  0.37287846424E+03  0.37287846424E+03  0.00000000000E+00 0.  1.
          2   -1    0    0  501    0  0.00000000000E+00 -0.00000000000E+00 -0.21205769339E+02  0.21205769339E+02  0.00000000000E+00 0. -1.
         23    2    1    2    0    0 -0.63656483080E+02 -0.81832512427E+01  0.25077449242E+03  0.27450346296E+03  0.91352020706E+02 0.  0.
         11    1    3    3    0    0  0.18148372443E+02 -0.54947233438E+01  0.12880868955E+02  0.22923180233E+02  0.00000000000E+00 0. -1.
        -11    1    3    3    0    0 -0.81804855523E+02 -0.26885278990E+01  0.23789362347E+03  0.25158028273E+03  0.00000000000E+00 0.  1.
         22    1    1    2    0    0  0.63656483080E+02  0.81832512427E+01  0.10089820248E+03  0.11958077062E+03  0.00000000000E+00 0. -1.
<mgrwt>
<rscale>  0 0.97213369E+02</rscale>
<asrwt>0</asrwt>
<pdfrwt beam="1">  1        2 0.32624263E-02 0.11164365E+03</pdfrwt>
<pdfrwt beam="2">  1       -2 0.57365913E-01 0.11164365E+03</pdfrwt>
<totfact> 0.74893811E+03</totfact>
</mgrwt>
</event>
<event>
 6    1  0.1535970E-002  0.9444523E+02  0.7546771E-02  0.1358763E+00
          2   -1    0    0  501    0  0.00000000000E+00  0.00000000000E+00  0.26645084542E+03  0.26645084542E+03  0.00000000000E+00 0. -1.
         -2   -1    0    0    0  501 -0.00000000000E+00 -0.00000000000E+00 -0.16401666796E+02  0.16401666796E+02  0.00000000000E+00 0.  1.
         23    2    1    2    0    0  0.27429025886E+02  0.98532152675E+01  0.22643362043E+03  0.24534075538E+03  0.89835763907E+02 0.  0.
         11    1    3    3    0    0 -0.90175139329E+01  0.10429630541E+02 -0.20753733153E+01  0.13942737362E+02  0.00000000000E+00 0.  1.
        -11    1    3    3    0    0  0.36446539819E+02 -0.57641527379E+00  0.22850899375E+03  0.23139801802E+03  0.00000000000E+00 0. -1.
         22    1    1    2    0    0 -0.27429025886E+02 -0.98532152675E+01  0.23615558191E+02  0.37511756835E+02  0.00000000000E+00 0.  1.
<mgrwt>
<rscale>  0 0.70392509E+02</rscale>
<asrwt>0</asrwt>
<pdfrwt beam="1">  1        2 0.40992435E-01 0.94445232E+02</pdfrwt>
<pdfrwt beam="2">  1       -2 0.25233335E-02 0.94445232E+02</pdfrwt>
<totfact> 0.59572144E+04</totfact>
</mgrwt>
</event>
<event>
 6    1  0.1535970E-002  0.9112028E+02  0.7546771E-02  0.1417581E+00
          1   -1    0    0  501    0  0.00000000000E+00  0.00000000000E+00  0.15353314799E+02  0.15353314799E+02  0.00000000000E+00 0. -1.
         -1   -1    0    0    0  501 -0.00000000000E+00 -0.00000000000E+00 -0.18695551568E+03  0.18695551568E+03  0.00000000000E+00 0.  1.
         23    2    1    2    0    0 -0.12515769304E+02  0.12024101032E+01 -0.12932789419E+03  0.15820432643E+03  0.90248625551E+02 0.  0.
         13    1    3    3    0    0  0.75070692564E+01 -0.25610968645E+02 -0.12074139219E+03  0.12365581908E+03  0.00000000000E+00 0.  1.
        -13    1    3    3    0    0 -0.20022838561E+02  0.26813378748E+02 -0.85865020067E+01  0.34548507357E+02  0.00000000000E+00 0. -1.
         22    1    1    2    0    0  0.12515769304E+02 -0.12024101032E+01 -0.42274306689E+02  0.44104504049E+02  0.00000000000E+00 0.  1.
<mgrwt>
<rscale>  0 0.55535977E+02</rscale>
<asrwt>0</asrwt>
<pdfrwt beam="1">  1        1 0.23620484E-02 0.91120276E+02</pdfrwt>
<pdfrwt beam="2">  1       -1 0.28762387E-01 0.91120276E+02</pdfrwt>
<totfact> 0.45331249E+04</totfact>
</mgrwt>
</event>
<event>
 6    1  0.1535970E-002  0.9185915E+02  0.7546771E-02  0.1416417E+00
         -1   -1    0    0    0  501 -0.00000000000E+00  0.00000000000E+00  0.25812357000E+02  0.25812357000E+02  0.00000000000E+00 0.  1.
          1   -1    0    0  501    0  0.00000000000E+00 -0.00000000000E+00 -0.10742579121E+03  0.10742579121E+03  0.00000000000E+00 0. -1.
         23    2    1    2    0    0  0.40268672472E+01 -0.11828426077E+02 -0.77184144383E+02  0.11998122807E+03  0.91005360396E+02 0.  0.
         13    1    3    3    0    0  0.37008244688E+02 -0.10945329032E+02 -0.77948488877E+02  0.86979177512E+02  0.00000000000E+00 0. -1.
        -13    1    3    3    0    0 -0.32981377441E+02 -0.88309704576E+00  0.76434449326E+00  0.33002050554E+02  0.00000000000E+00 0.  1.
         22    1    1    2    0    0 -0.40268672472E+01  0.11828426077E+02 -0.44292898254E+01  0.13256920142E+02  0.00000000000E+00 0. -1.
<mgrwt>
<rscale>  0 0.55786186E+02</rscale>
<asrwt>0</asrwt>
<pdfrwt beam="1">  1        1 0.16527045E-01 0.91859147E+02</pdfrwt>
<pdfrwt beam="2">  1       -1 0.39711318E-02 0.91859147E+02</pdfrwt>
<totfact> 0.69747680E+04</totfact>
</mgrwt>
</event>
<event>
 6    1  0.1535970E-002  0.1001564E+03  0.7546771E-02  0.1346166E+00
         -2   -1    0    0    0  501 -0.00000000000E+00  0.00000000000E+00  0.53262328495E+01  0.53262328495E+01  0.00000000000E+00 0.  1.
          2   -1    0    0  501    0  0.00000000000E+00 -0.00000000000E+00 -0.14546666227E+04  0.14546666227E+04  0.00000000000E+00 0. -1.
         23    2    1    2    0    0 -0.66354847808E+01 -0.29538174839E+02 -0.13877953510E+04  0.13914047718E+04  0.95471300260E+02 0.  0.
         13    1    3    3    0    0 -0.39619718810E+02 -0.39386083673E+01 -0.27932515986E+03  0.28214850644E+03  0.00000000000E+00 0. -1.
        -13    1    3    3    0    0  0.32984234029E+02 -0.25599566472E+02 -0.11084701912E+04  0.11092562653E+04  0.00000000000E+00 0.  1.
         22    1    1    2    0    0  0.66354847808E+01  0.29538174839E+02 -0.61545038821E+02  0.68588083766E+02  0.00000000000E+00 0. -1.
<mgrwt>
<rscale>  0 0.74263863E+02</rscale>
<asrwt>0</asrwt>
<pdfrwt beam="1">  1        2 0.22379519E+00 0.10015639E+03</pdfrwt>
<pdfrwt beam="2">  1       -2 0.81941924E-03 0.10015639E+03</pdfrwt>
<totfact> 0.38185080E+04</totfact>
</mgrwt>
</event>
<event>
 6    1  0.1535970E-002  0.9220960E+02  0.7546771E-02  0.1403238E+00
          2   -1    0    0  501    0  0.00000000000E+00  0.00000000000E+00  0.80660672792E+03  0.80660672792E+03  0.00000000000E+00 0. -1.
         -2   -1    0    0    0  501 -0.00000000000E+00 -0.00000000000E+00 -0.53948051898E+01  0.53948051898E+01  0.00000000000E+00 0.  1.
         23    2    1    2    0    0 -0.12975746529E+01  0.15119226349E+02  0.78247951912E+03  0.78789390671E+03  0.90952381457E+02 0.  0.
         13    1    3    3    0    0  0.28530636805E+02 -0.15813544218E+02  0.13105538477E+03  0.13505398659E+03  0.00000000000E+00 0.  1.
        -13    1    3    3    0    0 -0.29828211458E+02  0.30932770566E+02  0.65142413435E+03  0.65283992012E+03  0.00000000000E+00 0. -1.
         22    1    1    2    0    0  0.12975746529E+01 -0.15119226349E+02  0.18732403614E+02  0.24107626397E+02  0.00000000000E+00 0.  1.
<mgrwt>
<rscale>  0 0.58730390E+02</rscale>
<asrwt>0</asrwt>
<pdfrwt beam="1">  1        2 0.12409325E+00 0.92209600E+02</pdfrwt>
<pdfrwt beam="2">  1       -2 0.82997067E-03 0.92209600E+02</pdfrwt>
<totfact> 0.86615504E+04</totfact>
</mgrwt>
</event>
<event>
 6    1  0.1535970E-002  0.9173928E+02  0.7546771E-02  0.1401984E+00
         -2   -1    0    0    0  501 -0.00000000000E+00  0.00000000000E+00  0.21683220828E+02  0.21683220828E+02  0.00000000000E+00 0.  1.
          2   -1    0    0  501    0  0.00000000000E+00 -0.00000000000E+00 -0.24821723924E+03  0.24821723924E+03  0.00000000000E+00 0. -1.
         23    2    1    2    0    0  0.10532118603E+01 -0.15682035282E+02 -0.23484038803E+03  0.25212319194E+03  0.90382855535E+02 0.  0.
         11    1    3    3    0    0  0.36839698367E+02  0.18198523227E+02 -0.12870514646E+03  0.13510501230E+03  0.00000000000E+00 0.  1.
        -11    1    3    3    0    0 -0.35786486506E+02 -0.33880558509E+02 -0.10613524157E+03  0.11701817963E+03  0.00000000000E+00 0. -1.
         22    1    1    2    0    0 -0.10532118603E+01  0.15682035282E+02  0.83063696238E+01  0.17777268129E+02  0.00000000000E+00 0.  1.
<mgrwt>
<rscale>  0 0.59021661E+02</rscale>
<asrwt>0</asrwt>
<pdfrwt beam="1">  1        2 0.38187270E-01 0.91739283E+02</pdfrwt>
<pdfrwt beam="2">  1       -2 0.33358799E-02 0.91739283E+02</pdfrwt>
<totfact> 0.42611953E+04</totfact>
</mgrwt>
</event>
<event>
 6    1  0.1535970E-002  0.1032066E+03  0.7546771E-02  0.1322830E+00
          4   -1    0    0  501    0  0.00000000000E+00  0.00000000000E+00  0.13778377140E+02  0.13778377140E+02  0.00000000000E+00 0. -1.
         -4   -1    0    0    0  501 -0.00000000000E+00 -0.00000000000E+00 -0.38050910051E+03  0.38050910051E+03  0.00000000000E+00 0.  1.
         23    2    1    2    0    0 -0.32741155008E+02 -0.25659825904E+02 -0.25931765192E+03  0.27910076915E+03  0.94452024045E+02 0.  0.
         13    1    3    3    0    0  0.17482551829E+02 -0.20067110633E+02 -0.19736716171E+03  0.19915352135E+03  0.00000000000E+00 0.  1.
        -13    1    3    3    0    0 -0.50223706837E+02 -0.55927152710E+01 -0.61950490216E+02  0.79947247798E+02  0.00000000000E+00 0. -1.
         22    1    1    2    0    0  0.32741155008E+02  0.25659825904E+02 -0.10741307144E+03  0.11518670849E+03  0.00000000000E+00 0. -1.
<mgrwt>
<rscale>  0 0.82233564E+02</rscale>
<asrwt>0</asrwt>
<pdfrwt beam="1">  1        4 0.21197504E-02 0.10320656E+03</pdfrwt>
<pdfrwt beam="2">  1       -4 0.58539860E-01 0.10320656E+03</pdfrwt>
<totfact> 0.39701622E+03</totfact>
</mgrwt>
</event>
<event>
 6    1  0.1535970E-002  0.9601084E+02  0.7546771E-02  0.1383764E+00
          3   -1    0    0  501    0  0.00000000000E+00  0.00000000000E+00  0.65534871637E+02  0.65534871637E+02  0.00000000000E+00 0. -1.
         -3   -1    0    0    0  501 -0.00000000000E+00 -0.00000000000E+00 -0.87067507943E+02  0.87067507943E+02  0.00000000000E+00 0.  1.
         23    2    1    2    0    0  0.11618192093E+02 -0.14207695097E+02  0.27809679684E+02  0.99957293060E+02  0.94240337246E+02 0.  0.
         11    1    3    3    0    0  0.19512434254E+02 -0.24622345413E+02  0.58610071067E+02  0.66499138450E+02  0.00000000000E+00 0. -1.
        -11    1    3    3    0    0 -0.78942421608E+01  0.10414650316E+02 -0.30800391384E+02  0.33458154610E+02  0.00000000000E+00 0.  1.
         22    1    1    2    0    0 -0.11618192093E+02  0.14207695097E+02 -0.49342315990E+02  0.52645086521E+02  0.00000000000E+00 0.  1.
<mgrwt>
<rscale>  0 0.63484592E+02</rscale>
<asrwt>0</asrwt>
<pdfrwt beam="1">  1        3 0.10082288E-01 0.96010844E+02</pdfrwt>
<pdfrwt beam="2">  1       -3 0.13395001E-01 0.96010844E+02</pdfrwt>
<totfact> 0.69037962E+03</totfact>
</mgrwt>
</event>
<event>
 6    1  0.1535970E-002  0.9461431E+02  0.7546771E-02  0.1376167E+00
         -2   -1    0    0    0  501 -0.00000000000E+00  0.00000000000E+00  0.39674109308E+02  0.39674109308E+02  0.00000000000E+00 0.  1.
          2   -1    0    0  501    0  0.00000000000E+00 -0.00000000000E+00 -0.28336099638E+03  0.28336099638E+03  0.00000000000E+00 0. -1.
         23    2    1    2    0    0  0.21681045911E+02 -0.10827449980E+01 -0.27163820878E+03  0.28764419620E+03  0.92090320063E+02 0.  0.
         13    1    3    3    0    0  0.74599441860E+01 -0.28785736895E+02 -0.24437205887E+02  0.38489562837E+02  0.00000000000E+00 0.  1.
        -13    1    3    3    0    0  0.14221101725E+02  0.27702991897E+02 -0.24720100290E+03  0.24915463336E+03  0.00000000000E+00 0. -1.
         22    1    1    2    0    0 -0.21681045911E+02  0.10827449980E+01  0.27951321713E+02  0.35390909483E+02  0.00000000000E+00 0.  1.
<mgrwt>
<rscale>  0 0.65482144E+02</rscale>
<asrwt>0</asrwt>
<pdfrwt beam="1">  1        2 0.43593999E-01 0.94614307E+02</pdfrwt>
<pdfrwt beam="2">  1       -2 0.61037092E-02 0.94614307E+02</pdfrwt>
<totfact> 0.15218135E+04</totfact>
</mgrwt>
</event>
<event>
 6    1  0.1535970E-002  0.9350430E+02  0.7546771E-02  0.1385208E+00
         -2   -1    0    0    0  501 -0.00000000000E+00  0.00000000000E+00  0.14136790939E+02  0.14136790939E+02  0.00000000000E+00 0.  1.
          2   -1    0    0  501    0  0.00000000000E+00 -0.00000000000E+00 -0.33254255082E+03  0.33254255082E+03  0.00000000000E+00 0. -1.
         23    2    1    2    0    0  0.11579024775E+02 -0.15577655823E+02 -0.31279977169E+03  0.32647626577E+03  0.91467577683E+02 0.  0.
         11    1    3    3    0    0 -0.32220140932E+01 -0.44380430517E+02 -0.26518892002E+03  0.26889620170E+03  0.00000000000E+00 0. -1.
        -11    1    3    3    0    0  0.14801038868E+02  0.28802774694E+02 -0.47610851669E+02  0.57580064070E+02  0.00000000000E+00 0.  1.
         22    1    1    2    0    0 -0.11579024775E+02  0.15577655823E+02 -0.56059881874E+01  0.20203075985E+02  0.00000000000E+00 0.  1.
<mgrwt>
<rscale>  0 0.63114408E+02</rscale>
<asrwt>0</asrwt>
<pdfrwt beam="1">  1        2 0.51160391E-01 0.93504304E+02</pdfrwt>
<pdfrwt beam="2">  1       -2 0.21748910E-02 0.93504304E+02</pdfrwt>
<totfact> 0.58472740E+04</totfact>
</mgrwt>
</event>
<event>
 6    1  0.1535970E-002  0.9220401E+02  0.7546771E-02  0.1399102E+00
          2   -1    0    0  501    0  0.00000000000E+00  0.00000000000E+00  0.57194531566E+02  0.57194531566E+02  0.00000000000E+00 0. -1.
         -2   -1    0    0    0  501 -0.00000000000E+00 -0.00000000000E+00 -0.70322450768E+02  0.70322450768E+02  0.00000000000E+00 0.  1.
         23    2    1    2    0    0  0.16042354782E+02  0.22765372986E+01  0.16575072561E+02  0.93681978437E+02  0.90769159324E+02 0.  0.
         13    1    3    3    0    0  0.22794403640E+02 -0.36072706071E+02 -0.13197083620E+02  0.44665288275E+02  0.00000000000E+00 0.  1.
        -13    1    3    3    0    0 -0.67520488579E+01  0.38349243370E+02  0.29772156181E+02  0.49016690162E+02  0.00000000000E+00 0. -1.
         22    1    1    2    0    0 -0.16042354782E+02 -0.22765372986E+01 -0.29702991763E+02  0.33835003897E+02  0.00000000000E+00 0.  1.
<mgrwt>
<rscale>  0 0.59698271E+02</rscale>
<asrwt>0</asrwt>
<pdfrwt beam="1">  1        2 0.87991588E-02 0.92204013E+02</pdfrwt>
<pdfrwt beam="2">  1       -2 0.10818838E-01 0.92204013E+02</pdfrwt>
<totfact> 0.38265643E+04</totfact>
</mgrwt>
</event>
<event>
 6    1  0.1535970E-002  0.9416296E+02  0.7546771E-02  0.1370466E+00
         -2   -1    0    0    0  501 -0.00000000000E+00  0.00000000000E+00  0.16803987801E+02  0.16803987801E+02  0.00000000000E+00 0.  1.
          2   -1    0    0  501    0  0.00000000000E+00 -0.00000000000E+00 -0.22165090017E+03  0.22165090017E+03  0.00000000000E+00 0. -1.
         23    2    1    2    0    0 -0.22745877397E+02  0.82329416044E+01 -0.18324787912E+03  0.20602535662E+03  0.91002780750E+02 0.  0.
         11    1    3    3    0    0 -0.26505444838E+02  0.36586625454E+02 -0.16726859073E+03  0.17326252108E+03  0.00000000000E+00 0. -1.
        -11    1    3    3    0    0  0.37595674410E+01 -0.28353683850E+02 -0.15979288393E+02  0.32762835542E+02  0.00000000000E+00 0.  1.
         22    1    1    2    0    0  0.22745877397E+02 -0.82329416044E+01 -0.21599033248E+02  0.32429531345E+02  0.00000000000E+00 0.  1.
<mgrwt>
<rscale>  0 0.67037691E+02</rscale>
<asrwt>0</asrwt>
<pdfrwt beam="1">  1        2 0.34100136E-01 0.94162956E+02</pdfrwt>
<pdfrwt beam="2">  1       -2 0.25852290E-02 0.94162956E+02</pdfrwt>
<totfact> 0.69810567E+04</totfact>
</mgrwt>
</event>
<event>
 6    1  0.1535970E-002  0.9117971E+02  0.7546771E-02  0.1393424E+00
         -2   -1    0    0    0  501 -0.00000000000E+00  0.00000000000E+00  0.13487645499E+03  0.13487645499E+03  0.00000000000E+00 0.  1.
          2   -1    0    0  501    0  0.00000000000E+00 -0.00000000000E+00 -0.30584196534E+02  0.30584196534E+02  0.00000000000E+00 0. -1.
         23    2    1    2    0    0 -0.15897972529E+02  0.91457434840E+01  0.41748271476E+02  0.10028289104E+03  0.89316011497E+02 0.  0.
         13    1    3    3    0    0 -0.28273789916E+02 -0.24929035359E+02  0.50473052355E+02  0.62995182468E+02  0.00000000000E+00 0.  1.
        -13    1    3    3    0    0  0.12375817387E+02  0.34074778843E+02 -0.87247808789E+01  0.37287708572E+02  0.00000000000E+00 0. -1.
         22    1    1    2    0    0  0.15897972529E+02 -0.91457434840E+01  0.62543986978E+02  0.65177760482E+02  0.00000000000E+00 0. -1.
<mgrwt>
<rscale>  0 0.61063132E+02</rscale>
<asrwt>0</asrwt>
<pdfrwt beam="1">  1        2 0.47052611E-02 0.91179713E+02</pdfrwt>
<pdfrwt beam="2">  1       -2 0.20750223E-01 0.91179713E+02</pdfrwt>
<totfact> 0.29343004E+04</totfact>
</mgrwt>
</event>
<event>
 6    1  0.1535970E-002  0.9096190E+02  0.7546771E-02  0.1422479E+00
         -2   -1    0    0    0  501 -0.00000000000E+00  0.00000000000E+00  0.22307982890E+01  0.22307982890E+01  0.00000000000E+00 0.  1.
          2   -1    0    0  501    0  0.00000000000E+00 -0.00000000000E+00 -0.21575064560E+04  0.21575064560E+04  0.00000000000E+00 0. -1.
         23    2    1    2    0    0 -0.11213737983E+01  0.11668217339E+02 -0.21292676518E+04  0.21312097036E+04  0.90203453800E+02 0.  0.
         13    1    3    3    0    0 -0.40888707487E+02  0.25841944272E+02 -0.12326373932E+04  0.12335860877E+04  0.00000000000E+00 0. -1.
        -13    1    3    3    0    0  0.39767333689E+02 -0.14173726933E+02 -0.89663025855E+03  0.89762361595E+03  0.00000000000E+00 0.  1.
         22    1    1    2    0    0  0.11213737983E+01 -0.11668217339E+02 -0.26008005916E+02  0.28527550663E+02  0.00000000000E+00 0.  1.
<mgrwt>
<rscale>  0 0.54499797E+02</rscale>
<asrwt>0</asrwt>
<pdfrwt beam="1">  1        2 0.33192633E+00 0.90961903E+02</pdfrwt>
<pdfrwt beam="2">  1       -2 0.34319740E-03 0.90961903E+02</pdfrwt>
<totfact> 0.56722458E+04</totfact>
</mgrwt>
</event>
<event>
 6    1  0.1535970E-002  0.9178288E+02  0.7546771E-02  0.1412406E+00
          2   -1    0    0  501    0  0.00000000000E+00  0.00000000000E+00  0.18604154617E+02  0.18604154617E+02  0.00000000000E+00 0. -1.
         -2   -1    0    0    0  501 -0.00000000000E+00 -0.00000000000E+00 -0.14886928629E+03  0.14886928629E+03  0.00000000000E+00 0.  1.
         23    2    1    2    0    0 -0.13312252920E+02  0.68965948936E+00 -0.11072945116E+03  0.14382318676E+03  0.90809724083E+02 0.  0.
         11    1    3    3    0    0  0.30320511003E+02 -0.18701519610E+02 -0.78531199941E+02  0.86233575754E+02  0.00000000000E+00 0.  1.
        -11    1    3    3    0    0 -0.43632763923E+02  0.19391179100E+02 -0.32198251222E+02  0.57589611009E+02  0.00000000000E+00 0. -1.
         22    1    1    2    0    0  0.13312252920E+02 -0.68965948936E+00 -0.19535680511E+02  0.23650254143E+02  0.00000000000E+00 0.  1.
<mgrwt>
<rscale>  0 0.56660404E+02</rscale>
<asrwt>0</asrwt>
<pdfrwt beam="1">  1        2 0.28621776E-02 0.91782883E+02</pdfrwt>
<pdfrwt beam="2">  1       -2 0.22902968E-01 0.91782883E+02</pdfrwt>
<totfact> 0.47742969E+04</totfact>
</mgrwt>
</event>
<event>
 6    1  0.1535970E-002  0.1072913E+03  0.7546771E-02  0.1377441E+00
         -2   -1    0    0    0  501 -0.00000000000E+00  0.00000000000E+00  0.45896916929E+01  0.45896916929E+01  0.00000000000E+00 0.  1.
          2   -1    0    0  501    0  0.00000000000E+00 -0.00000000000E+00 -0.12437543026E+04  0.12437543026E+04  0.00000000000E+00 0. -1.
         23    2    1    2    0    0  0.10905252644E+01 -0.14538383327E+02 -0.12175734713E+04  0.12222915252E+04  0.10629609962E+03 0.  0.
         13    1    3    3    0    0  0.66280534878E-02  0.16831151460E+02 -0.11125636188E+04  0.11126909246E+04  0.00000000000E+00 0. -1.
        -13    1    3    3    0    0  0.10838972109E+01 -0.31369534786E+02 -0.10500985245E+03  0.10960060062E+03  0.00000000000E+00 0.  1.
         22    1    1    2    0    0 -0.10905252644E+01  0.14538383327E+02 -0.21591139635E+02  0.26052469093E+02  0.00000000000E+00 0. -1.
<mgrwt>
<rscale>  0 0.65141369E+02</rscale>
<asrwt>0</asrwt>
<pdfrwt beam="1">  1        2 0.19134683E+00 0.10729126E+03</pdfrwt>
<pdfrwt beam="2">  1       -2 0.70610635E-03 0.10729126E+03</pdfrwt>
<totfact> 0.61290155E+04</totfact>
</mgrwt>
</event>
<event>
 6    1  0.1535970E-002  0.9110639E+02  0.7546771E-02  0.1427691E+00
         -2   -1    0    0    0  501 -0.00000000000E+00  0.00000000000E+00  0.13523891649E+02  0.13523891649E+02  0.00000000000E+00 0.  1.
          2   -1    0    0  501    0  0.00000000000E+00 -0.00000000000E+00 -0.25332625647E+03  0.25332625647E+03  0.00000000000E+00 0. -1.
         23    2    1    2    0    0 -0.89135372886E+01 -0.60518418116E+01 -0.23930925124E+03  0.25606501496E+03  0.90467111267E+02 0.  0.
         11    1    3    3    0    0 -0.13315063757E+02 -0.19314216659E+02 -0.24086525368E+03  0.24200495929E+03  0.00000000000E+00 0. -1.
        -11    1    3    3    0    0  0.44015264683E+01  0.13262374847E+02  0.15560024457E+01  0.14060055670E+02  0.00000000000E+00 0.  1.
         22    1    1    2    0    0  0.89135372886E+01  0.60518418116E+01 -0.49311358369E+00  0.10785133162E+02  0.00000000000E+00 0.  1.
<mgrwt>
<rscale>  0 0.53426214E+02</rscale>
<asrwt>0</asrwt>
<pdfrwt beam="1">  1        2 0.38973266E-01 0.91106389E+02</pdfrwt>
<pdfrwt beam="2">  1       -2 0.20805989E-02 0.91106389E+02</pdfrwt>
<totfact> 0.82558430E+04</totfact>
</mgrwt>
</event>
<event>
 6    1  0.1535970E-002  0.1009524E+03  0.7546771E-02  0.1378978E+00
          2   -1    0    0  501    0  0.00000000000E+00  0.00000000000E+00  0.82539849636E+03  0.82539849636E+03  0.00000000000E+00 0. -1.
         -2   -1    0    0    0  501 -0.00000000000E+00 -0.00000000000E+00 -0.81315353348E+01  0.81315353348E+01  0.00000000000E+00 0.  1.
         23    2    1    2    0    0 -0.81780114125E+01  0.14980236111E+02  0.80766011337E+03  0.81394486214E+03  0.99499208706E+02 0.  0.
         13    1    3    3    0    0 -0.41596274679E+01 -0.21344089548E+02  0.69832692762E+03  0.69866542099E+03  0.00000000000E+00 0. -1.
        -13    1    3    3    0    0 -0.40183839446E+01  0.36324325659E+02  0.10933318575E+03  0.11527944115E+03  0.00000000000E+00 0.  1.
         22    1    1    2    0    0  0.81780114125E+01 -0.14980236111E+02  0.96068476578E+01  0.19585169556E+02  0.00000000000E+00 0.  1.
<mgrwt>
<rscale>  0 0.64733274E+02</rscale>
<asrwt>0</asrwt>
<pdfrwt beam="1">  1        2 0.12698432E+00 0.10095236E+03</pdfrwt>
<pdfrwt beam="2">  1       -2 0.12510061E-02 0.10095236E+03</pdfrwt>
<totfact> 0.47557760E+04</totfact>
</mgrwt>
</event>
<event>
 6    1  0.1535970E-002  0.9598439E+02  0.7546771E-02  0.1389952E+00
          2   -1    0    0  501    0  0.00000000000E+00  0.00000000000E+00  0.48594496581E+03  0.48594496581E+03  0.00000000000E+00 0. -1.
         -2   -1    0    0    0  501 -0.00000000000E+00 -0.00000000000E+00 -0.86643380772E+01  0.86643380772E+01  0.00000000000E+00 0.  1.
         23    2    1    2    0    0 -0.16583677181E+02 -0.11283858902E+01  0.46253531826E+03  0.47238958843E+03  0.94534179080E+02 0.  0.
         13    1    3    3    0    0 -0.48559324884E+02  0.92438899666E+01  0.38104713500E+03  0.38423999873E+03  0.00000000000E+00 0. -1.
        -13    1    3    3    0    0  0.31975647703E+02 -0.10372275857E+02  0.81488183264E+02  0.88149589700E+02  0.00000000000E+00 0.  1.
         22    1    1    2    0    0  0.16583677181E+02  0.11283858902E+01  0.14745309470E+02  0.22219715456E+02  0.00000000000E+00 0.  1.
<mgrwt>
<rscale>  0 0.61918640E+02</rscale>
<asrwt>0</asrwt>
<pdfrwt beam="1">  1        2 0.74760743E-01 0.95984387E+02</pdfrwt>
<pdfrwt beam="2">  1       -2 0.13329755E-02 0.95984387E+02</pdfrwt>
<totfact> 0.79208621E+04</totfact>
</mgrwt>
</event>
<event>
 6    1  0.1535970E-002  0.9536972E+02  0.7546771E-02  0.1374340E+00
         -2   -1    0    0    0  501 -0.00000000000E+00  0.00000000000E+00  0.17714104249E+02  0.17714104249E+02  0.00000000000E+00 0.  1.
          2   -1    0    0  501    0  0.00000000000E+00 -0.00000000000E+00 -0.22896332309E+03  0.22896332309E+03  0.00000000000E+00 0. -1.
         23    2    1    2    0    0 -0.19519385156E+02  0.98016313934E+01 -0.20115030190E+03  0.22261362676E+03  0.92834823706E+02 0.  0.
         11    1    3    3    0    0  0.31536466212E+02  0.21079305687E+02 -0.12192798277E+03  0.12769228172E+03  0.00000000000E+00 0. -1.
        -11    1    3    3    0    0 -0.51055851368E+02 -0.11277674294E+02 -0.79222319130E+02  0.94921345043E+02  0.00000000000E+00 0.  1.
         22    1    1    2    0    0  0.19519385156E+02 -0.98016313934E+01 -0.10098916949E+02  0.24063800581E+02  0.00000000000E+00 0. -1.
<mgrwt>
<rscale>  0 0.65975332E+02</rscale>
<asrwt>0</asrwt>
<pdfrwt beam="1">  1        2 0.35225124E-01 0.95369717E+02</pdfrwt>
<pdfrwt beam="2">  1       -2 0.27252470E-02 0.95369717E+02</pdfrwt>
<totfact> 0.62595091E+04</totfact>
</mgrwt>
</event>
<event>
 6    1  0.1535970E-002  0.9998441E+02  0.7546771E-02  0.1349322E+00
         -2   -1    0    0    0  501 -0.00000000000E+00  0.00000000000E+00  0.94431068853E+01  0.94431068853E+01  0.00000000000E+00 0.  1.
          2   -1    0    0  501    0  0.00000000000E+00 -0.00000000000E+00 -0.56227009047E+03  0.56227009047E+03  0.00000000000E+00 0. -1.
         23    2    1    2    0    0  0.18928890208E+02 -0.21745728123E+02 -0.51237224459E+03  0.52203658834E+03  0.95737677868E+02 0.  0.
         11    1    3    3    0    0  0.14727961083E+02 -0.25782140654E+02 -0.40968957248E+02  0.50597303015E+02  0.00000000000E+00 0.  1.
        -11    1    3    3    0    0  0.42009291257E+01  0.40364125308E+01 -0.47140328734E+03  0.47143928533E+03  0.00000000000E+00 0. -1.
         22    1    1    2    0    0 -0.18928890208E+02  0.21745728123E+02 -0.40454738995E+02  0.49676609016E+02  0.00000000000E+00 0. -1.
<mgrwt>
<rscale>  0 0.73267450E+02</rscale>
<asrwt>0</asrwt>
<pdfrwt beam="1">  1        2 0.86503115E-01 0.99984411E+02</pdfrwt>
<pdfrwt beam="2">  1       -2 0.14527853E-02 0.99984411E+02</pdfrwt>
<totfact> 0.60050902E+04</totfact>
</mgrwt>
</event>
<event>
 6    1  0.1535970E-002  0.8085479E+02  0.7546771E-02  0.1396686E+00
         -1   -1    0    0    0  501 -0.00000000000E+00  0.00000000000E+00  0.75332450529E+01  0.75332450529E+01  0.00000000000E+00 0.  1.
          1   -1    0    0  501    0  0.00000000000E+00 -0.00000000000E+00 -0.40743090610E+03  0.40743090610E+03  0.00000000000E+00 0. -1.
         23    2    1    2    0    0  0.24886029661E+02 -0.20319073314E+01 -0.34936644675E+03  0.35860062804E+03  0.76902881572E+02 0.  0.
         11    1    3    3    0    0  0.31261806769E+02 -0.34572338934E+02 -0.17448708251E+03  0.18060534085E+03  0.00000000000E+00 0. -1.
        -11    1    3    3    0    0 -0.63757771084E+01  0.32540431603E+02 -0.17487936424E+03  0.17799528718E+03  0.00000000000E+00 0.  1.
         22    1    1    2    0    0 -0.24886029661E+02  0.20319073314E+01 -0.50531214294E+02  0.56363523113E+02  0.00000000000E+00 0.  1.
<mgrwt>
<rscale>  0 0.60273846E+02</rscale>
<asrwt>0</asrwt>
<pdfrwt beam="1">  1        1 0.62681698E-01 0.80854785E+02</pdfrwt>
<pdfrwt beam="2">  1       -1 0.11589604E-02 0.80854785E+02</pdfrwt>
<totfact> 0.76733612E+04</totfact>
</mgrwt>
</event>
<event>
 6    1  0.1535970E-002  0.8135643E+02  0.7546771E-02  0.1452104E+00
         -2   -1    0    0    0  501 -0.00000000000E+00  0.00000000000E+00  0.52981363107E+01  0.52981363107E+01  0.00000000000E+00 0.  1.
          2   -1    0    0  501    0  0.00000000000E+00 -0.00000000000E+00 -0.45805123643E+03  0.45805123643E+03  0.00000000000E+00 0. -1.
         23    2    1    2    0    0 -0.58374991705E+01 -0.87325477038E+01 -0.43636227414E+03  0.44388163116E+03  0.80675488237E+02 0.  0.
         11    1    3    3    0    0  0.24007681657E+02 -0.19162629391E+02 -0.73718117205E+02  0.79861980616E+02  0.00000000000E+00 0. -1.
        -11    1    3    3    0    0 -0.29845180827E+02  0.10430081687E+02 -0.36264415694E+03  0.36401965055E+03  0.00000000000E+00 0.  1.
         22    1    1    2    0    0  0.58374991705E+01  0.87325477038E+01 -0.16390825975E+02  0.19467741577E+02  0.00000000000E+00 0.  1.
<mgrwt>
<rscale>  0 0.48767721E+02</rscale>
<asrwt>0</asrwt>
<pdfrwt beam="1">  1        2 0.70469427E-01 0.81356427E+02</pdfrwt>
<pdfrwt beam="2">  1       -2 0.81509783E-03 0.81356427E+02</pdfrwt>
<totfact> 0.16513364E+05</totfact>
</mgrwt>
</event>
<event>
 6    1  0.1535970E-002  0.1001129E+03  0.7546771E-02  0.1325745E+00
         -2   -1    0    0    0  501 -0.00000000000E+00  0.00000000000E+00  0.21373195280E+02  0.21373195280E+02  0.00000000000E+00 0.  1.
          2   -1    0    0  501    0  0.00000000000E+00 -0.00000000000E+00 -0.36474348301E+03  0.36474348301E+03  0.00000000000E+00 0. -1.
         23    2    1    2    0    0  0.30462895748E+01  0.43169719070E+02 -0.32323724228E+03  0.33838572352E+03  0.90275570106E+02 0.  0.
         13    1    3    3    0    0  0.46431200389E+02  0.17533305656E+02 -0.16749268080E+03  0.17469136011E+03  0.00000000000E+00 0. -1.
        -13    1    3    3    0    0 -0.43384910814E+02  0.25636413414E+02 -0.15574456148E+03  0.16369436340E+03  0.00000000000E+00 0.  1.
         22    1    1    2    0    0 -0.30462895748E+01 -0.43169719070E+02 -0.20133045453E+02  0.47730954778E+02  0.00000000000E+00 0.  1.
<mgrwt>
<rscale>  0 0.81176782E+02</rscale>
<asrwt>0</asrwt>
<pdfrwt beam="1">  1        2 0.56114386E-01 0.10011285E+03</pdfrwt>
<pdfrwt beam="2">  1       -2 0.32881836E-02 0.10011285E+03</pdfrwt>
<totfact> 0.29368542E+04</totfact>
</mgrwt>
</event>
<event>
 6    1  0.1535970E-002  0.9690028E+02  0.7546771E-02  0.1394177E+00
         -3   -1    0    0    0  501 -0.00000000000E+00  0.00000000000E+00  0.20257141581E+02  0.20257141581E+02  0.00000000000E+00 0.  1.
          3   -1    0    0  501    0  0.00000000000E+00 -0.00000000000E+00 -0.15660532259E+03  0.15660532259E+03  0.00000000000E+00 0. -1.
         23    2    1    2    0    0  0.14570708771E+02  0.39540966054E+01 -0.12391560970E+03  0.15730462013E+03  0.95716898993E+02 0.  0.
         11    1    3    3    0    0  0.26471803046E+02 -0.16863649494E+02 -0.12902423753E+03  0.13278702083E+03  0.00000000000E+00 0. -1.
        -11    1    3    3    0    0 -0.11901094274E+02  0.20817746099E+02  0.51086278213E+01  0.24517599307E+02  0.00000000000E+00 0.  1.
         22    1    1    2    0    0 -0.14570708771E+02 -0.39540966054E+01 -0.12432571300E+02  0.19557844033E+02  0.00000000000E+00 0. -1.
<mgrwt>
<rscale>  0 0.60879554E+02</rscale>
<asrwt>0</asrwt>
<pdfrwt beam="1">  1        3 0.24093126E-01 0.96900285E+02</pdfrwt>
<pdfrwt beam="2">  1       -3 0.31164833E-02 0.96900285E+02</pdfrwt>
<totfact> 0.16071324E+04</totfact>
</mgrwt>
</event>
<event>
 6    1  0.1535970E-002  0.1055838E+03  0.7546771E-02  0.1300592E+00
         -2   -1    0    0    0  501 -0.00000000000E+00  0.00000000000E+00  0.17819554566E+02  0.17819554566E+02  0.00000000000E+00 0.  1.
          2   -1    0    0  501    0  0.00000000000E+00 -0.00000000000E+00 -0.39143294073E+03  0.39143294073E+03  0.00000000000E+00 0. -1.
         23    2    1    2    0    0  0.56601011508E+02  0.13139767211E+02 -0.27790545176E+03  0.29728671171E+03  0.88156796993E+02 0.  0.
         11    1    3    3    0    0  0.66147202528E+02 -0.99939070494E+00 -0.27087236531E+03  0.27883380260E+03  0.00000000000E+00 0. -1.
        -11    1    3    3    0    0 -0.95461910202E+01  0.14139157916E+02 -0.70330864468E+01  0.18452909108E+02  0.00000000000E+00 0.  1.
         22    1    1    2    0    0 -0.56601011508E+02 -0.13139767211E+02 -0.95707934410E+02  0.11196578359E+03  0.00000000000E+00 0.  1.
<mgrwt>
<rscale>  0 0.90939736E+02</rscale>
<asrwt>0</asrwt>
<pdfrwt beam="1">  1        2 0.60220455E-01 0.10558385E+03</pdfrwt>
<pdfrwt beam="2">  1       -2 0.27414698E-02 0.10558385E+03</pdfrwt>
<totfact> 0.35757370E+04</totfact>
</mgrwt>
</event>
<event>
 6    1  0.1535970E-002  0.9983349E+02  0.7546771E-02  0.1333646E+00
         -2   -1    0    0    0  501 -0.00000000000E+00  0.00000000000E+00  0.11676742719E+03  0.11676742719E+03  0.00000000000E+00 0.  1.
          2   -1    0    0  501    0  0.00000000000E+00 -0.00000000000E+00 -0.46629063462E+02  0.46629063462E+02  0.00000000000E+00 0. -1.
         23    2    1    2    0    0 -0.70272369801E+01  0.37319033514E+02  0.22257438458E+02  0.10228450061E+03  0.92328940083E+02 0.  0.
         11    1    3    3    0    0 -0.30113751923E+02  0.44220635889E+02  0.44426723031E+02  0.69541616408E+02  0.00000000000E+00 0.  1.
        -11    1    3    3    0    0  0.23086514943E+02 -0.69016023751E+01 -0.22169284573E+02  0.32742884205E+02  0.00000000000E+00 0. -1.
         22    1    1    2    0    0  0.70272369801E+01 -0.37319033514E+02  0.47880925272E+02  0.61111990042E+02  0.00000000000E+00 0. -1.
<mgrwt>
<rscale>  0 0.78402754E+02</rscale>
<asrwt>0</asrwt>
<pdfrwt beam="1">  1        2 0.71737021E-02 0.99833489E+02</pdfrwt>
<pdfrwt beam="2">  1       -2 0.17964219E-01 0.99833489E+02</pdfrwt>
<totfact> 0.22033307E+04</totfact>
</mgrwt>
</event>
<event>
 6    1  0.1535970E-002  0.1350021E+03  0.7546771E-02  0.1254804E+00
         -2   -1    0    0    0  501 -0.00000000000E+00  0.00000000000E+00  0.77676072621E+01  0.77676072621E+01  0.00000000000E+00 0.  1.
          2   -1    0    0  501    0  0.00000000000E+00 -0.00000000000E+00 -0.16422993623E+04  0.16422993623E+04  0.00000000000E+00 0. -1.
         23    2    1    2    0    0 -0.24869505122E+02 -0.61861349486E+02 -0.13922082604E+04  0.13987385094E+04  0.11738934555E+03 0.  0.
         11    1    3    3    0    0  0.41322466295E+02 -0.52676082519E+02 -0.79076832687E+03  0.79359741851E+03  0.00000000000E+00 0. -1.
        -11    1    3    3    0    0 -0.66191971417E+02 -0.91852669675E+01 -0.60143993350E+03  0.60514109084E+03  0.00000000000E+00 0.  1.
         22    1    1    2    0    0  0.24869505122E+02  0.61861349486E+02 -0.24232349468E+03  0.25132846022E+03  0.00000000000E+00 0.  1.
<mgrwt>
<rscale>  0 0.11317314E+03</rscale>
<asrwt>0</asrwt>
<pdfrwt beam="1">  1        2 0.25266145E+00 0.13500214E+03</pdfrwt>
<pdfrwt beam="2">  1       -2 0.11950165E-02 0.13500214E+03</pdfrwt>
<totfact> 0.18240641E+04</totfact>
</mgrwt>
</event>
<event>
 6    1  0.1535970E-002  0.9355092E+02  0.7546771E-02  0.1364696E+00
         -2   -1    0    0    0  501 -0.00000000000E+00  0.00000000000E+00  0.12358003771E+02  0.12358003771E+02  0.00000000000E+00 0.  1.
          2   -1    0    0  501    0  0.00000000000E+00 -0.00000000000E+00 -0.31398766938E+03  0.31398766938E+03  0.00000000000E+00 0. -1.
         23    2    1    2    0    0  0.86885098135E+01  0.25722346166E+02 -0.26289022541E+03  0.27903950525E+03  0.89524552926E+02 0.  0.
         13    1    3    3    0    0  0.20532151903E+02  0.55929298058E+02 -0.14492778157E+03  0.15669625877E+03  0.00000000000E+00 0.  1.
        -13    1    3    3    0    0 -0.11843642090E+02 -0.30206951892E+02 -0.11796244384E+03  0.12234324647E+03  0.00000000000E+00 0. -1.
         22    1    1    2    0    0 -0.86885098135E+01 -0.25722346166E+02 -0.38739440202E+02  0.47306167909E+02  0.00000000000E+00 0. -1.
<mgrwt>
<rscale>  0 0.68663986E+02</rscale>
<asrwt>0</asrwt>
<pdfrwt beam="1">  1        2 0.48305796E-01 0.93550921E+02</pdfrwt>
<pdfrwt beam="2">  1       -2 0.19012313E-02 0.93550921E+02</pdfrwt>
<totfact> 0.75346164E+04</totfact>
</mgrwt>
</event>
<event>
 6    1  0.1535970E-002  0.9488919E+02  0.7546771E-02  0.1390750E+00
          2   -1    0    0  501    0  0.00000000000E+00  0.00000000000E+00  0.69498909279E+02  0.69498909279E+02  0.00000000000E+00 0. -1.
         -2   -1    0    0    0  501 -0.00000000000E+00 -0.00000000000E+00 -0.46946378429E+02  0.46946378429E+02  0.00000000000E+00 0.  1.
         23    2    1    2    0    0 -0.16004088669E+02  0.56891828436E+01  0.27428782001E+02  0.98773969679E+02  0.93356635268E+02 0.  0.
         13    1    3    3    0    0 -0.83230799615E+01 -0.50806987175E+00  0.62134867427E+02  0.62691893775E+02  0.00000000000E+00 0. -1.
        -13    1    3    3    0    0 -0.76810087078E+01  0.61972527153E+01 -0.34706085425E+02  0.36082075904E+02  0.00000000000E+00 0.  1.
         22    1    1    2    0    0  0.16004088669E+02 -0.56891828436E+01 -0.48762511514E+01  0.17671318028E+02  0.00000000000E+00 0.  1.
<mgrwt>
<rscale>  0 0.61720630E+02</rscale>
<asrwt>0</asrwt>
<pdfrwt beam="1">  1        2 0.10692140E-01 0.94889193E+02</pdfrwt>
<pdfrwt beam="2">  1       -2 0.72225198E-02 0.94889193E+02</pdfrwt>
<totfact> 0.56499660E+04</totfact>
</mgrwt>
</event>
<event>
 6    1  0.1535970E-002  0.9469112E+02  0.7546771E-02  0.1379509E+00
          2   -1    0    0  501    0  0.00000000000E+00  0.00000000000E+00  0.21851467587E+02  0.21851467587E+02  0.00000000000E+00 0. -1.
         -2   -1    0    0    0  501 -0.00000000000E+00 -0.00000000000E+00 -0.15536642860E+03  0.15536642860E+03  0.00000000000E+00 0.  1.
         23    2    1    2    0    0  0.65424562376E+01 -0.19431056951E+02 -0.98440051917E+02  0.13659008606E+03  0.92444783952E+02 0.  0.
         11    1    3    3    0    0  0.16483791675E+02 -0.15331958043E+02 -0.11481436543E+03  0.11700052493E+03  0.00000000000E+00 0.  1.
        -11    1    3    3    0    0 -0.99413354376E+01 -0.40990989075E+01  0.16374313512E+02  0.19589561126E+02  0.00000000000E+00 0. -1.
         22    1    1    2    0    0 -0.65424562376E+01  0.19431056951E+02 -0.35074909094E+02  0.40627810128E+02  0.00000000000E+00 0. -1.
<mgrwt>
<rscale>  0 0.64593060E+02</rscale>
<asrwt>0</asrwt>
<pdfrwt beam="1">  1        2 0.33617644E-02 0.94691118E+02</pdfrwt>
<pdfrwt beam="2">  1       -2 0.23902527E-01 0.94691118E+02</pdfrwt>
<totfact> 0.36000223E+04</totfact>
</mgrwt>
</event>
<event>
 6    1  0.1535970E-002  0.9284445E+02  0.7546771E-02  0.1408372E+00
         -2   -1    0    0    0  501 -0.00000000000E+00  0.00000000000E+00  0.13187031644E+02  0.13187031644E+02  0.00000000000E+00 0.  1.
          2   -1    0    0  501    0  0.00000000000E+00 -0.00000000000E+00 -0.22553089756E+03  0.22553089756E+03  0.00000000000E+00 0. -1.
         23    2    1    2    0    0 -0.12226364511E+02 -0.62129105986E+01 -0.19895222234E+03  0.21954971685E+03  0.91825961181E+02 0.  0.
         13    1    3    3    0    0 -0.31139178401E+02 -0.25666438529E+02 -0.18439583963E+03  0.18875974192E+03  0.00000000000E+00 0. -1.
        -13    1    3    3    0    0  0.18912813890E+02  0.19453527930E+02 -0.14556382707E+02  0.30789974922E+02  0.00000000000E+00 0.  1.
         22    1    1    2    0    0  0.12226364511E+02  0.62129105986E+01 -0.13391643577E+02  0.19168212357E+02  0.00000000000E+00 0. -1.
<mgrwt>
<rscale>  0 0.57558704E+02</rscale>
<asrwt>0</asrwt>
<pdfrwt beam="1">  1        2 0.34697061E-01 0.92844447E+02</pdfrwt>
<pdfrwt beam="2">  1       -2 0.20287741E-02 0.92844447E+02</pdfrwt>
<totfact> 0.97038661E+04</totfact>
</mgrwt>
</event>
<event>
 6    1  0.1535970E-002  0.9677046E+02  0.7546771E-02  0.1345395E+00
         -2   -1    0    0    0  501 -0.00000000000E+00  0.00000000000E+00  0.11627490175E+02  0.11627490175E+02  0.00000000000E+00 0.  1.
          2   -1    0    0  501    0  0.00000000000E+00 -0.00000000000E+00 -0.38468899427E+03  0.38468899427E+03  0.00000000000E+00 0. -1.
         23    2    1    2    0    0 -0.17722299929E+02 -0.29029731986E+02 -0.30882117428E+03  0.32362793494E+03  0.90596453229E+02 0.  0.
         11    1    3    3    0    0  0.39935422780E+01 -0.58364329320E+02 -0.21889152276E+03  0.22657414251E+03  0.00000000000E+00 0. -1.
        -11    1    3    3    0    0 -0.21715842207E+02  0.29334597334E+02 -0.89929651523E+02  0.97053792437E+02  0.00000000000E+00 0.  1.
         22    1    1    2    0    0  0.17722299929E+02  0.29029731986E+02 -0.64240329811E+02  0.72688549498E+02  0.00000000000E+00 0.  1.
<mgrwt>
<rscale>  0 0.74510014E+02</rscale>
<asrwt>0</asrwt>
<pdfrwt beam="1">  1        2 0.59182922E-01 0.96770463E+02</pdfrwt>
<pdfrwt beam="2">  1       -2 0.17888446E-02 0.96770463E+02</pdfrwt>
<totfact> 0.66761539E+04</totfact>
</mgrwt>
</event>
<event>
 6    1  0.1535970E-002  0.8905871E+02  0.7546771E-02  0.1400405E+00
          1   -1    0    0  501    0  0.00000000000E+00  0.00000000000E+00  0.49423243394E+02  0.49423243394E+02  0.00000000000E+00 0. -1.
         -1   -1    0    0    0  501 -0.00000000000E+00 -0.00000000000E+00 -0.74753097514E+02  0.74753097514E+02  0.00000000000E+00 0.  1.
         23    2    1    2    0    0  0.17489261745E+02 -0.20913889689E+01  0.48955393582E+01  0.89193165021E+02  0.87299520025E+02 0.  0.
         11    1    3    3    0    0  0.33734619416E+01 -0.21744150151E+01  0.45772172331E+02  0.45947797401E+02  0.00000000000E+00 0. -1.
        -11    1    3    3    0    0  0.14115799803E+02  0.83026046167E-01 -0.40876632973E+02  0.43245367620E+02  0.00000000000E+00 0.  1.
         22    1    1    2    0    0 -0.17489261745E+02  0.20913889689E+01 -0.30225393478E+02  0.34983175886E+02  0.00000000000E+00 0. -1.
<mgrwt>
<rscale>  0 0.59391045E+02</rscale>
<asrwt>0</asrwt>
<pdfrwt beam="1">  1        1 0.76035760E-02 0.89058713E+02</pdfrwt>
<pdfrwt beam="2">  1       -1 0.11500476E-01 0.89058713E+02</pdfrwt>
<totfact> 0.39390225E+04</totfact>
</mgrwt>
</event>
<event>
 6    1  0.1535970E-002  0.9439005E+02  0.7546771E-02  0.1403373E+00
          2   -1    0    0  501    0  0.00000000000E+00  0.00000000000E+00  0.29641648279E+02  0.29641648279E+02  0.00000000000E+00 0. -1.
         -2   -1    0    0    0  501 -0.00000000000E+00 -0.00000000000E+00 -0.10827890028E+03  0.10827890028E+03  0.00000000000E+00 0.  1.
         23    2    1    2    0    0 -0.13664531278E+02  0.35468557221E+01 -0.80008192087E+02  0.12373678752E+03  0.93328356810E+02 0.  0.
         11    1    3    3    0    0 -0.17553028109E+02 -0.19378352126E+02 -0.93340336251E+02  0.96933212566E+02  0.00000000000E+00 0.  1.
        -11    1    3    3    0    0  0.38884968308E+01  0.22925207848E+02  0.13332144164E+02  0.26803574957E+02  0.00000000000E+00 0. -1.
         22    1    1    2    0    0  0.13664531278E+02 -0.35468557221E+01  0.13709400818E+01  0.14183761041E+02  0.00000000000E+00 0. -1.
<mgrwt>
<rscale>  0 0.58699306E+02</rscale>
<asrwt>0</asrwt>
<pdfrwt beam="1">  1        2 0.45602536E-02 0.94390051E+02</pdfrwt>
<pdfrwt beam="2">  1       -2 0.16658292E-01 0.94390051E+02</pdfrwt>
<totfact> 0.44217855E+04</totfact>
</mgrwt>
</event>
<event>
 6    1  0.1535970E-002  0.9102904E+02  0.7546771E-02  0.1432714E+00
          1   -1    0    0  501    0  0.00000000000E+00  0.00000000000E+00  0.44942556497E+03  0.44942556497E+03  0.00000000000E+00 0. -1.
         -1   -1    0    0    0  501 -0.00000000000E+00 -0.00000000000E+00 -0.58954234757E+01  0.58954234757E+01  0.00000000000E+00 0.  1.
         23    2    1    2    0    0  0.63302942778E+01 -0.77536021330E+01  0.41998083740E+03  0.42973269630E+03  0.90477044124E+02 0.  0.
         11    1    3    3    0    0 -0.13551397552E+02  0.35368867687E+02  0.11498698710E+03  0.12106446374E+03  0.00000000000E+00 0.  1.
        -11    1    3    3    0    0  0.19881691830E+02 -0.43122469820E+02  0.30499385030E+03  0.30866823256E+03  0.00000000000E+00 0. -1.
         22    1    1    2    0    0 -0.63302942778E+01  0.77536021330E+01  0.23549304096E+02  0.25588292149E+02  0.00000000000E+00 0.  1.
<mgrwt>
<rscale>  0 0.52418978E+02</rscale>
<asrwt>0</asrwt>
<pdfrwt beam="1">  1        1 0.69142368E-01 0.91029042E+02</pdfrwt>
<pdfrwt beam="2">  1       -1 0.90698858E-03 0.91029042E+02</pdfrwt>
<totfact> 0.97570980E+04</totfact>
</mgrwt>
</event>
<event>
 6    1  0.1535970E-002  0.1215553E+03  0.7546771E-02  0.1266333E+00
         -2   -1    0    0    0  501 -0.00000000000E+00  0.00000000000E+00  0.53976454373E+02  0.53976454373E+02  0.00000000000E+00 0.  1.
          2   -1    0    0  501    0  0.00000000000E+00 -0.00000000000E+00 -0.17772164189E+03  0.17772164189E+03  0.00000000000E+00 0. -1.
         23    2    1    2    0    0 -0.19664251075E+02  0.70128710588E+02 -0.90988952828E+02  0.15183765718E+03  0.97318887081E+02 0.  0.
         11    1    3    3    0    0  0.27923832898E+02  0.82354489649E+01  0.34375098402E+01  0.29315175887E+02  0.00000000000E+00 0.  1.
        -11    1    3    3    0    0 -0.47588083973E+02  0.61893261624E+02 -0.94426462668E+02  0.12252248129E+03  0.00000000000E+00 0. -1.
         22    1    1    2    0    0  0.19664251075E+02 -0.70128710588E+02 -0.32756234688E+02  0.79860439080E+02  0.00000000000E+00 0.  1.
<mgrwt>
<rscale>  0 0.10694566E+03</rscale>
<asrwt>0</asrwt>
<pdfrwt beam="1">  1        2 0.27341790E-01 0.12155527E+03</pdfrwt>
<pdfrwt beam="2">  1       -2 0.83040701E-02 0.12155527E+03</pdfrwt>
<totfact> 0.16025505E+04</totfact>
</mgrwt>
</event>
<event>
 6    1  0.1535970E-002  0.1155412E+03  0.7546771E-02  0.1274560E+00
         -4   -1    0    0    0  501 -0.00000000000E+00  0.00000000000E+00  0.25902368783E+02  0.25902368783E+02  0.00000000000E+00 0.  1.
          4   -1    0    0  501    0  0.00000000000E+00 -0.00000000000E+00 -0.36190106131E+03  0.36190106131E+03  0.00000000000E+00 0. -1.
         23    2    1    2    0    0 -0.97779001942E+01  0.71678135611E+02 -0.15861886373E+03  0.19623890801E+03  0.90091079633E+02 0.  0.
         13    1    3    3    0    0  0.73843061044E+01  0.15502315280E+02 -0.12958217273E+03  0.13071491592E+03  0.00000000000E+00 0. -1.
        -13    1    3    3    0    0 -0.17162206299E+02  0.56175820331E+02 -0.29036691003E+02  0.65523992089E+02  0.00000000000E+00 0.  1.
         22    1    1    2    0    0  0.97779001942E+01 -0.71678135611E+02 -0.17737982880E+03  0.19156452208E+03  0.00000000000E+00 0. -1.
<mgrwt>
<rscale>  0 0.10277801E+03</rscale>
<asrwt>0</asrwt>
<pdfrwt beam="1">  1        4 0.55677085E-01 0.11554118E+03</pdfrwt>
<pdfrwt beam="2">  1       -4 0.39849799E-02 0.11554118E+03</pdfrwt>
<totfact> 0.16950675E+03</totfact>
</mgrwt>
</event>
<event>
 6    1  0.1535970E-002  0.9461996E+02  0.7546771E-02  0.1359978E+00
         -2   -1    0    0    0  501 -0.00000000000E+00  0.00000000000E+00  0.43309078551E+02  0.43309078551E+02  0.00000000000E+00 0.  1.
          2   -1    0    0  501    0  0.00000000000E+00 -0.00000000000E+00 -0.14588133319E+03  0.14588133319E+03  0.00000000000E+00 0. -1.
         23    2    1    2    0    0  0.10958138476E+02  0.26198086696E+02 -0.12228793468E+03  0.15461977991E+03  0.90258056856E+02 0.  0.
         13    1    3    3    0    0  0.12974969669E+02  0.22808119000E+02 -0.13694749868E+03  0.13943879490E+03  0.00000000000E+00 0. -1.
        -13    1    3    3    0    0 -0.20168311930E+01  0.33899676959E+01  0.14659564003E+02  0.15180985007E+02  0.00000000000E+00 0.  1.
         22    1    1    2    0    0 -0.10958138476E+02 -0.26198086696E+02  0.19715680040E+02  0.34570631825E+02  0.00000000000E+00 0.  1.
<mgrwt>
<rscale>  0 0.70033733E+02</rscale>
<asrwt>0</asrwt>
<pdfrwt beam="1">  1        2 0.22443282E-01 0.94619963E+02</pdfrwt>
<pdfrwt beam="2">  1       -2 0.66629351E-02 0.94619963E+02</pdfrwt>
<totfact> 0.27131431E+04</totfact>
</mgrwt>
</event>
<event>
 6    1  0.1535970E-002  0.8764381E+02  0.7546771E-02  0.1417297E+00
          2   -1    0    0  501    0  0.00000000000E+00  0.00000000000E+00  0.41001516361E+03  0.41001516361E+03  0.00000000000E+00 0. -1.
         -2   -1    0    0    0  501 -0.00000000000E+00 -0.00000000000E+00 -0.26808426222E+02  0.26808426222E+02  0.00000000000E+00 0.  1.
         23    2    1    2    0    0 -0.89744079501E+01  0.10994148049E+02  0.40302680929E+03  0.41244641732E+03  0.86487148544E+02 0.  0.
         13    1    3    3    0    0 -0.44450182778E+02  0.47261174982E+01  0.13997695646E+03  0.14694115582E+03  0.00000000000E+00 0.  1.
        -13    1    3    3    0    0  0.35475774828E+02  0.62680305507E+01  0.26304985283E+03  0.26550526150E+03  0.00000000000E+00 0. -1.
         22    1    1    2    0    0  0.89744079501E+01 -0.10994148049E+02 -0.19820071903E+02  0.24377172511E+02  0.00000000000E+00 0.  1.
<mgrwt>
<rscale>  0 0.55597009E+02</rscale>
<asrwt>0</asrwt>
<pdfrwt beam="1">  1        2 0.63079251E-01 0.87643814E+02</pdfrwt>
<pdfrwt beam="2">  1       -2 0.41243736E-02 0.87643814E+02</pdfrwt>
<totfact> 0.18366699E+04</totfact>
</mgrwt>
</event>
<event>
 6    1  0.1535970E-002  0.9602753E+02  0.7546771E-02  0.1354712E+00
          2   -1    0    0  501    0  0.00000000000E+00  0.00000000000E+00  0.16638934757E+03  0.16638934757E+03  0.00000000000E+00 0. -1.
         -2   -1    0    0    0  501 -0.00000000000E+00 -0.00000000000E+00 -0.63529546855E+02  0.63529546855E+02  0.00000000000E+00 0.  1.
         23    2    1    2    0    0  0.20744022189E+02 -0.21243084646E+02  0.14768054068E+03  0.17615569295E+03  0.91321974130E+02 0.  0.
         13    1    3    3    0    0 -0.18860473698E+02 -0.19183116546E+02  0.12996611745E+03  0.13272114041E+03  0.00000000000E+00 0. -1.
        -13    1    3    3    0    0  0.39604495888E+02 -0.20599681004E+01  0.17714423237E+02  0.43434552533E+02  0.00000000000E+00 0.  1.
         22    1    1    2    0    0 -0.20744022189E+02  0.21243084646E+02 -0.44820739969E+02  0.53763201479E+02  0.00000000000E+00 0.  1.
<mgrwt>
<rscale>  0 0.71606874E+02</rscale>
<asrwt>0</asrwt>
<pdfrwt beam="1">  1        2 0.25598361E-01 0.96027528E+02</pdfrwt>
<pdfrwt beam="2">  1       -2 0.97737765E-02 0.96027528E+02</pdfrwt>
<totfact> 0.13081243E+04</totfact>
</mgrwt>
</event>
<event>
 6    1  0.1535970E-002  0.9327498E+02  0.7546771E-02  0.1426345E+00
          2   -1    0    0  501    0  0.00000000000E+00  0.00000000000E+00  0.36637283964E+03  0.36637283964E+03  0.00000000000E+00 0. -1.
         -2   -1    0    0    0  501 -0.00000000000E+00 -0.00000000000E+00 -0.81818698119E+01  0.81818698119E+01  0.00000000000E+00 0.  1.
         23    2    1    2    0    0  0.77143691087E+01  0.67456632755E+01  0.34727066801E+03  0.35957911412E+03  0.92710339162E+02 0.  0.
         11    1    3    3    0    0 -0.18012123434E+02 -0.32881373769E+02  0.23187173658E+03  0.23488321258E+03  0.00000000000E+00 0. -1.
        -11    1    3    3    0    0  0.25726492543E+02  0.39627037044E+02  0.11539893143E+03  0.12469590153E+03  0.00000000000E+00 0.  1.
         22    1    1    2    0    0 -0.77143691087E+01 -0.67456632755E+01  0.10920301821E+02  0.14975595335E+02  0.00000000000E+00 0.  1.
<mgrwt>
<rscale>  0 0.53700773E+02</rscale>
<asrwt>0</asrwt>
<pdfrwt beam="1">  1        2 0.56365039E-01 0.93274983E+02</pdfrwt>
<pdfrwt beam="2">  1       -2 0.12587495E-02 0.93274983E+02</pdfrwt>
<totfact> 0.11549282E+05</totfact>
</mgrwt>
</event>
<event>
 6    1  0.1535970E-002  0.1013504E+03  0.7546771E-02  0.1337607E+00
         -2   -1    0    0    0  501 -0.00000000000E+00  0.00000000000E+00  0.10084023556E+02  0.10084023556E+02  0.00000000000E+00 0.  1.
          2   -1    0    0  501    0  0.00000000000E+00 -0.00000000000E+00 -0.45902167417E+03  0.45902167417E+03  0.00000000000E+00 0. -1.
         23    2    1    2    0    0 -0.23317293785E+00  0.33871459349E+02 -0.35779031334E+03  0.37186801357E+03  0.95522673053E+02 0.  0.
         13    1    3    3    0    0  0.46417821793E+02  0.10037910516E+02 -0.13883023969E+03  0.14672835200E+03  0.00000000000E+00 0. -1.
        -13    1    3    3    0    0 -0.46650994731E+02  0.23833548832E+02 -0.21896007365E+03  0.22513966157E+03  0.00000000000E+00 0.  1.
         22    1    1    2    0    0  0.23317293785E+00 -0.33871459349E+02 -0.91147337271E+02  0.97237684154E+02  0.00000000000E+00 0.  1.
<mgrwt>
<rscale>  0 0.77060225E+02</rscale>
<asrwt>0</asrwt>
<pdfrwt beam="1">  1        2 0.70618715E-01 0.10135044E+03</pdfrwt>
<pdfrwt beam="2">  1       -2 0.15513883E-02 0.10135044E+03</pdfrwt>
<totfact> 0.68295319E+04</totfact>
</mgrwt>
</event>
<event>
 6    1  0.1535970E-002  0.1011646E+03  0.7546771E-02  0.1386171E+00
          2   -1    0    0  501    0  0.00000000000E+00  0.00000000000E+00  0.12032868294E+04  0.12032868294E+04  0.00000000000E+00 0. -1.
         -2   -1    0    0    0  501 -0.00000000000E+00 -0.00000000000E+00 -0.63563866620E+01  0.63563866620E+01  0.00000000000E+00 0.  1.
         23    2    1    2    0    0  0.52730724898E+01  0.14137895039E+02  0.11876025840E+04  0.11919035904E+04  0.10003292428E+03 0.  0.
         13    1    3    3    0    0 -0.44422659018E+02 -0.89455123505E+01  0.45326735220E+03  0.45552682402E+03  0.00000000000E+00 0. -1.
        -13    1    3    3    0    0  0.49695731508E+02  0.23083407390E+02  0.73433523178E+03  0.73637676638E+03  0.00000000000E+00 0.  1.
         22    1    1    2    0    0 -0.52730724898E+01 -0.14137895039E+02  0.93278587388E+01  0.17739625652E+02  0.00000000000E+00 0.  1.
<mgrwt>
<rscale>  0 0.62869244E+02</rscale>
<asrwt>0</asrwt>
<pdfrwt beam="1">  1        2 0.18512087E+00 0.10116458E+03</pdfrwt>
<pdfrwt beam="2">  1       -2 0.97790660E-03 0.10116458E+03</pdfrwt>
<totfact> 0.40410787E+04</totfact>
</mgrwt>
</event>
<event>
 6    1  0.1535970E-002  0.9641007E+02  0.7546771E-02  0.1353402E+00
          2   -1    0    0  501    0  0.00000000000E+00  0.00000000000E+00  0.11003570203E+03  0.11003570203E+03  0.00000000000E+00 0. -1.
         -2   -1    0    0    0  501 -0.00000000000E+00 -0.00000000000E+00 -0.49702769603E+02  0.49702769603E+02  0.00000000000E+00 0.  1.
         23    2    1    2    0    0  0.29187857481E+02 -0.69281735596E+01  0.78795444496E+02  0.12451355197E+03  0.91624079458E+02 0.  0.
         11    1    3    3    0    0  0.40824317188E+02  0.24857689473E+02  0.11463598000E+02  0.49152249988E+02  0.00000000000E+00 0.  1.
        -11    1    3    3    0    0 -0.11636459706E+02 -0.31785863032E+02  0.67331846496E+02  0.75361301977E+02  0.00000000000E+00 0. -1.
         22    1    1    2    0    0 -0.29187857481E+02  0.69281735596E+01 -0.18462512074E+02  0.35224919663E+02  0.00000000000E+00 0. -1.
<mgrwt>
<rscale>  0 0.72005877E+02</rscale>
<asrwt>0</asrwt>
<pdfrwt beam="1">  1        2 0.16928570E-01 0.96410075E+02</pdfrwt>
<pdfrwt beam="2">  1       -2 0.76465800E-02 0.96410075E+02</pdfrwt>
<totfact> 0.30272573E+04</totfact>
</mgrwt>
</event>
<event>
 6    1  0.1535970E-002  0.9221258E+02  0.7546771E-02  0.1388612E+00
          2   -1    0    0  501    0  0.00000000000E+00  0.00000000000E+00  0.54503536798E+03  0.54503536798E+03  0.00000000000E+00 0. -1.
         -2   -1    0    0    0  501 -0.00000000000E+00 -0.00000000000E+00 -0.18375754565E+02  0.18375754565E+02  0.00000000000E+00 0.  1.
         23    2    1    2    0    0 -0.60398467096E+01 -0.18177581224E+02  0.53473219787E+03  0.54262480909E+03  0.90201196228E+02 0.  0.
         13    1    3    3    0    0 -0.21814384064E+02  0.16338511038E+02  0.43598908345E+03  0.43684012543E+03  0.00000000000E+00 0. -1.
        -13    1    3    3    0    0  0.15774537354E+02 -0.34516092263E+02  0.98743114414E+02  0.10578468366E+03  0.00000000000E+00 0.  1.
         22    1    1    2    0    0  0.60398467096E+01  0.18177581224E+02 -0.80725844470E+01  0.20786313456E+02  0.00000000000E+00 0.  1.
<mgrwt>
<rscale>  0 0.62253205E+02</rscale>
<asrwt>0</asrwt>
<pdfrwt beam="1">  1        2 0.83851583E-01 0.92212581E+02</pdfrwt>
<pdfrwt beam="2">  1       -2 0.28270396E-02 0.92212581E+02</pdfrwt>
<totfact> 0.23618753E+04</totfact>
</mgrwt>
</event>
<event>
 6    1  0.1535970E-002  0.8248000E+02  0.7546771E-02  0.1401148E+00
         -2   -1    0    0    0  501 -0.00000000000E+00  0.00000000000E+00  0.35664465579E+02  0.35664465579E+02  0.00000000000E+00 0.  1.
          2   -1    0    0  501    0  0.00000000000E+00 -0.00000000000E+00 -0.12554288193E+03  0.12554288193E+03  0.00000000000E+00 0. -1.
         23    2    1    2    0    0  0.21060258099E+02 -0.60599955205E+01 -0.10577679473E+03  0.13413307094E+03  0.79515359512E+02 0.  0.
         11    1    3    3    0    0  0.50362852837E+02 -0.12411975667E+01 -0.81329311085E+02  0.95668251572E+02  0.00000000000E+00 0. -1.
        -11    1    3    3    0    0 -0.29302594738E+02 -0.48187979537E+01 -0.24447483645E+02  0.38464819363E+02  0.00000000000E+00 0.  1.
         22    1    1    2    0    0 -0.21060258099E+02  0.60599955205E+01  0.15898378380E+02  0.27074276574E+02  0.00000000000E+00 0.  1.
<mgrwt>
<rscale>  0 0.59216920E+02</rscale>
<asrwt>0</asrwt>
<pdfrwt beam="1">  1        2 0.19314290E-01 0.82480000E+02</pdfrwt>
<pdfrwt beam="2">  1       -2 0.54868409E-02 0.82480000E+02</pdfrwt>
<totfact> 0.42154745E+04</totfact>
</mgrwt>
</event>
<event>
 6    1  0.1535970E-002  0.1019162E+03  0.7546771E-02  0.1350483E+00
         -2   -1    0    0    0  501 -0.00000000000E+00  0.00000000000E+00  0.19550195677E+02  0.19550195677E+02  0.00000000000E+00 0. -1.
          2   -1    0    0  501    0  0.00000000000E+00 -0.00000000000E+00 -0.21149283119E+03  0.21149283119E+03  0.00000000000E+00 0.  1.
         23    2    1    2    0    0  0.18251698273E+02  0.19470377747E+02 -0.15207073396E+03  0.18306398318E+03  0.98360020901E+02 0.  0.
         11    1    3    3    0    0  0.38814878116E+02 -0.11826176645E+02 -0.13668202390E+03  0.14257779938E+03  0.00000000000E+00 0.  1.
        -11    1    3    3    0    0 -0.20563179843E+02  0.31296554391E+02 -0.15388710064E+02  0.40486183810E+02  0.00000000000E+00 0. -1.
         22    1    1    2    0    0 -0.18251698273E+02 -0.19470377747E+02 -0.39871901545E+02  0.47979043678E+02  0.00000000000E+00 0. -1.
<mgrwt>
<rscale>  0 0.72905321E+02</rscale>
<asrwt>0</asrwt>
<pdfrwt beam="1">  1        2 0.32537357E-01 0.10191621E+03</pdfrwt>
<pdfrwt beam="2">  1       -2 0.30077225E-02 0.10191621E+03</pdfrwt>
<totfact> 0.59528626E+04</totfact>
</mgrwt>
</event>
<event>
 6    1  0.1535970E-002  0.9573461E+02  0.7546771E-02  0.1355354E+00
          2   -1    0    0  501    0  0.00000000000E+00  0.00000000000E+00  0.19837600090E+04  0.19837600090E+04  0.00000000000E+00 0. -1.
         -2   -1    0    0    0  501 -0.00000000000E+00 -0.00000000000E+00 -0.29699043211E+01  0.29699043211E+01  0.00000000000E+00 0.  1.
         23    2    1    2    0    0  0.18610092165E+02 -0.23070456110E+02  0.18560178606E+04  0.18584852472E+04  0.91030401629E+02 0.  0.
         13    1    3    3    0    0 -0.81929598371E+01 -0.33131099760E+02  0.16635257019E+04  0.16638757632E+04  0.00000000000E+00 0. -1.
        -13    1    3    3    0    0  0.26803052002E+02  0.10060643650E+02  0.19249215865E+03  0.19460948406E+03  0.00000000000E+00 0.  1.
         22    1    1    2    0    0 -0.18610092165E+02  0.23070456110E+02  0.12477224414E+03  0.12824466610E+03  0.00000000000E+00 0.  1.
<mgrwt>
<rscale>  0 0.71412541E+02</rscale>
<asrwt>0</asrwt>
<pdfrwt beam="1">  1        2 0.30519279E+00 0.95734610E+02</pdfrwt>
<pdfrwt beam="2">  1       -2 0.45690994E-03 0.95734610E+02</pdfrwt>
<totfact> 0.46732644E+04</totfact>
</mgrwt>
</event>
<event>
 6    1  0.1535970E-002  0.9430735E+02  0.7546771E-02  0.1425013E+00
          1   -1    0    0  501    0  0.00000000000E+00  0.00000000000E+00  0.82085484797E+01  0.82085484797E+01  0.00000000000E+00 0. -1.
         -1   -1    0    0    0  501 -0.00000000000E+00 -0.00000000000E+00 -0.33374678306E+03  0.33374678306E+03  0.00000000000E+00 0.  1.
         23    2    1    2    0    0  0.92298003212E+01 -0.41461582793E+01 -0.28624749488E+03  0.30138265516E+03  0.93762981307E+02 0.  0.
         13    1    3    3    0    0  0.33848551725E+02 -0.15553443109E+02 -0.26308043058E+03  0.26570462360E+03  0.00000000000E+00 0.  1.
        -13    1    3    3    0    0 -0.24618751404E+02  0.11407284830E+02 -0.23167064299E+02  0.35678031562E+02  0.00000000000E+00 0. -1.
         22    1    1    2    0    0 -0.92298003212E+01  0.41461582793E+01 -0.39290739696E+02  0.40572676376E+02  0.00000000000E+00 0. -1.
<mgrwt>
<rscale>  0 0.53974169E+02</rscale>
<asrwt>0</asrwt>
<pdfrwt beam="1">  1        1 0.12628535E-02 0.94307351E+02</pdfrwt>
<pdfrwt beam="2">  1       -1 0.51345662E-01 0.94307351E+02</pdfrwt>
<totfact> 0.39739045E+04</totfact>
</mgrwt>
</event>
<event>
 6    1  0.1535970E-002  0.9969366E+02  0.7546771E-02  0.1389156E+00
          2   -1    0    0  501    0  0.00000000000E+00  0.00000000000E+00  0.14054232181E+04  0.14054232181E+04  0.00000000000E+00 0.  1.
         -2   -1    0    0    0  501 -0.00000000000E+00 -0.00000000000E+00 -0.32304003763E+01  0.32304003763E+01  0.00000000000E+00 0. -1.
         23    2    1    2    0    0 -0.54210421660E+01  0.14014103441E+02  0.13635894444E+04  0.13672289492E+04  0.98554775769E+02 0.  0.
         11    1    3    3    0    0  0.26889040041E+02 -0.24762938948E+02  0.92889581541E+03  0.92961479092E+03  0.00000000000E+00 0.  1.
        -11    1    3    3    0    0 -0.32310082207E+02  0.38777042389E+02  0.43469362900E+03  0.43761415828E+03  0.00000000000E+00 0. -1.
         22    1    1    2    0    0  0.54210421660E+01 -0.14014103441E+02  0.38603373289E+02  0.41424669252E+02  0.00000000000E+00 0.  1.
<mgrwt>
<rscale>  0 0.62117222E+02</rscale>
<asrwt>0</asrwt>
<pdfrwt beam="1">  1        2 0.21621847E+00 0.99693664E+02</pdfrwt>
<pdfrwt beam="2">  1       -2 0.49698579E-03 0.99693664E+02</pdfrwt>
<totfact> 0.81906093E+04</totfact>
</mgrwt>
</event>
<event>
 6    1  0.1535970E-002  0.9157194E+02  0.7546771E-02  0.1413307E+00
         -2   -1    0    0    0  501 -0.00000000000E+00  0.00000000000E+00  0.20181584765E+01  0.20181584765E+01  0.00000000000E+00 0.  1.
          2   -1    0    0  501    0  0.00000000000E+00 -0.00000000000E+00 -0.18377819238E+04  0.18377819238E+04  0.00000000000E+00 0. -1.
         23    2    1    2    0    0  0.11167539671E+02 -0.71042407253E+01 -0.17847372727E+04  0.17870849315E+04  0.90610349421E+02 0.  0.
         11    1    3    3    0    0  0.42932770600E+02 -0.28225059196E+02 -0.83258408061E+03  0.83416792556E+03  0.00000000000E+00 0.  1.
        -11    1    3    3    0    0 -0.31765230928E+02  0.21120818470E+02 -0.95215319212E+03  0.95291700590E+03  0.00000000000E+00 0. -1.
         22    1    1    2    0    0 -0.11167539671E+02  0.71042407253E+01 -0.51026492594E+02  0.52715150811E+02  0.00000000000E+00 0.  1.
<mgrwt>
<rscale>  0 0.56462312E+02</rscale>
<asrwt>0</asrwt>
<pdfrwt beam="1">  1        2 0.28273686E+00 0.91571937E+02</pdfrwt>
<pdfrwt beam="2">  1       -2 0.31048462E-03 0.91571937E+02</pdfrwt>
<totfact> 0.94534181E+04</totfact>
</mgrwt>
</event>
<event>
 6    1  0.1535970E-002  0.9670595E+02  0.7546771E-02  0.1348830E+00
         -4   -1    0    0    0  501 -0.00000000000E+00  0.00000000000E+00  0.72666720283E+02  0.72666720283E+02  0.00000000000E+00 0. -1.
          4   -1    0    0  501    0  0.00000000000E+00 -0.00000000000E+00 -0.59105712010E+02  0.59105712010E+02  0.00000000000E+00 0.  1.
         23    2    1    2    0    0 -0.26770876243E+02  0.17770021624E+02 -0.47898583336E+00  0.96707137231E+02  0.91211772709E+02 0.  0.
         13    1    3    3    0    0 -0.69908634829E+00  0.12434611829E+02  0.43530567077E+02  0.45277130685E+02  0.00000000000E+00 0. -1.
        -13    1    3    3    0    0 -0.26071789894E+02  0.53354097952E+01 -0.44009552910E+02  0.51430006546E+02  0.00000000000E+00 0.  1.
         22    1    1    2    0    0  0.26770876243E+02 -0.17770021624E+02  0.14039994106E+02  0.35065295062E+02  0.00000000000E+00 0.  1.
<mgrwt>
<rscale>  0 0.73421578E+02</rscale>
<asrwt>0</asrwt>
<pdfrwt beam="1">  1        4 0.90931864E-02 0.96705951E+02</pdfrwt>
<pdfrwt beam="2">  1       -4 0.11179495E-01 0.96705951E+02</pdfrwt>
<totfact> 0.82920734E+03</totfact>
</mgrwt>
</event>
<event>
 6    1  0.1535970E-002  0.9160309E+02  0.7546771E-02  0.1394390E+00
          3   -1    0    0  501    0  0.00000000000E+00  0.00000000000E+00  0.48114803947E+02  0.48114803947E+02  0.00000000000E+00 0. -1.
         -3   -1    0    0    0  501 -0.00000000000E+00 -0.00000000000E+00 -0.69598081925E+02  0.69598081925E+02  0.00000000000E+00 0.  1.
         23    2    1    2    0    0 -0.17788546140E+02  0.88609699970E+00 -0.24355926762E+01  0.91635465427E+02  0.89854932367E+02 0.  0.
         11    1    3    3    0    0 -0.44915209275E+02 -0.23711419033E+02 -0.14939206521E+02  0.52941357258E+02  0.00000000000E+00 0.  1.
        -11    1    3    3    0    0  0.27126663135E+02  0.24597516033E+02  0.12503613845E+02  0.38694108169E+02  0.00000000000E+00 0. -1.
         22    1    1    2    0    0  0.17788546140E+02 -0.88609699970E+00 -0.19047685303E+02  0.26077420445E+02  0.00000000000E+00 0. -1.
<mgrwt>
<rscale>  0 0.60827819E+02</rscale>
<asrwt>0</asrwt>
<pdfrwt beam="1">  1        3 0.74022776E-02 0.91603092E+02</pdfrwt>
<pdfrwt beam="2">  1       -3 0.10707397E-01 0.91603092E+02</pdfrwt>
<totfact> 0.16347963E+04</totfact>
</mgrwt>
</event>
<event>
 6    1  0.1535970E-002  0.1231746E+03  0.7546771E-02  0.1258032E+00
         -2   -1    0    0    0  501 -0.00000000000E+00  0.00000000000E+00  0.28447479955E+03  0.28447479955E+03  0.00000000000E+00 0.  1.
          2   -1    0    0  501    0  0.00000000000E+00 -0.00000000000E+00 -0.96316625093E+02  0.96316625093E+02  0.00000000000E+00 0. -1.
         23    2    1    2    0    0  0.80412740050E+02  0.17785958002E+02 -0.46839976521E+02  0.13178001923E+03  0.91593891732E+02 0.  0.
         13    1    3    3    0    0  0.88225189786E+02 -0.14863762774E+02 -0.31291098875E+02  0.94782637784E+02  0.00000000000E+00 0. -1.
        -13    1    3    3    0    0 -0.78124497357E+01  0.32649720775E+02 -0.15548877646E+02  0.36997381443E+02  0.00000000000E+00 0.  1.
         22    1    1    2    0    0 -0.80412740050E+02 -0.17785958002E+02  0.23499815098E+03  0.24901140542E+03  0.00000000000E+00 0.  1.
<mgrwt>
<rscale>  0 0.11138202E+03</rscale>
<asrwt>0</asrwt>
<pdfrwt beam="1">  1        2 0.14817942E-01 0.12317463E+03</pdfrwt>
<pdfrwt beam="2">  1       -2 0.43765353E-01 0.12317463E+03</pdfrwt>
<totfact> 0.19096058E+03</totfact>
</mgrwt>
</event>
<event>
 6    1  0.1535970E-002  0.9020088E+02  0.7546771E-02  0.1383717E+00
          2   -1    0    0  501    0  0.00000000000E+00  0.00000000000E+00  0.81308152982E+03  0.81308152982E+03  0.00000000000E+00 0.  1.
         -2   -1    0    0    0  501 -0.00000000000E+00 -0.00000000000E+00 -0.42309548515E+01  0.42309548515E+01  0.00000000000E+00 0. -1.
         23    2    1    2    0    0 -0.45516587621E+01  0.21677414808E+02  0.72484319206E+03  0.73043401615E+03  0.87438955602E+02 0.  0.
         11    1    3    3    0    0 -0.10278516080E+02 -0.15412672053E+02  0.35261185955E+02  0.39831515004E+02  0.00000000000E+00 0. -1.
        -11    1    3    3    0    0  0.57268573179E+01  0.37090086861E+02  0.68958200611E+03  0.69060250114E+03  0.00000000000E+00 0.  1.
         22    1    1    2    0    0  0.45516587621E+01 -0.21677414808E+02  0.84007382904E+02  0.86878468521E+02  0.00000000000E+00 0. -1.
<mgrwt>
<rscale>  0 0.63496840E+02</rscale>
<asrwt>0</asrwt>
<pdfrwt beam="1">  1        2 0.12508934E+00 0.90200881E+02</pdfrwt>
<pdfrwt beam="2">  1       -2 0.65091678E-03 0.90200881E+02</pdfrwt>
<totfact> 0.12042508E+05</totfact>
</mgrwt>
</event>
<event>
 6    1  0.1535970E-002  0.9211118E+02  0.7546771E-02  0.1406556E+00
         -1   -1    0    0    0  501 -0.00000000000E+00  0.00000000000E+00  0.23266768412E+03  0.23266768412E+03  0.00000000000E+00 0.  1.
          1   -1    0    0  501    0  0.00000000000E+00 -0.00000000000E+00 -0.12423723070E+02  0.12423723070E+02  0.00000000000E+00 0. -1.
         23    2    1    2    0    0 -0.11785245728E+02 -0.83607293817E+01  0.20028625033E+03  0.22045192608E+03  0.90970741586E+02 0.  0.
         11    1    3    3    0    0 -0.91853896005E+01 -0.34562171227E+02  0.18804498777E+03  0.19141534026E+03  0.00000000000E+00 0.  1.
        -11    1    3    3    0    0 -0.25998561274E+01  0.26201441845E+02  0.12241262567E+02  0.29036585817E+02  0.00000000000E+00 0. -1.
         22    1    1    2    0    0  0.11785245728E+02  0.83607293817E+01  0.19957710720E+02  0.24639481120E+02  0.00000000000E+00 0.  1.
<mgrwt>
<rscale>  0 0.57969421E+02</rscale>
<asrwt>0</asrwt>
<pdfrwt beam="1">  1        1 0.19113422E-02 0.92111181E+02</pdfrwt>
<pdfrwt beam="2">  1       -1 0.35795025E-01 0.92111181E+02</pdfrwt>
<totfact> 0.42104322E+04</totfact>
</mgrwt>
</event>
<event>
 6    1  0.1535970E-002  0.9135309E+02  0.7546771E-02  0.1427736E+00
         -2   -1    0    0    0  501 -0.00000000000E+00  0.00000000000E+00  0.25250106251E+01  0.25250106251E+01  0.00000000000E+00 0.  1.
          2   -1    0    0  501    0  0.00000000000E+00 -0.00000000000E+00 -0.11970545623E+04  0.11970545623E+04  0.00000000000E+00 0. -1.
         23    2    1    2    0    0  0.14805643637E+01  0.10576420627E+02 -0.11557990517E+04  0.11594036551E+04  0.90726704039E+02 0.  0.
         11    1    3    3    0    0  0.12506827997E+02 -0.16580776327E+02 -0.10309899152E+04  0.10311990827E+04  0.00000000000E+00 0. -1.
        -11    1    3    3    0    0 -0.11026263633E+02  0.27157196954E+02 -0.12480913650E+03  0.12820457242E+03  0.00000000000E+00 0.  1.
         22    1    1    2    0    0 -0.14805643637E+01 -0.10576420627E+02 -0.38730499997E+02  0.40175917838E+02  0.00000000000E+00 0.  1.
<mgrwt>
<rscale>  0 0.53417143E+02</rscale>
<asrwt>0</asrwt>
<pdfrwt beam="1">  1        2 0.18416279E+00 0.91353093E+02</pdfrwt>
<pdfrwt beam="2">  1       -2 0.38846201E-03 0.91353093E+02</pdfrwt>
<totfact> 0.14762198E+05</totfact>
</mgrwt>
</event>
<event>
 6    1  0.1535970E-002  0.1286838E+03  0.7546771E-02  0.1253627E+00
          2   -1    0    0  501    0  0.00000000000E+00  0.00000000000E+00  0.36314668216E+03  0.36314668216E+03  0.00000000000E+00 0. -1.
         -2   -1    0    0    0  501 -0.00000000000E+00 -0.00000000000E+00 -0.83739171445E+02  0.83739171445E+02  0.00000000000E+00 0.  1.
         23    2    1    2    0    0 -0.52598341967E+02  0.58679326499E+02  0.32934517071E+03  0.35359266618E+03  0.10173339260E+03 0.  0.
         13    1    3    3    0    0 -0.15446867033E+02  0.40907663211E+02  0.29964088147E+03  0.30281463052E+03  0.00000000000E+00 0. -1.
        -13    1    3    3    0    0 -0.37151474934E+02  0.17771663288E+02  0.29704289240E+02  0.50778035656E+02  0.00000000000E+00 0.  1.
         22    1    1    2    0    0  0.52598341967E+02 -0.58679326499E+02 -0.49937659989E+02  0.93293187432E+02  0.00000000000E+00 0.  1.
<mgrwt>
<rscale>  0 0.11383561E+03</rscale>
<asrwt>0</asrwt>
<pdfrwt beam="1">  1        2 0.55868720E-01 0.12868385E+03</pdfrwt>
<pdfrwt beam="2">  1       -2 0.12882950E-01 0.12868385E+03</pdfrwt>
<totfact> 0.37646657E+03</totfact>
</mgrwt>
</event>
<event>
 6    1  0.1535970E-002  0.9307822E+02  0.7546771E-02  0.1415026E+00
         -2   -1    0    0    0  501 -0.00000000000E+00  0.00000000000E+00  0.19801023945E+03  0.19801023945E+03  0.00000000000E+00 0.  1.
          2   -1    0    0  501    0  0.00000000000E+00 -0.00000000000E+00 -0.14223636816E+02  0.14223636816E+02  0.00000000000E+00 0. -1.
         23    2    1    2    0    0  0.96491436563E+01  0.75825036583E+01  0.16971099553E+03  0.19355974843E+03  0.92265670074E+02 0.  0.
         11    1    3    3    0    0 -0.14189794538E+02  0.33931434787E+02  0.24807592345E+02  0.44363376491E+02  0.00000000000E+00 0. -1.
        -11    1    3    3    0    0  0.23838938194E+02 -0.26348931129E+02  0.14490340318E+03  0.14919637194E+03  0.00000000000E+00 0.  1.
         22    1    1    2    0    0 -0.96491436563E+01 -0.75825036583E+01  0.14075607107E+02  0.18674127837E+02  0.00000000000E+00 0. -1.
<mgrwt>
<rscale>  0 0.56087267E+02</rscale>
<asrwt>0</asrwt>
<pdfrwt beam="1">  1        2 0.21882520E-02 0.93078216E+02</pdfrwt>
<pdfrwt beam="2">  1       -2 0.30463112E-01 0.93078216E+02</pdfrwt>
<totfact> 0.41638151E+04</totfact>
</mgrwt>
</event>
<event>
 6    1  0.1535970E-002  0.9537556E+02  0.7546771E-02  0.1360361E+00
         -2   -1    0    0    0  501 -0.00000000000E+00  0.00000000000E+00  0.50429961422E+01  0.50429961422E+01  0.00000000000E+00 0.  1.
          2   -1    0    0  501    0  0.00000000000E+00 -0.00000000000E+00 -0.98767237842E+03  0.98767237842E+03  0.00000000000E+00 0. -1.
         23    2    1    2    0    0 -0.26286067247E+02  0.82496621204E+01 -0.91086042473E+03  0.91584016709E+03  0.91309824546E+02 0.  0.
         13    1    3    3    0    0 -0.82188534357E+01  0.54747037772E+01 -0.87939644229E+03  0.87945188876E+03  0.00000000000E+00 0. -1.
        -13    1    3    3    0    0 -0.18067213812E+02  0.27749583432E+01 -0.31463982441E+02  0.36388278329E+02  0.00000000000E+00 0.  1.
         22    1    1    2    0    0  0.26286067247E+02 -0.82496621204E+01 -0.71768957544E+02  0.76875207469E+02  0.00000000000E+00 0.  1.
<mgrwt>
<rscale>  0 0.69921234E+02</rscale>
<asrwt>0</asrwt>
<pdfrwt beam="1">  1        2 0.15194934E+00 0.95375565E+02</pdfrwt>
<pdfrwt beam="2">  1       -2 0.77584686E-03 0.95375565E+02</pdfrwt>
<totfact> 0.73796362E+04</totfact>
</mgrwt>
</event>
<event>
 6    1  0.1535970E-002  0.9514721E+02  0.7546771E-02  0.1366269E+00
         -2   -1    0    0    0  501 -0.00000000000E+00  0.00000000000E+00  0.10644382175E+03  0.10644382175E+03  0.00000000000E+00 0. -1.
          2   -1    0    0  501    0  0.00000000000E+00 -0.00000000000E+00 -0.50490659443E+02  0.50490659443E+02  0.00000000000E+00 0.  1.
         23    2    1    2    0    0 -0.22775312216E+01  0.25035302344E+02 -0.48759057136E+00  0.95148462569E+02  0.91766217491E+02 0.  0.
         13    1    3    3    0    0  0.25497945827E+02 -0.26112386705E+02 -0.46772337646E+01  0.36795087940E+02  0.00000000000E+00 0.  1.
        -13    1    3    3    0    0 -0.27775477049E+02  0.51147689050E+02  0.41896431933E+01  0.58353374628E+02  0.00000000000E+00 0. -1.
         22    1    1    2    0    0  0.22775312216E+01 -0.25035302344E+02  0.56440752881E+02  0.61786018627E+02  0.00000000000E+00 0.  1.
<mgrwt>
<rscale>  0 0.68215442E+02</rscale>
<asrwt>0</asrwt>
<pdfrwt beam="1">  1        2 0.77677938E-02 0.95147213E+02</pdfrwt>
<pdfrwt beam="2">  1       -2 0.16375972E-01 0.95147213E+02</pdfrwt>
<totfact> 0.23097925E+04</totfact>
</mgrwt>
</event>
<event>
 6    1  0.1535970E-002  0.9869106E+02  0.7546771E-02  0.1409721E+00
         -2   -1    0    0    0  501 -0.00000000000E+00  0.00000000000E+00  0.82415117720E+02  0.82415117720E+02  0.00000000000E+00 0. -1.
          2   -1    0    0  501    0  0.00000000000E+00 -0.00000000000E+00 -0.48904345885E+02  0.48904345885E+02  0.00000000000E+00 0.  1.
         23    2    1    2    0    0  0.99791148582E+01 -0.50413472609E+01  0.29030825695E+01  0.98733752661E+02  0.98055739814E+02 0.  0.
         11    1    3    3    0    0 -0.35963564737E+01 -0.40700427054E+02 -0.28084301413E+02  0.49580102139E+02  0.00000000000E+00 0.  1.
        -11    1    3    3    0    0  0.13575471332E+02  0.35659079793E+02  0.30987383982E+02  0.49153650522E+02  0.00000000000E+00 0. -1.
         22    1    1    2    0    0 -0.99791148582E+01  0.50413472609E+01  0.30607689266E+02  0.32585710944E+02  0.00000000000E+00 0. -1.
<mgrwt>
<rscale>  0 0.57256028E+02</rscale>
<asrwt>0</asrwt>
<pdfrwt beam="1">  1        2 0.75237455E-02 0.98691064E+02</pdfrwt>
<pdfrwt beam="2">  1       -2 0.12679249E-01 0.98691064E+02</pdfrwt>
<totfact> 0.36486974E+04</totfact>
</mgrwt>
</event>
<event>
 6    1  0.1535970E-002  0.1005899E+03  0.7546771E-02  0.1369369E+00
         -2   -1    0    0    0  501 -0.00000000000E+00  0.00000000000E+00  0.11991822352E+03  0.11991822352E+03  0.00000000000E+00 0.  1.
          2   -1    0    0  501    0  0.00000000000E+00 -0.00000000000E+00 -0.31338991443E+02  0.31338991443E+02  0.00000000000E+00 0. -1.
         23    2    1    2    0    0  0.20116043835E+02  0.19167367074E+01  0.63121602870E+02  0.11875459993E+03  0.98539277227E+02 0.  0.
         13    1    3    3    0    0  0.83239631517E+01  0.47048922263E+02  0.11431251460E+02  0.49128026203E+02  0.00000000000E+00 0. -1.
        -13    1    3    3    0    0  0.11792080683E+02 -0.45132185556E+02  0.51690351410E+02  0.69626573726E+02  0.00000000000E+00 0.  1.
         22    1    1    2    0    0 -0.20116043835E+02 -0.19167367074E+01  0.25457629207E+02  0.32502615033E+02  0.00000000000E+00 0.  1.
<mgrwt>
<rscale>  0 0.67342916E+02</rscale>
<asrwt>0</asrwt>
<pdfrwt beam="1">  1        2 0.48213834E-02 0.10058985E+03</pdfrwt>
<pdfrwt beam="2">  1       -2 0.18448957E-01 0.10058985E+03</pdfrwt>
<totfact> 0.35056110E+04</totfact>
</mgrwt>
</event>
<event>
 6    1  0.1535970E-002  0.1020389E+03  0.7546771E-02  0.1317259E+00
         -2   -1    0    0    0  501 -0.00000000000E+00  0.00000000000E+00  0.12053317562E+02  0.12053317562E+02  0.00000000000E+00 0.  1.
          2   -1    0    0  501    0  0.00000000000E+00 -0.00000000000E+00 -0.46545103962E+03  0.46545103962E+03  0.00000000000E+00 0. -1.
         23    2    1    2    0    0  0.46006813785E+02  0.12004974092E+02 -0.29708531765E+03  0.31412041033E+03  0.90283995837E+02 0.  0.
         13    1    3    3    0    0  0.47705809960E+02  0.46700966799E+02 -0.17956187393E+03  0.19157059058E+03  0.00000000000E+00 0. -1.
        -13    1    3    3    0    0 -0.16989961747E+01 -0.34695992707E+02 -0.11752344372E+03  0.12254981975E+03  0.00000000000E+00 0.  1.
         22    1    1    2    0    0 -0.46006813785E+02 -0.12004974092E+02 -0.15631240440E+03  0.16338394685E+03  0.00000000000E+00 0. -1.
<mgrwt>
<rscale>  0 0.84305508E+02</rscale>
<asrwt>0</asrwt>
<pdfrwt beam="1">  1        2 0.71607852E-01 0.10203894E+03</pdfrwt>
<pdfrwt beam="2">  1       -2 0.18543566E-02 0.10203894E+03</pdfrwt>
<totfact> 0.52132596E+04</totfact>
</mgrwt>
</event>
<event>
 6    1  0.1535970E-002  0.8648104E+02  0.7546771E-02  0.1437538E+00
          2   -1    0    0  501    0  0.00000000000E+00  0.00000000000E+00  0.12910682423E+03  0.12910682423E+03  0.00000000000E+00 0. -1.
         -2   -1    0    0    0  501 -0.00000000000E+00 -0.00000000000E+00 -0.21359580125E+02  0.21359580125E+02  0.00000000000E+00 0.  1.
         23    2    1    2    0    0  0.54328370845E+01 -0.93986463044E+01  0.10943389364E+03  0.13948027411E+03  0.85796966830E+02 0.  0.
         13    1    3    3    0    0  0.58178701941E+00 -0.43654103991E+02  0.89426665795E+02  0.99514560877E+02  0.00000000000E+00 0. -1.
        -13    1    3    3    0    0  0.48510500651E+01  0.34255457687E+02  0.20007227844E+02  0.39965713231E+02  0.00000000000E+00 0.  1.
         22    1    1    2    0    0 -0.54328370845E+01  0.93986463044E+01 -0.16866495343E+01  0.10986130247E+02  0.00000000000E+00 0.  1.
<mgrwt>
<rscale>  0 0.51476261E+02</rscale>
<asrwt>0</asrwt>
<pdfrwt beam="1">  1        2 0.19862588E-01 0.86481037E+02</pdfrwt>
<pdfrwt beam="2">  1       -2 0.32860893E-02 0.86481037E+02</pdfrwt>
<totfact> 0.87480728E+04</totfact>
</mgrwt>
</event>
<event>
 6    1  0.1535970E-002  0.1015001E+03  0.7546771E-02  0.1377354E+00
          2   -1    0    0  501    0  0.00000000000E+00  0.00000000000E+00  0.19355156132E+03  0.19355156132E+03  0.00000000000E+00 0. -1.
         -2   -1    0    0    0  501 -0.00000000000E+00 -0.00000000000E+00 -0.18333804511E+02  0.18333804511E+02  0.00000000000E+00 0.  1.
         23    2    1    2    0    0  0.49819315410E+01  0.16508889813E+02  0.14326780352E+03  0.17557885678E+03  0.10002453867E+03 0.  0.
         11    1    3    3    0    0 -0.24907470747E+02 -0.23949294368E+02  0.10993038469E+03  0.11523298259E+03  0.00000000000E+00 0.  1.
        -11    1    3    3    0    0  0.29889402289E+02  0.40458184181E+02  0.33337418838E+02  0.60345874185E+02  0.00000000000E+00 0. -1.
         22    1    1    2    0    0 -0.49819315410E+01 -0.16508889813E+02  0.31949953281E+02  0.36306509050E+02  0.00000000000E+00 0. -1.
<mgrwt>
<rscale>  0 0.65164453E+02</rscale>
<asrwt>0</asrwt>
<pdfrwt beam="1">  1        2 0.29777162E-01 0.10150011E+03</pdfrwt>
<pdfrwt beam="2">  1       -2 0.28205854E-02 0.10150011E+03</pdfrwt>
<totfact> 0.71833436E+04</totfact>
</mgrwt>
</event>
<event>
 6    1  0.1535970E-002  0.9263136E+02  0.7546771E-02  0.1420671E+00
         -2   -1    0    0    0  501 -0.00000000000E+00  0.00000000000E+00  0.29991384316E+02  0.29991384316E+02  0.00000000000E+00 0.  1.
          2   -1    0    0  501    0  0.00000000000E+00 -0.00000000000E+00 -0.16770805174E+03  0.16770805174E+03  0.00000000000E+00 0. -1.
         23    2    1    2    0    0 -0.54311445925E+01 -0.10036694740E+02 -0.15286061556E+03  0.17873705915E+03  0.91925708857E+02 0.  0.
         13    1    3    3    0    0  0.39952922714E+02  0.49528302906E+01 -0.98172383801E+02  0.10610647248E+03  0.00000000000E+00 0. -1.
        -13    1    3    3    0    0 -0.45384067307E+02 -0.14989525030E+02 -0.54688231762E+02  0.72630586664E+02  0.00000000000E+00 0.  1.
         22    1    1    2    0    0  0.54311445925E+01  0.10036694740E+02  0.15143948139E+02  0.18962376911E+02  0.00000000000E+00 0.  1.
<mgrwt>
<rscale>  0 0.54879289E+02</rscale>
<asrwt>0</asrwt>
<pdfrwt beam="1">  1        2 0.25801238E-01 0.92631358E+02</pdfrwt>
<pdfrwt beam="2">  1       -2 0.46140593E-02 0.92631358E+02</pdfrwt>
<totfact> 0.40241889E+04</totfact>
</mgrwt>
</event>
<event>
 6    1  0.1535970E-002  0.1080943E+03  0.7546771E-02  0.1373351E+00
          2   -1    0    0  501    0  0.00000000000E+00  0.00000000000E+00  0.94499932312E+02  0.94499932312E+02  0.00000000000E+00 0. -1.
         -2   -1    0    0    0  501 -0.00000000000E+00 -0.00000000000E+00 -0.42925800587E+02  0.42925800587E+02  0.00000000000E+00 0.  1.
         23    2    1    2    0    0 -0.22835012570E+01 -0.15075038325E+02  0.55740386545E+02  0.12161975815E+03  0.10701356793E+03 0.  0.
         13    1    3    3    0    0  0.25171633737E+02 -0.45133392470E+02  0.61692281042E+02  0.80477150801E+02  0.00000000000E+00 0. -1.
        -13    1    3    3    0    0 -0.27455134994E+02  0.30058354145E+02 -0.59518944967E+01  0.41142607350E+02  0.00000000000E+00 0.  1.
         22    1    1    2    0    0  0.22835012570E+01  0.15075038325E+02 -0.41662548205E+01  0.15805974748E+02  0.00000000000E+00 0.  1.
<mgrwt>
<rscale>  0 0.66244251E+02</rscale>
<asrwt>0</asrwt>
<pdfrwt beam="1">  1        2 0.14538451E-01 0.10809429E+03</pdfrwt>
<pdfrwt beam="2">  1       -2 0.66039694E-02 0.10809429E+03</pdfrwt>
<totfact> 0.45750068E+04</totfact>
</mgrwt>
</event>
<event>
 6    1  0.1535970E-002  0.9434933E+02  0.7546771E-02  0.1374739E+00
          3   -1    0    0  501    0  0.00000000000E+00  0.00000000000E+00  0.12529060261E+04  0.12529060261E+04  0.00000000000E+00 0. -1.
         -3   -1    0    0    0  501 -0.00000000000E+00 -0.00000000000E+00 -0.30478648045E+01  0.30478648045E+01  0.00000000000E+00 0.  1.
         23    2    1    2    0    0  0.62514066331E+01  0.21521161849E+02  0.11359885532E+04  0.11398999028E+04  0.91649086502E+02 0.  0.
         11    1    3    3    0    0  0.11089605700E+02 -0.31360581730E+02  0.23434914159E+03  0.23669808956E+03  0.00000000000E+00 0.  1.
        -11    1    3    3    0    0 -0.48381990667E+01  0.52881743579E+02  0.90163941158E+03  0.90320181327E+03  0.00000000000E+00 0. -1.
         22    1    1    2    0    0 -0.62514066331E+01 -0.21521161849E+02  0.11386960811E+03  0.11605398806E+03  0.00000000000E+00 0. -1.
<mgrwt>
<rscale>  0 0.65867029E+02</rscale>
<asrwt>0</asrwt>
<pdfrwt beam="1">  1        3 0.19275436E+00 0.94349327E+02</pdfrwt>
<pdfrwt beam="2">  1       -3 0.46890328E-03 0.94349327E+02</pdfrwt>
<totfact> 0.32397013E+03</totfact>
</mgrwt>
</event>
<event>
 6    1  0.1535970E-002  0.9439745E+02  0.7546771E-02  0.1386640E+00
         -2   -1    0    0    0  501 -0.00000000000E+00  0.00000000000E+00  0.24951828158E+02  0.24951828158E+02  0.00000000000E+00 0.  1.
          2   -1    0    0  501    0  0.00000000000E+00 -0.00000000000E+00 -0.15760909748E+03  0.15760909748E+03  0.00000000000E+00 0. -1.
         23    2    1    2    0    0 -0.98488231438E+01  0.15580452059E+02 -0.13418827702E+03  0.16406514806E+03  0.92580393789E+02 0.  0.
         13    1    3    3    0    0 -0.28008377031E+02  0.45368979932E+02 -0.10799351996E+03  0.12043842359E+03  0.00000000000E+00 0. -1.
        -13    1    3    3    0    0  0.18159553887E+02 -0.29788527873E+02 -0.26194757062E+02  0.43626724468E+02  0.00000000000E+00 0.  1.
         22    1    1    2    0    0  0.98488231438E+01 -0.15580452059E+02  0.15310076987E+01  0.18495777579E+02  0.00000000000E+00 0.  1.
<mgrwt>
<rscale>  0 0.62750199E+02</rscale>
<asrwt>0</asrwt>
<pdfrwt beam="1">  1        2 0.24247553E-01 0.94397453E+02</pdfrwt>
<pdfrwt beam="2">  1       -2 0.38387428E-02 0.94397453E+02</pdfrwt>
<totfact> 0.56621728E+04</totfact>
</mgrwt>
</event>
<event>
 6    1  0.1535970E-002  0.9117005E+02  0.7546771E-02  0.1375419E+00
         -2   -1    0    0    0  501 -0.00000000000E+00  0.00000000000E+00  0.22245382162E+02  0.22245382162E+02  0.00000000000E+00 0. -1.
          2   -1    0    0  501    0  0.00000000000E+00 -0.00000000000E+00 -0.18474507749E+03  0.18474507749E+03  0.00000000000E+00 0.  1.
         23    2    1    2    0    0  0.70055191538E+01 -0.23541883865E+02 -0.15741044374E+03  0.18190663864E+03  0.87799087640E+02 0.  0.
         13    1    3    3    0    0 -0.78079987422E+01 -0.17507194973E+02 -0.16362662079E+03  0.16474567597E+03  0.00000000000E+00 0.  1.
        -13    1    3    3    0    0  0.14813517896E+02 -0.60346888924E+01  0.62161770571E+01  0.17160962668E+02  0.00000000000E+00 0. -1.
         22    1    1    2    0    0 -0.70055191538E+01  0.23541883865E+02 -0.50892515878E+01  0.25083821006E+02  0.00000000000E+00 0. -1.
<mgrwt>
<rscale>  0 0.65683393E+02</rscale>
<asrwt>0</asrwt>
<pdfrwt beam="1">  1        2 0.28422320E-01 0.91170047E+02</pdfrwt>
<pdfrwt beam="2">  1       -2 0.34223665E-02 0.91170047E+02</pdfrwt>
<totfact> 0.56128560E+04</totfact>
</mgrwt>
</event>
<event>
 6    1  0.1535970E-002  0.9375867E+02  0.7546771E-02  0.1411865E+00
         -2   -1    0    0    0  501 -0.00000000000E+00  0.00000000000E+00  0.90941539387E+01  0.90941539387E+01  0.00000000000E+00 0.  1.
          2   -1    0    0  501    0  0.00000000000E+00 -0.00000000000E+00 -0.31200794489E+03  0.31200794489E+03  0.00000000000E+00 0. -1.
         23    2    1    2    0    0  0.10941763430E+02  0.62694494544E+01 -0.27244843830E+03  0.28812990000E+03  0.92906725046E+02 0.  0.
         13    1    3    3    0    0 -0.30300733003E+02 -0.20196430807E+02 -0.17842020566E+03  0.18209832515E+03  0.00000000000E+00 0. -1.
        -13    1    3    3    0    0  0.41242496433E+02  0.26465880262E+02 -0.94028232640E+02  0.10603157484E+03  0.00000000000E+00 0.  1.
         22    1    1    2    0    0 -0.10941763430E+02 -0.62694494544E+01 -0.30465352660E+02  0.32972198837E+02  0.00000000000E+00 0. -1.
<mgrwt>
<rscale>  0 0.56779666E+02</rscale>
<asrwt>0</asrwt>
<pdfrwt beam="1">  1        2 0.48001221E-01 0.93758668E+02</pdfrwt>
<pdfrwt beam="2">  1       -2 0.13991006E-02 0.93758668E+02</pdfrwt>
<totfact> 0.11765002E+05</totfact>
</mgrwt>
</event>
<event>
 6    1  0.1535970E-002  0.9531997E+02  0.7546771E-02  0.1376437E+00
         -2   -1    0    0    0  501 -0.00000000000E+00  0.00000000000E+00  0.52363752266E+01  0.52363752266E+01  0.00000000000E+00 0.  1.
          2   -1    0    0  501    0  0.00000000000E+00 -0.00000000000E+00 -0.64748866482E+03  0.64748866482E+03  0.00000000000E+00 0. -1.
         23    2    1    2    0    0 -0.10710917961E+02  0.18220814823E+02 -0.52532619373E+03  0.53390402444E+03  0.92947165831E+02 0.  0.
         13    1    3    3    0    0  0.30548084555E+02 -0.10210285699E+02 -0.35228573207E+03  0.35375510233E+03  0.00000000000E+00 0. -1.
        -13    1    3    3    0    0 -0.41259002515E+02  0.28431100523E+02 -0.17304046166E+03  0.18014892211E+03  0.00000000000E+00 0.  1.
         22    1    1    2    0    0  0.10710917961E+02 -0.18220814823E+02 -0.11692609587E+03  0.11882101561E+03  0.00000000000E+00 0. -1.
<mgrwt>
<rscale>  0 0.65409765E+02</rscale>
<asrwt>0</asrwt>
<pdfrwt beam="1">  1        2 0.99613530E-01 0.95319974E+02</pdfrwt>
<pdfrwt beam="2">  1       -2 0.80559709E-03 0.95319974E+02</pdfrwt>
<totfact> 0.11765153E+05</totfact>
</mgrwt>
</event>
<event>
 6    1  0.1535970E-002  0.9302603E+02  0.7546771E-02  0.1412414E+00
         -2   -1    0    0    0  501 -0.00000000000E+00  0.00000000000E+00  0.23728087744E+02  0.23728087744E+02  0.00000000000E+00 0.  1.
          2   -1    0    0  501    0  0.00000000000E+00 -0.00000000000E+00 -0.19292137308E+03  0.19292137308E+03  0.00000000000E+00 0. -1.
         23    2    1    2    0    0  0.18497209627E+01  0.12666952604E+02 -0.17818431191E+03  0.20100619662E+03  0.92141027306E+02 0.  0.
         13    1    3    3    0    0  0.34233062301E+02  0.32849434850E+02 -0.13642233850E+03  0.14443698407E+03  0.00000000000E+00 0. -1.
        -13    1    3    3    0    0 -0.32383341338E+02 -0.20182482246E+02 -0.41761973412E+02  0.56569212555E+02  0.00000000000E+00 0.  1.
         22    1    1    2    0    0 -0.18497209627E+01 -0.12666952604E+02  0.89910265775E+01  0.15643264200E+02  0.00000000000E+00 0.  1.
<mgrwt>
<rscale>  0 0.56658730E+02</rscale>
<asrwt>0</asrwt>
<pdfrwt beam="1">  1        2 0.29680211E-01 0.93026029E+02</pdfrwt>
<pdfrwt beam="2">  1       -2 0.36504750E-02 0.93026029E+02</pdfrwt>
<totfact> 0.48883407E+04</totfact>
</mgrwt>
</event>
<event>
 6    1  0.1535970E-002  0.9337435E+02  0.7546771E-02  0.1414441E+00
         -2   -1    0    0    0  501 -0.00000000000E+00  0.00000000000E+00  0.45794263796E+01  0.45794263796E+01  0.00000000000E+00 0.  1.
          2   -1    0    0  501    0  0.00000000000E+00 -0.00000000000E+00 -0.67604321418E+03  0.67604321418E+03  0.00000000000E+00 0. -1.
         23    2    1    2    0    0 -0.97074128587E+01  0.74983761526E+01 -0.64126997599E+03  0.64803236929E+03  0.92565166458E+02 0.  0.
         11    1    3    3    0    0 -0.36007095787E+02 -0.30197949639E+02 -0.29358884358E+03  0.29732614447E+03  0.00000000000E+00 0.  1.
        -11    1    3    3    0    0  0.26299682928E+02  0.37696325791E+02 -0.34768113240E+03  0.35070622482E+03  0.00000000000E+00 0. -1.
         22    1    1    2    0    0  0.97074128587E+01 -0.74983761526E+01 -0.30193811815E+02  0.32590271267E+02  0.00000000000E+00 0. -1.
<mgrwt>
<rscale>  0 0.56214474E+02</rscale>
<asrwt>0</asrwt>
<pdfrwt beam="1">  1        2 0.10400670E+00 0.93374352E+02</pdfrwt>
<pdfrwt beam="2">  1       -2 0.70452679E-03 0.93374352E+02</pdfrwt>
<totfact> 0.13486327E+05</totfact>
</mgrwt>
</event>
<event>
 6    1  0.1535970E-002  0.9522113E+02  0.7546771E-02  0.1418655E+00
         -2   -1    0    0    0  501 -0.00000000000E+00  0.00000000000E+00  0.48390112333E+01  0.48390112333E+01  0.00000000000E+00 0. -1.
          2   -1    0    0  501    0  0.00000000000E+00 -0.00000000000E+00 -0.66549962449E+03  0.66549962449E+03  0.00000000000E+00 0.  1.
         23    2    1    2    0    0 -0.10682747215E+02 -0.18212648113E+01 -0.63964229299E+03  0.64669105910E+03  0.94602456823E+02 0.  0.
         13    1    3    3    0    0 -0.40535404069E+02  0.21819167080E+02 -0.19240130191E+03  0.19783188826E+03  0.00000000000E+00 0. -1.
        -13    1    3    3    0    0  0.29852656853E+02 -0.23640431892E+02 -0.44724099108E+03  0.44885917084E+03  0.00000000000E+00 0.  1.
         22    1    1    2    0    0  0.10682747215E+02  0.18212648113E+01 -0.21018320261E+02  0.23647576623E+02  0.00000000000E+00 0. -1.
<mgrwt>
<rscale>  0 0.55306492E+02</rscale>
<asrwt>0</asrwt>
<pdfrwt beam="1">  1        2 0.10238452E+00 0.95221126E+02</pdfrwt>
<pdfrwt beam="2">  1       -2 0.74446355E-03 0.95221126E+02</pdfrwt>
<totfact> 0.12742086E+05</totfact>
</mgrwt>
</event>
<event>
 6    1  0.1535970E-002  0.1100397E+03  0.7546771E-02  0.1294559E+00
         -2   -1    0    0    0  501 -0.00000000000E+00  0.00000000000E+00  0.21625421755E+02  0.21625421755E+02  0.00000000000E+00 0.  1.
          2   -1    0    0  501    0  0.00000000000E+00 -0.00000000000E+00 -0.64273016649E+03  0.64273016649E+03  0.00000000000E+00 0. -1.
         23    2    1    2    0    0  0.17864708952E+02  0.54541492091E+02 -0.58777539209E+03  0.59798716252E+03  0.93887234538E+02 0.  0.
         11    1    3    3    0    0  0.17350033319E+02  0.86254097138E+01 -0.18262021547E+02  0.26625603841E+02  0.00000000000E+00 0.  1.
        -11    1    3    3    0    0  0.51467563332E+00  0.45916082377E+02 -0.56951337054E+03  0.57136155868E+03  0.00000000000E+00 0. -1.
         22    1    1    2    0    0 -0.17864708952E+02 -0.54541492091E+02 -0.33329352650E+02  0.66368425727E+02  0.00000000000E+00 0.  1.
<mgrwt>
<rscale>  0 0.93513908E+02</rscale>
<asrwt>0</asrwt>
<pdfrwt beam="1">  1        2 0.98881555E-01 0.11003970E+03</pdfrwt>
<pdfrwt beam="2">  1       -2 0.33269883E-02 0.11003970E+03</pdfrwt>
<totfact> 0.15734846E+04</totfact>
</mgrwt>
</event>
<event>
 6    1  0.1535970E-002  0.9227302E+02  0.7546771E-02  0.1401074E+00
         -2   -1    0    0    0  501 -0.00000000000E+00  0.00000000000E+00  0.34517421287E+01  0.34517421287E+01  0.00000000000E+00 0.  1.
          2   -1    0    0  501    0  0.00000000000E+00 -0.00000000000E+00 -0.16054411401E+04  0.16054411401E+04  0.00000000000E+00 0. -1.
         23    2    1    2    0    0  0.11391658516E+02  0.10759910163E+02 -0.15748774219E+04  0.15775782723E+04  0.90932752918E+02 0.  0.
         13    1    3    3    0    0 -0.37401883657E+01 -0.17737686120E+02 -0.13745101923E+04  0.13746297259E+04  0.00000000000E+00 0. -1.
        -13    1    3    3    0    0  0.15131846881E+02  0.28497596283E+02 -0.20036722963E+03  0.20294854641E+03  0.00000000000E+00 0.  1.
         22    1    1    2    0    0 -0.11391658516E+02 -0.10759910163E+02 -0.27111976024E+02  0.31314609919E+02  0.00000000000E+00 0.  1.
<mgrwt>
<rscale>  0 0.59234207E+02</rscale>
<asrwt>0</asrwt>
<pdfrwt beam="1">  1        2 0.24699124E+00 0.92273025E+02</pdfrwt>
<pdfrwt beam="2">  1       -2 0.53103662E-03 0.92273025E+02</pdfrwt>
<totfact> 0.58469556E+04</totfact>
</mgrwt>
</event>
<event>
 6    1  0.1535970E-002  0.9436575E+02  0.7546771E-02  0.1380164E+00
          3   -1    0    0  501    0  0.00000000000E+00  0.00000000000E+00  0.45479248418E+03  0.45479248418E+03  0.00000000000E+00 0. -1.
         -3   -1    0    0    0  501 -0.00000000000E+00 -0.00000000000E+00 -0.96719404706E+01  0.96719404706E+01  0.00000000000E+00 0.  1.
         23    2    1    2    0    0 -0.19460262088E+02 -0.64311203438E+01  0.42636369649E+03  0.43668168852E+03  0.92113160269E+02 0.  0.
         13    1    3    3    0    0  0.11660551158E+02 -0.35602135527E+02  0.88034402666E+02  0.95674116459E+02  0.00000000000E+00 0. -1.
        -13    1    3    3    0    0 -0.31120813246E+02  0.29171015183E+02  0.33832929382E+03  0.34100757206E+03  0.00000000000E+00 0.  1.
         22    1    1    2    0    0  0.19460262088E+02  0.64311203438E+01  0.18756847227E+02  0.27782736138E+02  0.00000000000E+00 0.  1.
<mgrwt>
<rscale>  0 0.64420615E+02</rscale>
<asrwt>0</asrwt>
<pdfrwt beam="1">  1        3 0.69968058E-01 0.94365753E+02</pdfrwt>
<pdfrwt beam="2">  1       -3 0.14879912E-02 0.94365753E+02</pdfrwt>
<totfact> 0.62848994E+03</totfact>
</mgrwt>
</event>
<event>
 6    1  0.1535970E-002  0.1061936E+03  0.7546771E-02  0.1303720E+00
         -3   -1    0    0    0  501 -0.00000000000E+00  0.00000000000E+00  0.39505597305E+02  0.39505597305E+02  0.00000000000E+00 0.  1.
          3   -1    0    0  501    0  0.00000000000E+00 -0.00000000000E+00 -0.24304979718E+03  0.24304979718E+03  0.00000000000E+00 0. -1.
         23    2    1    2    0    0 -0.28794401896E+02  0.45589002521E+02 -0.20246394422E+03  0.22862357008E+03  0.91485590971E+02 0.  0.
         11    1    3    3    0    0 -0.55026917360E+02  0.52963354846E+02 -0.16908862011E+03  0.18553716620E+03  0.00000000000E+00 0. -1.
        -11    1    3    3    0    0  0.26232515464E+02 -0.73743523252E+01 -0.33375324103E+02  0.43086403874E+02  0.00000000000E+00 0.  1.
         22    1    1    2    0    0  0.28794401896E+02 -0.45589002521E+02 -0.10802556548E+01  0.53931824406E+02  0.00000000000E+00 0.  1.
<mgrwt>
<rscale>  0 0.89642376E+02</rscale>
<asrwt>0</asrwt>
<pdfrwt beam="1">  1        3 0.37392277E-01 0.10619363E+03</pdfrwt>
<pdfrwt beam="2">  1       -3 0.60777841E-02 0.10619363E+03</pdfrwt>
<totfact> 0.25773139E+03</totfact>
</mgrwt>
</event>
<event>
 6    1  0.1535970E-002  0.1021194E+03  0.7546771E-02  0.1319562E+00
         -1   -1    0    0    0  501 -0.00000000000E+00  0.00000000000E+00  0.14708118425E+02  0.14708118425E+02  0.00000000000E+00 0.  1.
          1   -1    0    0  501    0  0.00000000000E+00 -0.00000000000E+00 -0.37943213896E+03  0.37943213896E+03  0.00000000000E+00 0. -1.
         23    2    1    2    0    0 -0.42202927376E+02  0.17052363245E+02 -0.27862980976E+03  0.29675399911E+03  0.91413866185E+02 0.  0.
         13    1    3    3    0    0 -0.12300229327E+02  0.22593033203E+02 -0.25961663976E+03  0.26088798445E+03  0.00000000000E+00 0. -1.
        -13    1    3    3    0    0 -0.29902698049E+02 -0.55406699585E+01 -0.19013170000E+02  0.35866014661E+02  0.00000000000E+00 0.  1.
         22    1    1    2    0    0  0.42202927376E+02 -0.17052363245E+02 -0.86094210778E+02  0.97386258275E+02  0.00000000000E+00 0.  1.
<mgrwt>
<rscale>  0 0.83440405E+02</rscale>
<asrwt>0</asrwt>
<pdfrwt beam="1">  1        1 0.58374165E-01 0.10211937E+03</pdfrwt>
<pdfrwt beam="2">  1       -1 0.22627878E-02 0.10211937E+03</pdfrwt>
<totfact> 0.33386374E+04</totfact>
</mgrwt>
</event>
<event>
 6    1  0.1535970E-002  0.9443634E+02  0.7546771E-02  0.1404381E+00
          1   -1    0    0  501    0  0.00000000000E+00  0.00000000000E+00  0.97143736901E+03  0.97143736901E+03  0.00000000000E+00 0. -1.
         -1   -1    0    0    0  501 -0.00000000000E+00 -0.00000000000E+00 -0.51574566093E+01  0.51574566093E+01  0.00000000000E+00 0.  1.
         23    2    1    2    0    0  0.87589877294E+01 -0.10760160622E+02  0.95204357442E+03  0.95671583566E+03  0.93411571496E+02 0.  0.
         13    1    3    3    0    0  0.38886572031E+02 -0.36110762857E+02  0.44682106685E+03  0.44996135218E+03  0.00000000000E+00 0.  1.
        -13    1    3    3    0    0 -0.30127584302E+02  0.25350602235E+02  0.50522250757E+03  0.50675448348E+03  0.00000000000E+00 0. -1.
         22    1    1    2    0    0 -0.87589877294E+01  0.10760160622E+02  0.14236337984E+02  0.19878989961E+02  0.00000000000E+00 0. -1.
<mgrwt>
<rscale>  0 0.58466685E+02</rscale>
<asrwt>0</asrwt>
<pdfrwt beam="1">  1        1 0.14945176E+00 0.94436342E+02</pdfrwt>
<pdfrwt beam="2">  1       -1 0.79345564E-03 0.94436342E+02</pdfrwt>
<totfact> 0.40145633E+04</totfact>
</mgrwt>
</event>
<event>
 6    1  0.1535970E-002  0.9823331E+02  0.7546771E-02  0.1402681E+00
         -1   -1    0    0    0  501 -0.00000000000E+00  0.00000000000E+00  0.15612071587E+03  0.15612071587E+03  0.00000000000E+00 0.  1.
          1   -1    0    0  501    0  0.00000000000E+00 -0.00000000000E+00 -0.19710440276E+02  0.19710440276E+02  0.00000000000E+00 0. -1.
         23    2    1    2    0    0 -0.45891912682E+01 -0.11800694784E+02  0.12247138974E+03  0.15700007512E+03  0.97413886115E+02 0.  0.
         13    1    3    3    0    0 -0.47506544570E+02 -0.17491419927E+02  0.88553795666E+02  0.10200292287E+03  0.00000000000E+00 0.  1.
        -13    1    3    3    0    0  0.42917353302E+02  0.56907251432E+01  0.33917594075E+02  0.54997152243E+02  0.00000000000E+00 0. -1.
         22    1    1    2    0    0  0.45891912682E+01  0.11800694784E+02  0.13938885857E+02  0.18831081032E+02  0.00000000000E+00 0. -1.
<mgrwt>
<rscale>  0 0.58859496E+02</rscale>
<asrwt>0</asrwt>
<pdfrwt beam="1">  1        1 0.30323755E-02 0.98233305E+02</pdfrwt>
<pdfrwt beam="2">  1       -1 0.24018571E-01 0.98233305E+02</pdfrwt>
<totfact> 0.43658644E+04</totfact>
</mgrwt>
</event>
<event>
 6    1  0.1535970E-002  0.9597112E+02  0.7546771E-02  0.1409514E+00
          2   -1    0    0  501    0  0.00000000000E+00  0.00000000000E+00  0.23503872287E+03  0.23503872287E+03  0.00000000000E+00 0. -1.
         -2   -1    0    0    0  501 -0.00000000000E+00 -0.00000000000E+00 -0.14251477246E+02  0.14251477246E+02  0.00000000000E+00 0.  1.
         23    2    1    2    0    0 -0.91434537522E+01 -0.80732865772E+01  0.21567639307E+03  0.23606516641E+03  0.95192833565E+02 0.  0.
         11    1    3    3    0    0 -0.74033406329E+01  0.14361242621E+02  0.21276280298E+03  0.21337540879E+03  0.00000000000E+00 0. -1.
        -11    1    3    3    0    0 -0.17401131193E+01 -0.22434529199E+02  0.29135900935E+01  0.22689757629E+02  0.00000000000E+00 0.  1.
         22    1    1    2    0    0  0.91434537522E+01  0.80732865772E+01  0.51108525541E+01  0.13225033705E+02  0.00000000000E+00 0.  1.
<mgrwt>
<rscale>  0 0.57302524E+02</rscale>
<asrwt>0</asrwt>
<pdfrwt beam="1">  1        2 0.36159801E-01 0.95971122E+02</pdfrwt>
<pdfrwt beam="2">  1       -2 0.21925351E-02 0.95971122E+02</pdfrwt>
<totfact> 0.83470280E+04</totfact>
</mgrwt>
</event>
<event>
 6    1  0.1535970E-002  0.9734319E+02  0.7546771E-02  0.1351078E+00
          2   -1    0    0  501    0  0.00000000000E+00  0.00000000000E+00  0.58898290035E+03  0.58898290035E+03  0.00000000000E+00 0. -1.
         -2   -1    0    0    0  501 -0.00000000000E+00 -0.00000000000E+00 -0.83819979779E+01  0.83819979779E+01  0.00000000000E+00 0.  1.
         23    2    1    2    0    0 -0.95902810258E+01  0.28762457984E+02  0.52580989229E+03  0.53474455606E+03  0.92501053680E+02 0.  0.
         11    1    3    3    0    0 -0.12418531203E+02  0.41028780820E+02  0.51833456463E+03  0.52010412579E+03  0.00000000000E+00 0. -1.
        -11    1    3    3    0    0  0.28282501768E+01 -0.12266322836E+02  0.74753276556E+01  0.14640430272E+02  0.00000000000E+00 0.  1.
         22    1    1    2    0    0  0.95902810258E+01 -0.28762457984E+02  0.54791010091E+02  0.62620342272E+02  0.00000000000E+00 0.  1.
<mgrwt>
<rscale>  0 0.72720783E+02</rscale>
<asrwt>0</asrwt>
<pdfrwt beam="1">  1        2 0.90612722E-01 0.97343194E+02</pdfrwt>
<pdfrwt beam="2">  1       -2 0.12895386E-02 0.97343194E+02</pdfrwt>
<totfact> 0.67376404E+04</totfact>
</mgrwt>
</event>
<event>
 6    1  0.1535970E-002  0.9305282E+02  0.7546771E-02  0.1398552E+00
         -2   -1    0    0    0  501 -0.00000000000E+00  0.00000000000E+00  0.90316741588E+01  0.90316741588E+01  0.00000000000E+00 0.  1.
          2   -1    0    0  501    0  0.00000000000E+00 -0.00000000000E+00 -0.33337308819E+03  0.33337308819E+03  0.00000000000E+00 0. -1.
         23    2    1    2    0    0  0.12583878817E+02  0.97221770496E+01 -0.26078691235E+03  0.27689102778E+03  0.91683983780E+02 0.  0.
         13    1    3    3    0    0 -0.21343268764E+01  0.10118638269E+02  0.44411558509E+01  0.11254601589E+02  0.00000000000E+00 0.  1.
        -13    1    3    3    0    0  0.14718205693E+02 -0.39646121942E+00 -0.26522806820E+03  0.26563642620E+03  0.00000000000E+00 0. -1.
         22    1    1    2    0    0 -0.12583878817E+02 -0.97221770496E+01 -0.63554501686E+02  0.65513734569E+02  0.00000000000E+00 0. -1.
<mgrwt>
<rscale>  0 0.59828807E+02</rscale>
<asrwt>0</asrwt>
<pdfrwt beam="1">  1        2 0.51288166E-01 0.93052822E+02</pdfrwt>
<pdfrwt beam="2">  1       -2 0.13894884E-02 0.93052822E+02</pdfrwt>
<totfact> 0.11073192E+05</totfact>
</mgrwt>
</event>
<event>
 6    1  0.1535970E-002  0.1050150E+03  0.7546771E-02  0.1308567E+00
         -1   -1    0    0    0  501 -0.00000000000E+00  0.00000000000E+00  0.72118629165E+01  0.72118629165E+01  0.00000000000E+00 0.  1.
          1   -1    0    0  501    0  0.00000000000E+00 -0.00000000000E+00 -0.89123553146E+03  0.89123553146E+03  0.00000000000E+00 0. -1.
         23    2    1    2    0    0 -0.36213309604E+02  0.35959580982E+02 -0.68406887849E+03  0.69208263643E+03  0.91780443846E+02 0.  0.
         11    1    3    3    0    0 -0.13531719953E+02  0.58641125554E+02 -0.58172500461E+03  0.58482977868E+03  0.00000000000E+00 0. -1.
        -11    1    3    3    0    0 -0.22681589651E+02 -0.22681544572E+02 -0.10234387389E+03  0.10725285775E+03  0.00000000000E+00 0.  1.
         22    1    1    2    0    0  0.36213309604E+02 -0.35959580982E+02 -0.19995479005E+03  0.20636475794E+03  0.00000000000E+00 0.  1.
<mgrwt>
<rscale>  0 0.87680673E+02</rscale>
<asrwt>0</asrwt>
<pdfrwt beam="1">  1        1 0.13711322E+00 0.10501498E+03</pdfrwt>
<pdfrwt beam="2">  1       -1 0.11095168E-02 0.10501498E+03</pdfrwt>
<totfact> 0.29004282E+04</totfact>
</mgrwt>
</event>
<event>
 6    1  0.1535970E-002  0.9027568E+02  0.7546771E-02  0.1422112E+00
          2   -1    0    0  501    0  0.00000000000E+00  0.00000000000E+00  0.10545053089E+02  0.10545053089E+02  0.00000000000E+00 0. -1.
         -2   -1    0    0    0  501 -0.00000000000E+00 -0.00000000000E+00 -0.24878385871E+03  0.24878385871E+03  0.00000000000E+00 0.  1.
         23    2    1    2    0    0 -0.14392899105E+01  0.11972885703E+02 -0.20620272428E+03  0.22509833986E+03  0.89466628194E+02 0.  0.
         11    1    3    3    0    0  0.25396114371E+02  0.42560966347E+01 -0.11155986026E+02  0.28063018510E+02  0.00000000000E+00 0. -1.
        -11    1    3    3    0    0 -0.26835404281E+02  0.77167890679E+01 -0.19504673825E+03  0.19703532135E+03  0.00000000000E+00 0.  1.
         22    1    1    2    0    0  0.14392899105E+01 -0.11972885703E+02 -0.32036081342E+02  0.34230571939E+02  0.00000000000E+00 0. -1.
<mgrwt>
<rscale>  0 0.54576626E+02</rscale>
<asrwt>0</asrwt>
<pdfrwt beam="1">  1        2 0.16223159E-02 0.90275684E+02</pdfrwt>
<pdfrwt beam="2">  1       -2 0.38274438E-01 0.90275684E+02</pdfrwt>
<totfact> 0.40960750E+04</totfact>
</mgrwt>
</event>
<event>
 6    1  0.1535970E-002  0.9401710E+02  0.7546771E-02  0.1388898E+00
         -1   -1    0    0    0  501 -0.00000000000E+00  0.00000000000E+00  0.17996216697E+03  0.17996216697E+03  0.00000000000E+00 0.  1.
          1   -1    0    0  501    0  0.00000000000E+00 -0.00000000000E+00 -0.17471286636E+02  0.17471286636E+02  0.00000000000E+00 0. -1.
         23    2    1    2    0    0 -0.17989170794E+02  0.16027317362E+00  0.13986588252E+03  0.16852797870E+03  0.92279892495E+02 0.  0.
         11    1    3    3    0    0 -0.12226465518E+02  0.40478199882E+02  0.31401083649E+02  0.52668768536E+02  0.00000000000E+00 0. -1.
        -11    1    3    3    0    0 -0.57627052760E+01 -0.40317926708E+02  0.10846479887E+03  0.11585921017E+03  0.00000000000E+00 0.  1.
         22    1    1    2    0    0  0.17989170794E+02 -0.16027317362E+00  0.22624997812E+02  0.28905474902E+02  0.00000000000E+00 0.  1.
<mgrwt>
<rscale>  0 0.62181647E+02</rscale>
<asrwt>0</asrwt>
<pdfrwt beam="1">  1        1 0.26878904E-02 0.94017097E+02</pdfrwt>
<pdfrwt beam="2">  1       -1 0.27686486E-01 0.94017097E+02</pdfrwt>
<totfact> 0.40597047E+04</totfact>
</mgrwt>
</event>
<event>
 6    1  0.1535970E-002  0.9436273E+02  0.7546771E-02  0.1400321E+00
         -2   -1    0    0    0  501 -0.00000000000E+00  0.00000000000E+00  0.65388697241E+02  0.65388697241E+02  0.00000000000E+00 0.  1.
          2   -1    0    0  501    0  0.00000000000E+00 -0.00000000000E+00 -0.50897296554E+02  0.50897296554E+02  0.00000000000E+00 0. -1.
         23    2    1    2    0    0 -0.11291957090E+02 -0.96093814004E+01  0.25583001973E+02  0.97769187242E+02  0.93190533201E+02 0.  0.
         13    1    3    3    0    0 -0.26834924139E+02 -0.36110696867E+02  0.43184088797E+02  0.62361535477E+02  0.00000000000E+00 0.  1.
        -13    1    3    3    0    0  0.15542967049E+02  0.26501315467E+02 -0.17601086824E+02  0.35407651765E+02  0.00000000000E+00 0. -1.
         22    1    1    2    0    0  0.11291957090E+02  0.96093814004E+01 -0.11091601286E+02  0.18516806553E+02  0.00000000000E+00 0.  1.
<mgrwt>
<rscale>  0 0.59410854E+02</rscale>
<asrwt>0</asrwt>
<pdfrwt beam="1">  1        2 0.78303533E-02 0.94362726E+02</pdfrwt>
<pdfrwt beam="2">  1       -2 0.10059800E-01 0.94362726E+02</pdfrwt>
<totfact> 0.49675136E+04</totfact>
</mgrwt>
</event>
<event>
 6    1  0.1535970E-002  0.9220817E+02  0.7546771E-02  0.1394486E+00
          1   -1    0    0  501    0  0.00000000000E+00  0.00000000000E+00  0.34623555486E+03  0.34623555486E+03  0.00000000000E+00 0. -1.
         -1   -1    0    0    0  501 -0.00000000000E+00 -0.00000000000E+00 -0.95844523991E+01  0.95844523991E+01  0.00000000000E+00 0.  1.
         23    2    1    2    0    0  0.68575004076E+01 -0.16030349991E+02  0.31385996902E+03  0.32712448154E+03  0.90544733910E+02 0.  0.
         11    1    3    3    0    0  0.46651819636E+02 -0.14664090596E+02  0.21615136491E+03  0.22161417008E+03  0.00000000000E+00 0. -1.
        -11    1    3    3    0    0 -0.39794319229E+02 -0.13662593957E+01  0.97708604104E+02  0.10551031146E+03  0.00000000000E+00 0.  1.
         22    1    1    2    0    0 -0.68575004076E+01  0.16030349991E+02  0.22791133449E+02  0.28695525724E+02  0.00000000000E+00 0. -1.
<mgrwt>
<rscale>  0 0.60804509E+02</rscale>
<asrwt>0</asrwt>
<pdfrwt beam="1">  1        1 0.53266999E-01 0.92208168E+02</pdfrwt>
<pdfrwt beam="2">  1       -1 0.14745314E-02 0.92208168E+02</pdfrwt>
<totfact> 0.68002302E+04</totfact>
</mgrwt>
</event>
<event>
 6    1  0.1535970E-002  0.9118070E+02  0.7546771E-02  0.1408808E+00
          2   -1    0    0  501    0  0.00000000000E+00  0.00000000000E+00  0.12852655025E+03  0.12852655025E+03  0.00000000000E+00 0. -1.
         -2   -1    0    0    0  501 -0.00000000000E+00 -0.00000000000E+00 -0.23593521389E+02  0.23593521389E+02  0.00000000000E+00 0.  1.
         23    2    1    2    0    0 -0.82499029705E+01  0.11778771723E+02  0.10308017075E+03  0.13762064249E+03  0.90039542849E+02 0.  0.
         11    1    3    3    0    0  0.18109040118E+01 -0.27155435653E+02  0.26055929846E+00  0.27216997446E+02  0.00000000000E+00 0.  1.
        -11    1    3    3    0    0 -0.10060806982E+02  0.38934207376E+02  0.10281961145E+03  0.11040364505E+03  0.00000000000E+00 0. -1.
         22    1    1    2    0    0  0.82499029705E+01 -0.11778771723E+02  0.18528581107E+01  0.14499429144E+02  0.00000000000E+00 0.  1.
<mgrwt>
<rscale>  0 0.57460724E+02</rscale>
<asrwt>0</asrwt>
<pdfrwt beam="1">  1        2 0.19773315E-01 0.91180698E+02</pdfrwt>
<pdfrwt beam="2">  1       -2 0.36297726E-02 0.91180698E+02</pdfrwt>
<totfact> 0.76648585E+04</totfact>
</mgrwt>
</event>
<event>
 6    1  0.1535970E-002  0.1044989E+03  0.7546771E-02  0.1393412E+00
          2   -1    0    0  501    0  0.00000000000E+00  0.00000000000E+00  0.55963284030E+03  0.55963284030E+03  0.00000000000E+00 0. -1.
         -2   -1    0    0    0  501 -0.00000000000E+00 -0.00000000000E+00 -0.20140420898E+02  0.20140420898E+02  0.00000000000E+00 0.  1.
         23    2    1    2    0    0  0.10487079558E+02  0.62066646083E+01  0.55229740491E+03  0.56209646350E+03  0.10378588191E+03 0.  0.
         13    1    3    3    0    0 -0.10191994627E+02 -0.46618769699E+02  0.26103431729E+03  0.26536032342E+03  0.00000000000E+00 0.  1.
        -13    1    3    3    0    0  0.20679074185E+02  0.52825434307E+02  0.29126308762E+03  0.29673614008E+03  0.00000000000E+00 0. -1.
         22    1    1    2    0    0 -0.10487079558E+02 -0.62066646083E+01 -0.12804985505E+02  0.17676797702E+02  0.00000000000E+00 0.  1.
<mgrwt>
<rscale>  0 0.61066076E+02</rscale>
<asrwt>0</asrwt>
<pdfrwt beam="1">  1        2 0.86097348E-01 0.10449886E+03</pdfrwt>
<pdfrwt beam="2">  1       -2 0.30985267E-02 0.10449886E+03</pdfrwt>
<totfact> 0.20318161E+04</totfact>
</mgrwt>
</event>
<event>
 6    1  0.1535970E-002  0.8715651E+02  0.7546771E-02  0.1402672E+00
          2   -1    0    0  501    0  0.00000000000E+00  0.00000000000E+00  0.31699276835E+02  0.31699276835E+02  0.00000000000E+00 0. -1.
         -2   -1    0    0    0  501 -0.00000000000E+00 -0.00000000000E+00 -0.12076932450E+03  0.12076932450E+03  0.00000000000E+00 0.  1.
         23    2    1    2    0    0  0.31572885753E+01  0.17854275279E+02 -0.32425277708E+02  0.92992777840E+02  0.85249718352E+02 0.  0.
         11    1    3    3    0    0 -0.32214825226E+02 -0.89700321973E+01 -0.35150731384E+02  0.48516289623E+02  0.00000000000E+00 0.  1.
        -11    1    3    3    0    0  0.35372113802E+02  0.26824307477E+02  0.27254536760E+01  0.44476488217E+02  0.00000000000E+00 0. -1.
         22    1    1    2    0    0 -0.31572885753E+01 -0.17854275279E+02 -0.56644769959E+02  0.59475823497E+02  0.00000000000E+00 0.  1.
<mgrwt>
<rscale>  0 0.58861599E+02</rscale>
<asrwt>0</asrwt>
<pdfrwt beam="1">  1        2 0.48768118E-02 0.87156515E+02</pdfrwt>
<pdfrwt beam="2">  1       -2 0.18579896E-01 0.87156515E+02</pdfrwt>
<totfact> 0.33491202E+04</totfact>
</mgrwt>
</event>
<event>
 6    1  0.1535970E-002  0.9373789E+02  0.7546771E-02  0.1379979E+00
         -2   -1    0    0    0  501 -0.00000000000E+00  0.00000000000E+00  0.75502347438E+01  0.75502347438E+01  0.00000000000E+00 0.  1.
          2   -1    0    0  501    0  0.00000000000E+00 -0.00000000000E+00 -0.49501496931E+03  0.49501496931E+03  0.00000000000E+00 0. -1.
         23    2    1    2    0    0  0.17970090348E+02 -0.10814551677E+02 -0.44971546386E+03  0.45938087688E+03  0.91361441145E+02 0.  0.
         13    1    3    3    0    0 -0.11078731741E+02 -0.43317041816E+02 -0.30445492590E+03  0.30772050032E+03  0.00000000000E+00 0. -1.
        -13    1    3    3    0    0  0.29048822088E+02  0.32502490140E+02 -0.14526053796E+03  0.15166037656E+03  0.00000000000E+00 0.  1.
         22    1    1    2    0    0 -0.17970090348E+02  0.10814551677E+02 -0.37749270705E+02  0.43184327179E+02  0.00000000000E+00 0.  1.
<mgrwt>
<rscale>  0 0.64469305E+02</rscale>
<asrwt>0</asrwt>
<pdfrwt beam="1">  1        2 0.76156157E-01 0.93737888E+02</pdfrwt>
<pdfrwt beam="2">  1       -2 0.11615745E-02 0.93737888E+02</pdfrwt>
<totfact> 0.94130752E+04</totfact>
</mgrwt>
</event>
<event>
 6    1  0.1535970E-002  0.9255623E+02  0.7546771E-02  0.1366168E+00
         -2   -1    0    0    0  501 -0.00000000000E+00  0.00000000000E+00  0.38188985269E+01  0.38188985269E+01  0.00000000000E+00 0.  1.
          2   -1    0    0  501    0  0.00000000000E+00 -0.00000000000E+00 -0.11525993254E+04  0.11525993254E+04  0.00000000000E+00 0. -1.
         23    2    1    2    0    0 -0.20510696895E+02 -0.18100455997E+02 -0.10450748687E+04  0.10491654478E+04  0.88421379996E+02 0.  0.
         11    1    3    3    0    0 -0.16149677445E+02 -0.37316036509E+02 -0.98703260273E+03  0.98786975736E+03  0.00000000000E+00 0. -1.
        -11    1    3    3    0    0 -0.43610194495E+01  0.19215580512E+02 -0.58042265963E+02  0.61295690413E+02  0.00000000000E+00 0.  1.
         22    1    1    2    0    0  0.20510696895E+02  0.18100455997E+02 -0.10370555816E+03  0.10725277613E+03  0.00000000000E+00 0.  1.
<mgrwt>
<rscale>  0 0.68244053E+02</rscale>
<asrwt>0</asrwt>
<pdfrwt beam="1">  1        2 0.17732295E+00 0.92556230E+02</pdfrwt>
<pdfrwt beam="2">  1       -2 0.58752293E-03 0.92556230E+02</pdfrwt>
<totfact> 0.87601782E+04</totfact>
</mgrwt>
</event>
<event>
 6    1  0.1535970E-002  0.9290316E+02  0.7546771E-02  0.1404623E+00
          2   -1    0    0  501    0  0.00000000000E+00  0.00000000000E+00  0.77096668180E+03  0.77096668180E+03  0.00000000000E+00 0. -1.
         -2   -1    0    0    0  501 -0.00000000000E+00 -0.00000000000E+00 -0.38906230874E+01  0.38906230874E+01  0.00000000000E+00 0.  1.
         23    2    1    2    0    0 -0.61650311936E+01  0.13143389346E+02  0.70563163486E+03  0.71172115426E+03  0.91761871258E+02 0.  0.
         13    1    3    3    0    0 -0.17460717513E+02 -0.30263649608E+02  0.13925522969E+03  0.14357152970E+03  0.00000000000E+00 0.  1.
        -13    1    3    3    0    0  0.11295686320E+02  0.43407038955E+02  0.56637640517E+03  0.56814962456E+03  0.00000000000E+00 0. -1.
         22    1    1    2    0    0  0.61650311936E+01 -0.13143389346E+02  0.61444423855E+02  0.63136150627E+02  0.00000000000E+00 0.  1.
<mgrwt>
<rscale>  0 0.58411107E+02</rscale>
<asrwt>0</asrwt>
<pdfrwt beam="1">  1        2 0.11861014E+00 0.92903161E+02</pdfrwt>
<pdfrwt beam="2">  1       -2 0.59855801E-03 0.92903161E+02</pdfrwt>
<totfact> 0.14516281E+05</totfact>
</mgrwt>
</event>
<event>
 6    1  0.1535970E-002  0.9147238E+02  0.7546771E-02  0.1403568E+00
          2   -1    0    0  501    0  0.00000000000E+00  0.00000000000E+00  0.79855687724E+03  0.79855687724E+03  0.00000000000E+00 0. -1.
         -2   -1    0    0    0  501 -0.00000000000E+00 -0.00000000000E+00 -0.37321224162E+01  0.37321224162E+01  0.00000000000E+00 0.  1.
         23    2    1    2    0    0  0.74415428133E+01  0.13555770454E+02  0.72651102980E+03  0.73224686592E+03  0.90155758289E+02 0.  0.
         13    1    3    3    0    0  0.25639882834E+02 -0.11106833231E+02  0.63739793710E+03  0.63801010615E+03  0.00000000000E+00 0. -1.
        -13    1    3    3    0    0 -0.18198340021E+02  0.24662603686E+02  0.89113092708E+02  0.94236759771E+02  0.00000000000E+00 0.  1.
         22    1    1    2    0    0 -0.74415428133E+01 -0.13555770454E+02  0.68313725018E+02  0.70042133733E+02  0.00000000000E+00 0. -1.
<mgrwt>
<rscale>  0 0.58654047E+02</rscale>
<asrwt>0</asrwt>
<pdfrwt beam="1">  1        2 0.12285477E+00 0.91472380E+02</pdfrwt>
<pdfrwt beam="2">  1       -2 0.57417331E-03 0.91472380E+02</pdfrwt>
<totfact> 0.14713634E+05</totfact>
</mgrwt>
</event>
<event>
 6    1  0.1535970E-002  0.9973315E+02  0.7546771E-02  0.1333674E+00
          4   -1    0    0  501    0  0.00000000000E+00  0.00000000000E+00  0.72279024118E+03  0.72279024118E+03  0.00000000000E+00 0. -1.
         -4   -1    0    0    0  501 -0.00000000000E+00 -0.00000000000E+00 -0.66105619210E+01  0.66105619210E+01  0.00000000000E+00 0.  1.
         23    2    1    2    0    0  0.33958480502E+02 -0.17211074200E+02  0.54339951406E+03  0.55247600281E+03  0.92180813205E+02 0.  0.
         11    1    3    3    0    0 -0.20145727639E+02 -0.25357717405E+02  0.34972373321E+03  0.35122009303E+03  0.00000000000E+00 0. -1.
        -11    1    3    3    0    0  0.54104208141E+02  0.81466432060E+01  0.19367578085E+03  0.20125590978E+03  0.00000000000E+00 0.  1.
         22    1    1    2    0    0 -0.33958480502E+02  0.17211074200E+02  0.17278016520E+03  0.17692480030E+03  0.00000000000E+00 0. -1.
<mgrwt>
<rscale>  0 0.78393161E+02</rscale>
<asrwt>0</asrwt>
<pdfrwt beam="1">  1        4 0.11119844E+00 0.99733153E+02</pdfrwt>
<pdfrwt beam="2">  1       -4 0.10170101E-02 0.99733153E+02</pdfrwt>
<totfact> 0.29112696E+03</totfact>
</mgrwt>
</event>
<event>
 6    1  0.1535970E-002  0.9325642E+02  0.7546771E-02  0.1380026E+00
         -4   -1    0    0    0  501 -0.00000000000E+00  0.00000000000E+00  0.27468775901E+02  0.27468775901E+02  0.00000000000E+00 0.  1.
          4   -1    0    0  501    0  0.00000000000E+00 -0.00000000000E+00 -0.14275547591E+03  0.14275547591E+03  0.00000000000E+00 0. -1.
         23    2    1    2    0    0  0.21229134772E+02 -0.15197940054E+01 -0.11611133230E+03  0.14892481625E+03  0.90795228234E+02 0.  0.
         11    1    3    3    0    0  0.23821805270E+02  0.40700077964E+02 -0.39952361533E+02  0.61807491008E+02  0.00000000000E+00 0. -1.
        -11    1    3    3    0    0 -0.25926704984E+01 -0.42219871969E+02 -0.76158970763E+02  0.87117325241E+02  0.00000000000E+00 0.  1.
         22    1    1    2    0    0 -0.21229134772E+02  0.15197940054E+01  0.82463228438E+00  0.21299435565E+02  0.00000000000E+00 0. -1.
<mgrwt>
<rscale>  0 0.64456933E+02</rscale>
<asrwt>0</asrwt>
<pdfrwt beam="1">  1        4 0.21962381E-01 0.93256418E+02</pdfrwt>
<pdfrwt beam="2">  1       -4 0.42259655E-02 0.93256418E+02</pdfrwt>
<totfact> 0.87412811E+03</totfact>
</mgrwt>
</event>
<event>
 6    1  0.1535970E-002  0.9534285E+02  0.7546771E-02  0.1403828E+00
          2   -1    0    0  501    0  0.00000000000E+00  0.00000000000E+00  0.16617431210E+02  0.16617431210E+02  0.00000000000E+00 0. -1.
         -2   -1    0    0    0  501 -0.00000000000E+00 -0.00000000000E+00 -0.20564306208E+03  0.20564306208E+03  0.00000000000E+00 0.  1.
         23    2    1    2    0    0  0.10508928191E+02  0.86332935714E+01 -0.12725155403E+03  0.15900697244E+03  0.94367833258E+02 0.  0.
         13    1    3    3    0    0 -0.86338376834E+01  0.13924406636E+02 -0.13622968832E+03  0.13721137064E+03  0.00000000000E+00 0.  1.
        -13    1    3    3    0    0  0.19142765874E+02 -0.52911130647E+01  0.89781342898E+01  0.21795601807E+02  0.00000000000E+00 0. -1.
         22    1    1    2    0    0 -0.10508928191E+02 -0.86332935714E+01 -0.61774076842E+02  0.63253520845E+02  0.00000000000E+00 0. -1.
<mgrwt>
<rscale>  0 0.58594136E+02</rscale>
<asrwt>0</asrwt>
<pdfrwt beam="1">  1        2 0.25565279E-02 0.95342851E+02</pdfrwt>
<pdfrwt beam="2">  1       -2 0.31637394E-01 0.95342851E+02</pdfrwt>
<totfact> 0.31682044E+04</totfact>
</mgrwt>
</event>
<event>
 6    1  0.1535970E-002  0.9019999E+02  0.7546771E-02  0.1379611E+00
          4   -1    0    0  501    0  0.00000000000E+00  0.00000000000E+00  0.14119969911E+03  0.14119969911E+03  0.00000000000E+00 0. -1.
         -4   -1    0    0    0  501 -0.00000000000E+00 -0.00000000000E+00 -0.23263329016E+02  0.23263329016E+02  0.00000000000E+00 0.  1.
         23    2    1    2    0    0 -0.14625638816E+02  0.18624540498E+02  0.10058908409E+03  0.13510811114E+03  0.87035941069E+02 0.  0.
         13    1    3    3    0    0 -0.50999892069E+02  0.11842242505E+02  0.67851591712E+02  0.85703361640E+02  0.00000000000E+00 0.  1.
        -13    1    3    3    0    0  0.36374253253E+02  0.67822979921E+01  0.32737492377E+02  0.49404749498E+02  0.00000000000E+00 0. -1.
         22    1    1    2    0    0  0.14625638816E+02 -0.18624540498E+02  0.17347286001E+02  0.29354916983E+02  0.00000000000E+00 0. -1.
<mgrwt>
<rscale>  0 0.64566047E+02</rscale>
<asrwt>0</asrwt>
<pdfrwt beam="1">  1        4 0.21723030E-01 0.90199988E+02</pdfrwt>
<pdfrwt beam="2">  1       -4 0.35789738E-02 0.90199988E+02</pdfrwt>
<totfact> 0.11463951E+04</totfact>
</mgrwt>
</event>
<event>
 6    1  0.1535970E-002  0.9292355E+02  0.7546771E-02  0.1414045E+00
          4   -1    0    0  501    0  0.00000000000E+00  0.00000000000E+00  0.33835153145E+03  0.33835153145E+03  0.00000000000E+00 0. -1.
         -4   -1    0    0    0  501 -0.00000000000E+00 -0.00000000000E+00 -0.86487230693E+01  0.86487230693E+01  0.00000000000E+00 0.  1.
         23    2    1    2    0    0  0.43326022173E+01  0.11748854657E+02  0.31023662577E+03  0.32385421181E+03  0.92075944251E+02 0.  0.
         11    1    3    3    0    0 -0.28797284552E+02  0.40061016145E+02  0.16668648354E+03  0.17383484233E+03  0.00000000000E+00 0.  1.
        -11    1    3    3    0    0  0.33129886769E+02 -0.28312161488E+02  0.14355014223E+03  0.15001936948E+03  0.00000000000E+00 0. -1.
         22    1    1    2    0    0 -0.43326022173E+01 -0.11748854657E+02  0.19466182616E+02  0.23146042715E+02  0.00000000000E+00 0. -1.
<mgrwt>
<rscale>  0 0.56300862E+02</rscale>
<asrwt>0</asrwt>
<pdfrwt beam="1">  1        4 0.52054072E-01 0.92923552E+02</pdfrwt>
<pdfrwt beam="2">  1       -4 0.13305730E-02 0.92923552E+02</pdfrwt>
<totfact> 0.99631924E+03</totfact>
</mgrwt>
</event>
<event>
 6    1  0.1535970E-002  0.9064831E+02  0.7546771E-02  0.1433257E+00
         -1   -1    0    0    0  501 -0.00000000000E+00  0.00000000000E+00  0.88686759144E+01  0.88686759144E+01  0.00000000000E+00 0.  1.
          1   -1    0    0  501    0  0.00000000000E+00 -0.00000000000E+00 -0.29033990597E+03  0.29033990597E+03  0.00000000000E+00 0. -1.
         23    2    1    2    0    0 -0.52998739922E+01  0.85431769277E+01 -0.26292470627E+03  0.27811241918E+03  0.90089078132E+02 0.  0.
         13    1    3    3    0    0  0.18365687756E+02  0.31799875997E+02 -0.22388805394E+03  0.22687968463E+03  0.00000000000E+00 0. -1.
        -13    1    3    3    0    0 -0.23665561748E+02 -0.23256699069E+02 -0.39036652329E+02  0.51232734551E+02  0.00000000000E+00 0.  1.
         22    1    1    2    0    0  0.52998739922E+01 -0.85431769277E+01 -0.18546523792E+02  0.21096162711E+02  0.00000000000E+00 0. -1.
<mgrwt>
<rscale>  0 0.52311842E+02</rscale>
<asrwt>0</asrwt>
<pdfrwt beam="1">  1        1 0.44667670E-01 0.90648312E+02</pdfrwt>
<pdfrwt beam="2">  1       -1 0.13644119E-02 0.90648312E+02</pdfrwt>
<totfact> 0.93943254E+04</totfact>
</mgrwt>
</event>
<event>
 6    1  0.1535970E-002  0.9396273E+02  0.7546771E-02  0.1392496E+00
          2   -1    0    0  501    0  0.00000000000E+00  0.00000000000E+00  0.65306039851E+03  0.65306039851E+03  0.00000000000E+00 0. -1.
         -2   -1    0    0    0  501 -0.00000000000E+00 -0.00000000000E+00 -0.48299820934E+01  0.48299820934E+01  0.00000000000E+00 0.  1.
         23    2    1    2    0    0  0.10368654341E+02 -0.13484095169E+02  0.58057225770E+03  0.58812680661E+03  0.92410304768E+02 0.  0.
         13    1    3    3    0    0  0.23541147650E+02  0.32999644272E+02  0.36291383217E+03  0.36517066111E+03  0.00000000000E+00 0. -1.
        -13    1    3    3    0    0 -0.13172493309E+02 -0.46483739441E+02  0.21765842553E+03  0.22295614550E+03  0.00000000000E+00 0.  1.
         22    1    1    2    0    0 -0.10368654341E+02  0.13484095169E+02  0.67658158713E+02  0.69763573990E+02  0.00000000000E+00 0. -1.
<mgrwt>
<rscale>  0 0.61290175E+02</rscale>
<asrwt>0</asrwt>
<pdfrwt beam="1">  1        2 0.10047076E+00 0.93962728E+02</pdfrwt>
<pdfrwt beam="2">  1       -2 0.74307469E-03 0.93962728E+02</pdfrwt>
<totfact> 0.13030554E+05</totfact>
</mgrwt>
</event>
<event>
 6    1  0.1535970E-002  0.9369296E+02  0.7546771E-02  0.1381654E+00
         -2   -1    0    0    0  501 -0.00000000000E+00  0.00000000000E+00  0.58700860892E+01  0.58700860892E+01  0.00000000000E+00 0.  1.
          2   -1    0    0  501    0  0.00000000000E+00 -0.00000000000E+00 -0.12976480831E+04  0.12976480831E+04  0.00000000000E+00 0. -1.
         23    2    1    2    0    0 -0.13273605781E+02 -0.15540941622E+02 -0.12707322297E+04  0.12741816084E+04  0.91436656188E+02 0.  0.
         11    1    3    3    0    0 -0.24672486619E+02 -0.10094780282E+02 -0.12470979510E+04  0.12473828344E+04  0.00000000000E+00 0. -1.
        -11    1    3    3    0    0  0.11398880838E+02 -0.54461613401E+01 -0.23634278724E+02  0.26798774011E+02  0.00000000000E+00 0.  1.
         22    1    1    2    0    0  0.13273605781E+02  0.15540941622E+02 -0.21045767272E+02  0.29336560756E+02  0.00000000000E+00 0.  1.
<mgrwt>
<rscale>  0 0.64030888E+02</rscale>
<asrwt>0</asrwt>
<pdfrwt beam="1">  1        2 0.19963830E+00 0.93692964E+02</pdfrwt>
<pdfrwt beam="2">  1       -2 0.90308955E-03 0.93692964E+02</pdfrwt>
<totfact> 0.39957147E+04</totfact>
</mgrwt>
</event>
<event>
 6    1  0.1535970E-002  0.9305034E+02  0.7546771E-02  0.1395988E+00
          1   -1    0    0  501    0  0.00000000000E+00  0.00000000000E+00  0.16185253140E+03  0.16185253140E+03  0.00000000000E+00 0. -1.
         -1   -1    0    0    0  501 -0.00000000000E+00 -0.00000000000E+00 -0.26972067455E+02  0.26972067455E+02  0.00000000000E+00 0.  1.
         23    2    1    2    0    0 -0.82437080855E+01  0.14367984478E+02  0.14281784120E+03  0.17045615693E+03  0.91564010237E+02 0.  0.
         13    1    3    3    0    0 -0.47129774953E+02 -0.64552237579E+01  0.88586171939E+02  0.10055046225E+03  0.00000000000E+00 0. -1.
        -13    1    3    3    0    0  0.38886066868E+02  0.20823208236E+02  0.54231669263E+02  0.69905694680E+02  0.00000000000E+00 0.  1.
         22    1    1    2    0    0  0.82437080855E+01 -0.14367984478E+02 -0.79373772547E+01  0.18368441922E+02  0.00000000000E+00 0.  1.
<mgrwt>
<rscale>  0 0.60441611E+02</rscale>
<asrwt>0</asrwt>
<pdfrwt beam="1">  1        1 0.24900389E-01 0.93050339E+02</pdfrwt>
<pdfrwt beam="2">  1       -1 0.41495489E-02 0.93050339E+02</pdfrwt>
<totfact> 0.39180065E+04</totfact>
</mgrwt>
</event>
<event>
 6    1  0.1535970E-002  0.9192137E+02  0.7546771E-02  0.1349285E+00
         -2   -1    0    0    0  501 -0.00000000000E+00  0.00000000000E+00  0.68397324871E+01  0.68397324871E+01  0.00000000000E+00 0.  1.
          2   -1    0    0  501    0  0.00000000000E+00 -0.00000000000E+00 -0.86435047501E+03  0.86435047501E+03  0.00000000000E+00 0. -1.
         23    2    1    2    0    0  0.37124446531E+02  0.18072973872E+00 -0.77831906148E+03  0.78372833272E+03  0.84090908236E+02 0.  0.
         13    1    3    3    0    0  0.69146612435E+01  0.37886603619E+02 -0.47785864486E+03  0.47940806391E+03  0.00000000000E+00 0. -1.
        -13    1    3    3    0    0  0.30209785288E+02 -0.37705873880E+02 -0.30046041662E+03  0.30432026881E+03  0.00000000000E+00 0.  1.
         22    1    1    2    0    0 -0.37124446531E+02 -0.18072973872E+00 -0.79191681041E+02  0.87461874777E+02  0.00000000000E+00 0.  1.
<mgrwt>
<rscale>  0 0.73278850E+02</rscale>
<asrwt>0</asrwt>
<pdfrwt beam="1">  1        2 0.13297707E+00 0.91921369E+02</pdfrwt>
<pdfrwt beam="2">  1       -2 0.10522659E-02 0.91921369E+02</pdfrwt>
<totfact> 0.56796864E+04</totfact>
</mgrwt>
</event>
<event>
 6    1  0.1535970E-002  0.8870871E+02  0.7546771E-02  0.1422543E+00
          2   -1    0    0  501    0  0.00000000000E+00  0.00000000000E+00  0.21068654234E+03  0.21068654234E+03  0.00000000000E+00 0. -1.
         -2   -1    0    0    0  501 -0.00000000000E+00 -0.00000000000E+00 -0.12519093268E+02  0.12519093268E+02  0.00000000000E+00 0.  1.
         23    2    1    2    0    0 -0.12362263884E+02  0.25659752162E+01  0.18374246192E+03  0.20403560558E+03  0.87805616180E+02 0.  0.
         13    1    3    3    0    0 -0.48387519146E+02 -0.28305859126E+01  0.13311579914E+03  0.14166573406E+03  0.00000000000E+00 0. -1.
        -13    1    3    3    0    0  0.36025255262E+02  0.53965611287E+01  0.50626662780E+02  0.62369871516E+02  0.00000000000E+00 0.  1.
         22    1    1    2    0    0  0.12362263884E+02 -0.25659752162E+01  0.14424987156E+02  0.19170030036E+02  0.00000000000E+00 0.  1.
<mgrwt>
<rscale>  0 0.54486522E+02</rscale>
<asrwt>0</asrwt>
<pdfrwt beam="1">  1        2 0.32413312E-01 0.88708715E+02</pdfrwt>
<pdfrwt beam="2">  1       -2 0.19260145E-02 0.88708715E+02</pdfrwt>
<totfact> 0.11159823E+05</totfact>
</mgrwt>
</event>
<event>
 6    1  0.1535970E-002  0.9672315E+02  0.7546771E-02  0.1359726E+00
         -2   -1    0    0    0  501 -0.00000000000E+00  0.00000000000E+00  0.10539591788E+02  0.10539591788E+02  0.00000000000E+00 0.  1.
          2   -1    0    0  501    0  0.00000000000E+00 -0.00000000000E+00 -0.37427912568E+03  0.37427912568E+03  0.00000000000E+00 0. -1.
         23    2    1    2    0    0 -0.10180175797E+02 -0.24681184576E+02 -0.31120327141E+03  0.32588777715E+03  0.92965425334E+02 0.  0.
         11    1    3    3    0    0  0.68696282835E+01  0.72152661278E+01  0.23659894779E+01  0.10239617388E+02  0.00000000000E+00 0.  1.
        -11    1    3    3    0    0 -0.17049804081E+02 -0.31896450703E+02 -0.31356926089E+03  0.31564815976E+03  0.00000000000E+00 0. -1.
         22    1    1    2    0    0  0.10180175797E+02  0.24681184576E+02 -0.52536262483E+02  0.58930940320E+02  0.00000000000E+00 0. -1.
<mgrwt>
<rscale>  0 0.70108155E+02</rscale>
<asrwt>0</asrwt>
<pdfrwt beam="1">  1        2 0.57581394E-01 0.96723147E+02</pdfrwt>
<pdfrwt beam="2">  1       -2 0.16214759E-02 0.96723147E+02</pdfrwt>
<totfact> 0.79097925E+04</totfact>
</mgrwt>
</event>
<event>
 6    1  0.1535970E-002  0.9155389E+02  0.7546771E-02  0.1415878E+00
         -2   -1    0    0    0  501 -0.00000000000E+00  0.00000000000E+00  0.14672903311E+03  0.14672903311E+03  0.00000000000E+00 0.  1.
          2   -1    0    0  501    0  0.00000000000E+00 -0.00000000000E+00 -0.18530450821E+02  0.18530450821E+02  0.00000000000E+00 0. -1.
         23    2    1    2    0    0  0.78146820804E+01  0.10044287578E+02  0.11317722174E+03  0.14557196907E+03  0.90665085270E+02 0.  0.
         13    1    3    3    0    0 -0.33834781865E+02  0.20155093296E+01  0.12158390305E+02  0.36009459820E+02  0.00000000000E+00 0. -1.
        -13    1    3    3    0    0  0.41649463945E+02  0.80287782481E+01  0.10101883144E+03  0.10956250925E+03  0.00000000000E+00 0.  1.
         22    1    1    2    0    0 -0.78146820804E+01 -0.10044287578E+02  0.15021360546E+02  0.19687514866E+02  0.00000000000E+00 0. -1.
<mgrwt>
<rscale>  0 0.55902670E+02</rscale>
<asrwt>0</asrwt>
<pdfrwt beam="1">  1        2 0.28508387E-02 0.91553889E+02</pdfrwt>
<pdfrwt beam="2">  1       -2 0.22573697E-01 0.91553889E+02</pdfrwt>
<totfact> 0.49178842E+04</totfact>
</mgrwt>
</event>
<event>
 6    1  0.1535970E-002  0.9525533E+02  0.7546771E-02  0.1422322E+00
          2   -1    0    0  501    0  0.00000000000E+00  0.00000000000E+00  0.13651373208E+04  0.13651373208E+04  0.00000000000E+00 0.  1.
         -2   -1    0    0    0  501 -0.00000000000E+00 -0.00000000000E+00 -0.23255865942E+01  0.23255865942E+01  0.00000000000E+00 0. -1.
         23    2    1    2    0    0 -0.14658320976E+01 -0.10126437829E+02  0.13205149600E+04  0.13239461231E+04  0.94704191503E+02 0.  0.
         11    1    3    3    0    0 -0.28662320100E+02  0.27873716106E+02  0.89101523245E+03  0.89191177652E+03  0.00000000000E+00 0. -1.
        -11    1    3    3    0    0  0.27196488002E+02 -0.38000153935E+02  0.42949972751E+03  0.43203434654E+03  0.00000000000E+00 0.  1.
         22    1    1    2    0    0  0.14658320976E+01  0.10126437829E+02  0.42296774205E+02  0.43516784291E+02  0.00000000000E+00 0.  1.
<mgrwt>
<rscale>  0 0.54532684E+02</rscale>
<asrwt>0</asrwt>
<pdfrwt beam="1">  1        2 0.21002049E+00 0.95255327E+02</pdfrwt>
<pdfrwt beam="2">  1       -2 0.35778364E-03 0.95255327E+02</pdfrwt>
<totfact> 0.13550220E+05</totfact>
</mgrwt>
</event>
<event>
 6    1  0.1535970E-002  0.1068022E+03  0.7546771E-02  0.1306570E+00
         -1   -1    0    0    0  501 -0.00000000000E+00  0.00000000000E+00  0.79016782196E+01  0.79016782196E+01  0.00000000000E+00 0.  1.
          1   -1    0    0  501    0  0.00000000000E+00 -0.00000000000E+00 -0.82764901260E+03  0.82764901260E+03  0.00000000000E+00 0. -1.
         23    2    1    2    0    0  0.43800482258E+02 -0.24756307245E+02 -0.64186685886E+03  0.65069177011E+03  0.94209119473E+02 0.  0.
         13    1    3    3    0    0  0.37446808320E-01 -0.49401175580E+02 -0.20138449267E+03  0.20735523007E+03  0.00000000000E+00 0.  1.
        -13    1    3    3    0    0  0.43763035450E+02  0.24644868336E+02 -0.44048236619E+03  0.44333654004E+03  0.00000000000E+00 0. -1.
         22    1    1    2    0    0 -0.43800482258E+02  0.24756307245E+02 -0.17788047552E+03  0.18485892071E+03  0.00000000000E+00 0. -1.
<mgrwt>
<rscale>  0 0.88481892E+02</rscale>
<asrwt>0</asrwt>
<pdfrwt beam="1">  1        1 0.12733055E+00 0.10680222E+03</pdfrwt>
<pdfrwt beam="2">  1       -1 0.12156434E-02 0.10680222E+03</pdfrwt>
<totfact> 0.28601705E+04</totfact>
</mgrwt>
</event>
<event>
 6    1  0.1535970E-002  0.9302714E+02  0.7546771E-02  0.1399980E+00
         -2   -1    0    0    0  501 -0.00000000000E+00  0.00000000000E+00  0.71420807865E+01  0.71420807865E+01  0.00000000000E+00 0.  1.
          2   -1    0    0  501    0  0.00000000000E+00 -0.00000000000E+00 -0.62509339888E+03  0.62509339888E+03  0.00000000000E+00 0. -1.
         23    2    1    2    0    0  0.86264247758E+01  0.12948597821E+02 -0.60465425396E+03  0.61176859655E+03  0.91716778740E+02 0.  0.
         11    1    3    3    0    0  0.48500031178E+01 -0.27369853509E+02 -0.66267443004E+02  0.71861014560E+02  0.00000000000E+00 0.  1.
        -11    1    3    3    0    0  0.37764216580E+01  0.40318451330E+02 -0.53838681095E+03  0.53990758199E+03  0.00000000000E+00 0. -1.
         22    1    1    2    0    0 -0.86264247758E+01 -0.12948597821E+02 -0.13297064134E+02  0.20466883117E+02  0.00000000000E+00 0.  1.
<mgrwt>
<rscale>  0 0.59491159E+02</rscale>
<asrwt>0</asrwt>
<pdfrwt beam="1">  1        2 0.96168202E-01 0.93027141E+02</pdfrwt>
<pdfrwt beam="2">  1       -2 0.10987818E-02 0.93027141E+02</pdfrwt>
<totfact> 0.78657889E+04</totfact>
</mgrwt>
</event>
<event>
 6    1  0.1535970E-002  0.9499554E+02  0.7546771E-02  0.1381804E+00
         -2   -1    0    0    0  501 -0.00000000000E+00  0.00000000000E+00  0.45805052876E+02  0.45805052876E+02  0.00000000000E+00 0.  1.
          2   -1    0    0  501    0  0.00000000000E+00 -0.00000000000E+00 -0.14595205235E+03  0.14595205235E+03  0.00000000000E+00 0. -1.
         23    2    1    2    0    0  0.13512048956E+02  0.14144088685E+02 -0.12696112314E+03  0.15856632428E+03  0.92959785353E+02 0.  0.
         13    1    3    3    0    0 -0.65480280806E+01 -0.10353460579E+02 -0.12630395122E+03  0.12689664658E+03  0.00000000000E+00 0. -1.
        -13    1    3    3    0    0  0.20060077037E+02  0.24497549263E+02 -0.65717191976E+00  0.31669677699E+02  0.00000000000E+00 0.  1.
         22    1    1    2    0    0 -0.13512048956E+02 -0.14144088685E+02  0.26814123671E+02  0.33190780949E+02  0.00000000000E+00 0.  1.
<mgrwt>
<rscale>  0 0.63991882E+02</rscale>
<asrwt>0</asrwt>
<pdfrwt beam="1">  1        2 0.22454162E-01 0.94995539E+02</pdfrwt>
<pdfrwt beam="2">  1       -2 0.70469313E-02 0.94995539E+02</pdfrwt>
<totfact> 0.24922278E+04</totfact>
</mgrwt>
</event>
<event>
 6    1  0.1535970E-002  0.9231456E+02  0.7546771E-02  0.1401362E+00
          2   -1    0    0  501    0  0.00000000000E+00  0.00000000000E+00  0.25604524182E+04  0.25604524182E+04  0.00000000000E+00 0. -1.
         -2   -1    0    0    0  501 -0.00000000000E+00 -0.00000000000E+00 -0.26674020291E+01  0.26674020291E+01  0.00000000000E+00 0.  1.
         23    2    1    2    0    0 -0.15057974208E+02  0.39897603610E+01  0.25263568254E+04  0.25280428769E+04  0.90990756039E+02 0.  0.
         11    1    3    3    0    0 -0.62918561779E+01 -0.15813612566E+02  0.90304646419E+02  0.91894433789E+02  0.00000000000E+00 0.  1.
        -11    1    3    3    0    0 -0.87661180305E+01  0.19803372927E+02  0.24360521789E+04  0.24361484431E+04  0.00000000000E+00 0. -1.
         22    1    1    2    0    0  0.15057974208E+02 -0.39897603610E+01  0.31428190829E+02  0.35076943336E+02  0.00000000000E+00 0.  1.
<mgrwt>
<rscale>  0 0.59166736E+02</rscale>
<asrwt>0</asrwt>
<pdfrwt beam="1">  1        2 0.39391379E+00 0.92314563E+02</pdfrwt>
<pdfrwt beam="2">  1       -2 0.41037159E-03 0.92314563E+02</pdfrwt>
<totfact> 0.27380389E+04</totfact>
</mgrwt>
</event>
<event>
 6    1  0.1535970E-002  0.1110972E+03  0.7546771E-02  0.1310114E+00
         -1   -1    0    0    0  501 -0.00000000000E+00  0.00000000000E+00  0.36083674571E+02  0.36083674571E+02  0.00000000000E+00 0.  1.
          1   -1    0    0  501    0  0.00000000000E+00 -0.00000000000E+00 -0.17142325808E+03  0.17142325808E+03  0.00000000000E+00 0. -1.
         23    2    1    2    0    0 -0.30648242734E+02 -0.28583255379E+02 -0.11823918045E+03  0.16224391181E+03  0.10288958089E+03 0.  0.
         13    1    3    3    0    0 -0.18682287803E+02  0.33614175507E+02 -0.78656849935E+02  0.87554786930E+02  0.00000000000E+00 0. -1.
        -13    1    3    3    0    0 -0.11965954931E+02 -0.62197430886E+02 -0.39582330513E+02  0.74689124878E+02  0.00000000000E+00 0.  1.
         22    1    1    2    0    0  0.30648242734E+02  0.28583255379E+02 -0.17100403057E+02  0.45263020839E+02  0.00000000000E+00 0.  1.
<mgrwt>
<rscale>  0 0.87066812E+02</rscale>
<asrwt>0</asrwt>
<pdfrwt beam="1">  1        1 0.26372809E-01 0.11109718E+03</pdfrwt>
<pdfrwt beam="2">  1       -1 0.55513346E-02 0.11109718E+03</pdfrwt>
<totfact> 0.24317875E+04</totfact>
</mgrwt>
</event>
<event>
 6    1  0.1535970E-002  0.9178273E+02  0.7546771E-02  0.1411079E+00
         -2   -1    0    0    0  501 -0.00000000000E+00  0.00000000000E+00  0.52574280632E+02  0.52574280632E+02  0.00000000000E+00 0.  1.
          2   -1    0    0  501    0  0.00000000000E+00 -0.00000000000E+00 -0.58384345202E+02  0.58384345202E+02  0.00000000000E+00 0. -1.
         23    2    1    2    0    0  0.36833151004E+01 -0.13100542215E+02 -0.16995674019E+02  0.93343039691E+02  0.90768271477E+02 0.  0.
         11    1    3    3    0    0  0.78887028891E+01  0.38031839067E+02 -0.16056774290E+02  0.42029423226E+02  0.00000000000E+00 0.  1.
        -11    1    3    3    0    0 -0.42053877887E+01 -0.51132381282E+02 -0.93889972886E+00  0.51313616465E+02  0.00000000000E+00 0. -1.
         22    1    1    2    0    0 -0.36833151004E+01  0.13100542215E+02  0.11185609448E+02  0.17615586144E+02  0.00000000000E+00 0.  1.
<mgrwt>
<rscale>  0 0.56953869E+02</rscale>
<asrwt>0</asrwt>
<pdfrwt beam="1">  1        2 0.89822070E-02 0.91782733E+02</pdfrwt>
<pdfrwt beam="2">  1       -2 0.80883508E-02 0.91782733E+02</pdfrwt>
<totfact> 0.58484389E+04</totfact>
</mgrwt>
</event>
<event>
 6    1  0.1535970E-002  0.9398030E+02  0.7546771E-02  0.1372330E+00
         -2   -1    0    0    0  501 -0.00000000000E+00  0.00000000000E+00  0.23089425018E+03  0.23089425018E+03  0.00000000000E+00 0.  1.
          2   -1    0    0  501    0  0.00000000000E+00 -0.00000000000E+00 -0.14972215162E+02  0.14972215162E+02  0.00000000000E+00 0. -1.
         23    2    1    2    0    0 -0.90981923522E+01  0.21769003107E+02  0.17082996643E+03  0.19497480345E+03  0.90970489445E+02 0.  0.
         11    1    3    3    0    0 -0.83950113644E+01 -0.35513032056E+02  0.60324070552E+02  0.70502802423E+02  0.00000000000E+00 0. -1.
        -11    1    3    3    0    0 -0.70318098781E+00  0.57282035163E+02  0.11050589587E+03  0.12447200102E+03  0.00000000000E+00 0.  1.
         22    1    1    2    0    0  0.90981923522E+01 -0.21769003107E+02  0.45092068588E+02  0.50891661890E+02  0.00000000000E+00 0. -1.
<mgrwt>
<rscale>  0 0.66523794E+02</rscale>
<asrwt>0</asrwt>
<pdfrwt beam="1">  1        2 0.23034179E-02 0.93980299E+02</pdfrwt>
<pdfrwt beam="2">  1       -2 0.35522190E-01 0.93980299E+02</pdfrwt>
<totfact> 0.29460046E+04</totfact>
</mgrwt>
</event>
<event>
 6    1  0.1535970E-002  0.9893021E+02  0.7546771E-02  0.1353699E+00
          2   -1    0    0  501    0  0.00000000000E+00  0.00000000000E+00  0.10844961687E+03  0.10844961687E+03  0.00000000000E+00 0. -1.
         -2   -1    0    0    0  501 -0.00000000000E+00 -0.00000000000E+00 -0.37209592224E+02  0.37209592224E+02  0.00000000000E+00 0.  1.
         23    2    1    2    0    0 -0.26320547402E+01  0.27498774819E+02  0.60846288509E+02  0.11614412686E+03  0.94995142242E+02 0.  0.
         13    1    3    3    0    0 -0.19646005577E+02  0.57294692051E+02  0.54022404651E+02  0.81160750839E+02  0.00000000000E+00 0. -1.
        -13    1    3    3    0    0  0.17013950837E+02 -0.29795917232E+02  0.68238838582E+01  0.34983376020E+02  0.00000000000E+00 0.  1.
         22    1    1    2    0    0  0.26320547402E+01 -0.27498774819E+02  0.10393736141E+02  0.29515082241E+02  0.00000000000E+00 0. -1.
<mgrwt>
<rscale>  0 0.71915107E+02</rscale>
<asrwt>0</asrwt>
<pdfrwt beam="1">  1        2 0.16684556E-01 0.98930215E+02</pdfrwt>
<pdfrwt beam="2">  1       -2 0.57245527E-02 0.98930215E+02</pdfrwt>
<totfact> 0.47842166E+04</totfact>
</mgrwt>
</event>
<event>
 6    1  0.1535970E-002  0.9071095E+02  0.7546771E-02  0.1405202E+00
          1   -1    0    0  501    0  0.00000000000E+00  0.00000000000E+00  0.14773086725E+03  0.14773086725E+03  0.00000000000E+00 0. -1.
         -1   -1    0    0    0  501 -0.00000000000E+00 -0.00000000000E+00 -0.24658732183E+02  0.24658732183E+02  0.00000000000E+00 0.  1.
         23    2    1    2    0    0  0.14045917397E+02 -0.64457818033E+01  0.12735034590E+03  0.15635404561E+03  0.89384792223E+02 0.  0.
         11    1    3    3    0    0  0.95900034631E+01 -0.70751143696E+01 -0.12010981785E+02  0.16920079586E+02  0.00000000000E+00 0.  1.
        -11    1    3    3    0    0  0.44559139338E+01  0.62933256626E+00  0.13936132768E+03  0.13943396603E+03  0.00000000000E+00 0. -1.
         22    1    1    2    0    0 -0.14045917397E+02  0.64457818033E+01 -0.42782108263E+01  0.16035553824E+02  0.00000000000E+00 0.  1.
<mgrwt>
<rscale>  0 0.58278350E+02</rscale>
<asrwt>0</asrwt>
<pdfrwt beam="1">  1        1 0.22727825E-01 0.90710953E+02</pdfrwt>
<pdfrwt beam="2">  1       -1 0.37936512E-02 0.90710953E+02</pdfrwt>
<totfact> 0.49826941E+04</totfact>
</mgrwt>
</event>
<event>
 6    1  0.1535970E-002  0.8742354E+02  0.7546771E-02  0.1419048E+00
         -3   -1    0    0    0  501 -0.00000000000E+00  0.00000000000E+00  0.15302305285E+03  0.15302305285E+03  0.00000000000E+00 0.  1.
          3   -1    0    0  501    0  0.00000000000E+00 -0.00000000000E+00 -0.16796010773E+02  0.16796010773E+02  0.00000000000E+00 0. -1.
         23    2    1    2    0    0  0.19332970137E+01  0.13783520132E+02  0.11933694844E+03  0.14793303320E+03  0.86308469944E+02 0.  0.
         11    1    3    3    0    0  0.39797089420E+02  0.51635967415E+01  0.28728439136E+02  0.49353766552E+02  0.00000000000E+00 0. -1.
        -11    1    3    3    0    0 -0.37863792407E+02  0.86199233905E+01  0.90608509302E+02  0.98579266647E+02  0.00000000000E+00 0.  1.
         22    1    1    2    0    0 -0.19332970137E+01 -0.13783520132E+02  0.16890093637E+02  0.21886030422E+02  0.00000000000E+00 0.  1.
<mgrwt>
<rscale>  0 0.55222867E+02</rscale>
<asrwt>0</asrwt>
<pdfrwt beam="1">  1        3 0.25840018E-02 0.87423538E+02</pdfrwt>
<pdfrwt beam="2">  1       -3 0.23542007E-01 0.87423538E+02</pdfrwt>
<totfact> 0.21723938E+04</totfact>
</mgrwt>
</event>
<event>
 6    1  0.1535970E-002  0.1242985E+03  0.7546771E-02  0.1253885E+00
          2   -1    0    0  501    0  0.00000000000E+00  0.00000000000E+00  0.12178445932E+04  0.12178445932E+04  0.00000000000E+00 0. -1.
         -2   -1    0    0    0  501 -0.00000000000E+00 -0.00000000000E+00 -0.13199594550E+02  0.13199594550E+02  0.00000000000E+00 0.  1.
         23    2    1    2    0    0  0.59752091307E+02 -0.63227232955E+02  0.10127689723E+04  0.10203681215E+04  0.88781285784E+02 0.  0.
         13    1    3    3    0    0  0.75109475724E+02 -0.58546721594E+02  0.97036065107E+03  0.97502253569E+03  0.00000000000E+00 0. -1.
        -13    1    3    3    0    0 -0.15357384417E+02 -0.46805113608E+01  0.42408321247E+02  0.45345585824E+02  0.00000000000E+00 0.  1.
         22    1    1    2    0    0 -0.59752091307E+02  0.63227232955E+02  0.19187602629E+03  0.21067606620E+03  0.00000000000E+00 0.  1.
<mgrwt>
<rscale>  0 0.11368992E+03</rscale>
<asrwt>0</asrwt>
<pdfrwt beam="1">  1        2 0.18736062E+00 0.12429848E+03</pdfrwt>
<pdfrwt beam="2">  1       -2 0.20307078E-02 0.12429848E+03</pdfrwt>
<totfact> 0.14146460E+04</totfact>
</mgrwt>
</event>
<event>
 6    1  0.1535970E-002  0.9247968E+02  0.7546771E-02  0.1369208E+00
          2   -1    0    0  501    0  0.00000000000E+00  0.00000000000E+00  0.17386810441E+03  0.17386810441E+03  0.00000000000E+00 0.  1.
         -2   -1    0    0    0  501 -0.00000000000E+00 -0.00000000000E+00 -0.26669814861E+02  0.26669814861E+02  0.00000000000E+00 0. -1.
         23    2    1    2    0    0 -0.14008139924E+02  0.21989973672E+02  0.14792589553E+03  0.17445504487E+03  0.88728266001E+02 0.  0.
         11    1    3    3    0    0  0.40235549852E+01  0.43496044828E+01  0.14908524290E+03  0.14920294134E+03  0.00000000000E+00 0.  1.
        -11    1    3    3    0    0 -0.18031694909E+02  0.17640369189E+02 -0.11593473734E+01  0.25252103531E+02  0.00000000000E+00 0. -1.
         22    1    1    2    0    0  0.14008139924E+02 -0.21989973672E+02 -0.72760598316E+00  0.26082874395E+02  0.00000000000E+00 0. -1.
<mgrwt>
<rscale>  0 0.67387812E+02</rscale>
<asrwt>0</asrwt>
<pdfrwt beam="1">  1        2 0.26748938E-01 0.92479685E+02</pdfrwt>
<pdfrwt beam="2">  1       -2 0.41030486E-02 0.92479685E+02</pdfrwt>
<totfact> 0.46011564E+04</totfact>
</mgrwt>
</event>
<event>
 6    1  0.1535970E-002  0.9285721E+02  0.7546771E-02  0.1384185E+00
         -2   -1    0    0    0  501 -0.00000000000E+00  0.00000000000E+00  0.13722710392E+03  0.13722710392E+03  0.00000000000E+00 0.  1.
          2   -1    0    0  501    0  0.00000000000E+00 -0.00000000000E+00 -0.29383372743E+02  0.29383372743E+02  0.00000000000E+00 0. -1.
         23    2    1    2    0    0 -0.16913479497E+02  0.10951211771E+02  0.50224392672E+02  0.10556964608E+03  0.90644722555E+02 0.  0.
         13    1    3    3    0    0  0.37277891565E+02  0.71764176563E+01  0.14955934483E+02  0.40802232122E+02  0.00000000000E+00 0.  1.
        -13    1    3    3    0    0 -0.54191371062E+02  0.37747941144E+01  0.35268458190E+02  0.64767413962E+02  0.00000000000E+00 0. -1.
         22    1    1    2    0    0  0.16913479497E+02 -0.10951211771E+02  0.57619338509E+02  0.61040830582E+02  0.00000000000E+00 0.  1.
<mgrwt>
<rscale>  0 0.63376284E+02</rscale>
<asrwt>0</asrwt>
<pdfrwt beam="1">  1        2 0.45205190E-02 0.92857205E+02</pdfrwt>
<pdfrwt beam="2">  1       -2 0.21111862E-01 0.92857205E+02</pdfrwt>
<totfact> 0.30090753E+04</totfact>
</mgrwt>
</event>
<event>
 6    1  0.1535970E-002  0.1091939E+03  0.7546771E-02  0.1293592E+00
          3   -1    0    0  501    0  0.00000000000E+00  0.00000000000E+00  0.23967840819E+03  0.23967840819E+03  0.00000000000E+00 0. -1.
         -3   -1    0    0    0  501 -0.00000000000E+00 -0.00000000000E+00 -0.41207619821E+02  0.41207619821E+02  0.00000000000E+00 0.  1.
         23    2    1    2    0    0 -0.56812720635E+02  0.18672146368E+02  0.19181056502E+03  0.22071383467E+03  0.91361751758E+02 0.  0.
         11    1    3    3    0    0 -0.81447422415E+02  0.12942462355E+02  0.16064342323E+03  0.18057546726E+03  0.00000000000E+00 0. -1.
        -11    1    3    3    0    0  0.24634701780E+02  0.57296840130E+01  0.31167141799E+02  0.40138367413E+02  0.00000000000E+00 0.  1.
         22    1    1    2    0    0  0.56812720635E+02 -0.18672146368E+02  0.66602233419E+01  0.60172193336E+02  0.00000000000E+00 0.  1.
<mgrwt>
<rscale>  0 0.93935228E+02</rscale>
<asrwt>0</asrwt>
<pdfrwt beam="1">  1        3 0.36873600E-01 0.10919388E+03</pdfrwt>
<pdfrwt beam="2">  1       -3 0.63396340E-02 0.10919388E+03</pdfrwt>
<totfact> 0.24882316E+03</totfact>
</mgrwt>
</event>
<event>
 6    1  0.1535970E-002  0.9726521E+02  0.7546771E-02  0.1335295E+00
         -1   -1    0    0    0  501 -0.00000000000E+00  0.00000000000E+00  0.83771802946E+02  0.83771802946E+02  0.00000000000E+00 0.  1.
          1   -1    0    0  501    0  0.00000000000E+00 -0.00000000000E+00 -0.58978634099E+02  0.58978634099E+02  0.00000000000E+00 0. -1.
         23    2    1    2    0    0 -0.36768451184E+02 -0.15487117720E+02  0.31615295406E+02  0.10227437957E+03  0.88705986244E+02 0.  0.
         11    1    3    3    0    0  0.22714974736E+02 -0.27157916501E+02  0.38931383910E+01  0.35618520919E+02  0.00000000000E+00 0.  1.
        -11    1    3    3    0    0 -0.59483425919E+02  0.11670798780E+02  0.27722157015E+02  0.66655858654E+02  0.00000000000E+00 0. -1.
         22    1    1    2    0    0  0.36768451184E+02  0.15487117720E+02 -0.68221265586E+01  0.40476057473E+02  0.00000000000E+00 0.  1.
<mgrwt>
<rscale>  0 0.77840065E+02</rscale>
<asrwt>0</asrwt>
<pdfrwt beam="1">  1        1 0.90736360E-02 0.97265214E+02</pdfrwt>
<pdfrwt beam="2">  1       -1 0.12887970E-01 0.97265214E+02</pdfrwt>
<totfact> 0.26489670E+04</totfact>
</mgrwt>
</event>
<event>
 6    1  0.1535970E-002  0.9310599E+02  0.7546771E-02  0.1386829E+00
         -1   -1    0    0    0  501 -0.00000000000E+00  0.00000000000E+00  0.26763803223E+02  0.26763803223E+02  0.00000000000E+00 0. -1.
          1   -1    0    0  501    0  0.00000000000E+00 -0.00000000000E+00 -0.13156181237E+03  0.13156181237E+03  0.00000000000E+00 0.  1.
         23    2    1    2    0    0 -0.15959861650E+02 -0.10585803308E+02 -0.10337312708E+03  0.13912127482E+03  0.91115033281E+02 0.  0.
         13    1    3    3    0    0 -0.40497911945E+01 -0.10381792885E+02 -0.11897288836E+03  0.11949364250E+03  0.00000000000E+00 0.  1.
        -13    1    3    3    0    0 -0.11910070455E+02 -0.20401042340E+00  0.15599761283E+02  0.19627632322E+02  0.00000000000E+00 0. -1.
         22    1    1    2    0    0  0.15959861650E+02  0.10585803308E+02 -0.14248820673E+01  0.19204340771E+02  0.00000000000E+00 0. -1.
<mgrwt>
<rscale>  0 0.62702289E+02</rscale>
<asrwt>0</asrwt>
<pdfrwt beam="1">  1        1 0.20240279E-01 0.93105992E+02</pdfrwt>
<pdfrwt beam="2">  1       -1 0.41175082E-02 0.93105992E+02</pdfrwt>
<totfact> 0.51321184E+04</totfact>
</mgrwt>
</event>
<event>
 6    1  0.1535970E-002  0.9240246E+02  0.7546771E-02  0.1397078E+00
         -4   -1    0    0    0  501 -0.00000000000E+00  0.00000000000E+00  0.96190010591E+01  0.96190010591E+01  0.00000000000E+00 0.  1.
          4   -1    0    0  501    0  0.00000000000E+00 -0.00000000000E+00 -0.31283682519E+03  0.31283682519E+03  0.00000000000E+00 0. -1.
         23    2    1    2    0    0  0.13038040170E+02 -0.10314917032E+02 -0.24266690759E+03  0.25966409512E+03  0.90894588661E+02 0.  0.
         13    1    3    3    0    0 -0.17496584975E+02 -0.70705031796E+01 -0.22165460668E+03  0.22245648375E+03  0.00000000000E+00 0. -1.
        -13    1    3    3    0    0  0.30534625145E+02 -0.32444138522E+01 -0.21012300915E+02  0.37207611368E+02  0.00000000000E+00 0.  1.
         22    1    1    2    0    0 -0.13038040170E+02  0.10314917032E+02 -0.60550916540E+02  0.62791731133E+02  0.00000000000E+00 0. -1.
<mgrwt>
<rscale>  0 0.60180050E+02</rscale>
<asrwt>0</asrwt>
<pdfrwt beam="1">  1        4 0.48128735E-01 0.92402458E+02</pdfrwt>
<pdfrwt beam="2">  1       -4 0.14798465E-02 0.92402458E+02</pdfrwt>
<totfact> 0.99262453E+03</totfact>
</mgrwt>
</event>
<event>
 6    1  0.1535970E-002  0.9373368E+02  0.7546771E-02  0.1407679E+00
         -2   -1    0    0    0  501 -0.00000000000E+00  0.00000000000E+00  0.70116447465E+01  0.70116447465E+01  0.00000000000E+00 0.  1.
          2   -1    0    0  501    0  0.00000000000E+00 -0.00000000000E+00 -0.75413773409E+03  0.75413773409E+03  0.00000000000E+00 0. -1.
         23    2    1    2    0    0 -0.13227758522E+02  0.25591735904E+01 -0.73999043858E+03  0.74590338012E+03  0.92760338087E+02 0.  0.
         11    1    3    3    0    0  0.27420796311E+02 -0.79111083774E+01 -0.57327307460E+03  0.57398301697E+03  0.00000000000E+00 0. -1.
        -11    1    3    3    0    0 -0.40648554833E+02  0.10470281968E+02 -0.16671736398E+03  0.17192036315E+03  0.00000000000E+00 0.  1.
         22    1    1    2    0    0  0.13227758522E+02 -0.25591735904E+01 -0.71356507626E+01  0.15245998714E+02  0.00000000000E+00 0.  1.
<mgrwt>
<rscale>  0 0.57714935E+02</rscale>
<asrwt>0</asrwt>
<pdfrwt beam="1">  1        2 0.11602119E+00 0.93733683E+02</pdfrwt>
<pdfrwt beam="2">  1       -2 0.10787146E-02 0.93733683E+02</pdfrwt>
<totfact> 0.64980760E+04</totfact>
</mgrwt>
</event>
<event>
 6    1  0.1535970E-002  0.9350049E+02  0.7546771E-02  0.1407229E+00
          1   -1    0    0  501    0  0.00000000000E+00  0.00000000000E+00  0.44449264443E+03  0.44449264443E+03  0.00000000000E+00 0. -1.
         -1   -1    0    0    0  501 -0.00000000000E+00 -0.00000000000E+00 -0.65896324870E+01  0.65896324870E+01  0.00000000000E+00 0.  1.
         23    2    1    2    0    0 -0.35802148600E+01  0.13193065729E+02  0.40020486409E+03  0.41098208647E+03  0.92495768780E+02 0.  0.
         13    1    3    3    0    0  0.54358656169E+01 -0.39248989127E+02  0.19544214751E+03  0.19941831612E+03  0.00000000000E+00 0. -1.
        -13    1    3    3    0    0 -0.90160804768E+01  0.52442054857E+02  0.20476271658E+03  0.21156377035E+03  0.00000000000E+00 0.  1.
         22    1    1    2    0    0  0.35802148600E+01 -0.13193065729E+02  0.37698147858E+02  0.40100190445E+02  0.00000000000E+00 0.  1.
<mgrwt>
<rscale>  0 0.57816834E+02</rscale>
<asrwt>0</asrwt>
<pdfrwt beam="1">  1        1 0.68383460E-01 0.93500493E+02</pdfrwt>
<pdfrwt beam="2">  1       -1 0.10137900E-02 0.93500493E+02</pdfrwt>
<totfact> 0.84889418E+04</totfact>
</mgrwt>
</event>
<event>
 6    1  0.1535970E-002  0.9276712E+02  0.7546771E-02  0.1385975E+00
         -2   -1    0    0    0  501 -0.00000000000E+00  0.00000000000E+00  0.49985322587E+02  0.49985322587E+02  0.00000000000E+00 0.  1.
          2   -1    0    0  501    0  0.00000000000E+00 -0.00000000000E+00 -0.66589835869E+02  0.66589835869E+02  0.00000000000E+00 0. -1.
         23    2    1    2    0    0 -0.13327950440E+02 -0.14413290442E+02 -0.23622258736E+02  0.95727473800E+02  0.90666206097E+02 0.  0.
         13    1    3    3    0    0 -0.45620568101E+02 -0.31265617019E+02 -0.72060273170E+01  0.55773666466E+02  0.00000000000E+00 0.  1.
        -13    1    3    3    0    0  0.32292617661E+02  0.16852326577E+02 -0.16416231419E+02  0.39953807334E+02  0.00000000000E+00 0. -1.
         22    1    1    2    0    0  0.13327950440E+02  0.14413290442E+02  0.70177454538E+01  0.20847684656E+02  0.00000000000E+00 0.  1.
<mgrwt>
<rscale>  0 0.62918926E+02</rscale>
<asrwt>0</asrwt>
<pdfrwt beam="1">  1        2 0.10244590E-01 0.92767118E+02</pdfrwt>
<pdfrwt beam="2">  1       -2 0.76900497E-02 0.92767118E+02</pdfrwt>
<totfact> 0.53905664E+04</totfact>
</mgrwt>
</event>
<event>
 6    1  0.1535970E-002  0.9643318E+02  0.7546771E-02  0.1351914E+00
         -2   -1    0    0    0  501 -0.00000000000E+00  0.00000000000E+00  0.35685545084E+03  0.35685545084E+03  0.00000000000E+00 0.  1.
          2   -1    0    0  501    0  0.00000000000E+00 -0.00000000000E+00 -0.11420912606E+02  0.11420912606E+02  0.00000000000E+00 0. -1.
         23    2    1    2    0    0  0.24937497175E+02  0.17982486463E+02  0.24722319370E+03  0.26536515522E+03  0.91400817903E+02 0.  0.
         13    1    3    3    0    0  0.22046896064E+02 -0.32368204493E+02  0.15891968563E+03  0.16367416647E+03  0.00000000000E+00 0.  1.
        -13    1    3    3    0    0  0.28906011108E+01  0.50350690957E+02  0.88303508074E+02  0.10169098875E+03  0.00000000000E+00 0. -1.
         22    1    1    2    0    0 -0.24937497175E+02 -0.17982486463E+02  0.98211344529E+02  0.10291120823E+03  0.00000000000E+00 0.  1.
<mgrwt>
<rscale>  0 0.72462468E+02</rscale>
<asrwt>0</asrwt>
<pdfrwt beam="1">  1        2 0.17570637E-02 0.96433179E+02</pdfrwt>
<pdfrwt beam="2">  1       -2 0.54900830E-01 0.96433179E+02</pdfrwt>
<totfact> 0.18495922E+04</totfact>
</mgrwt>
</event>
<event>
 6    1  0.1535970E-002  0.9424484E+02  0.7546771E-02  0.1373225E+00
         -2   -1    0    0    0  501 -0.00000000000E+00  0.00000000000E+00  0.10838810240E+02  0.10838810240E+02  0.00000000000E+00 0.  1.
          2   -1    0    0  501    0  0.00000000000E+00 -0.00000000000E+00 -0.36639862900E+03  0.36639862900E+03  0.00000000000E+00 0. -1.
         23    2    1    2    0    0 -0.11556458797E+01 -0.23023917143E+02 -0.32818418674E+03  0.34144831370E+03  0.91381914116E+02 0.  0.
         13    1    3    3    0    0  0.21434828009E+02 -0.25073051380E+02 -0.37757657309E+02  0.50137315871E+02  0.00000000000E+00 0.  1.
        -13    1    3    3    0    0 -0.22590473889E+02  0.20491342365E+01 -0.29042652943E+03  0.29131099783E+03  0.00000000000E+00 0. -1.
         22    1    1    2    0    0  0.11556458797E+01  0.23023917143E+02 -0.27375632017E+02  0.35789125532E+02  0.00000000000E+00 0.  1.
<mgrwt>
<rscale>  0 0.66278794E+02</rscale>
<asrwt>0</asrwt>
<pdfrwt beam="1">  1        2 0.56369027E-01 0.94244843E+02</pdfrwt>
<pdfrwt beam="2">  1       -2 0.16675090E-02 0.94244843E+02</pdfrwt>
<totfact> 0.77431955E+04</totfact>
</mgrwt>
</event>
<event>
 6    1  0.1535970E-002  0.1238152E+03  0.7546771E-02  0.1261693E+00
         -2   -1    0    0    0  501 -0.00000000000E+00  0.00000000000E+00  0.10975925693E+02  0.10975925693E+02  0.00000000000E+00 0. -1.
          2   -1    0    0  501    0  0.00000000000E+00 -0.00000000000E+00 -0.92558916285E+03  0.92558916285E+03  0.00000000000E+00 0.  1.
         23    2    1    2    0    0  0.11113043036E+02  0.74630148460E+02 -0.49702176712E+03  0.51221170440E+03  0.98168397922E+02 0.  0.
         11    1    3    3    0    0  0.25488072674E+02 -0.17223031470E+02 -0.13180731530E+03  0.13534933701E+03  0.00000000000E+00 0.  1.
        -11    1    3    3    0    0 -0.14375029638E+02  0.91853179930E+02 -0.36521445182E+03  0.37686236739E+03  0.00000000000E+00 0. -1.
         22    1    1    2    0    0 -0.11113043036E+02 -0.74630148460E+02 -0.41759147004E+03  0.42435338414E+03  0.00000000000E+00 0.  1.
<mgrwt>
<rscale>  0 0.10939552E+03</rscale>
<asrwt>0</asrwt>
<pdfrwt beam="1">  1        2 0.14239830E+00 0.12381516E+03</pdfrwt>
<pdfrwt beam="2">  1       -2 0.16886043E-02 0.12381516E+03</pdfrwt>
<totfact> 0.27256411E+04</totfact>
</mgrwt>
</event>
<event>
 6    1  0.1535970E-002  0.1140697E+03  0.7546771E-02  0.1287097E+00
         -1   -1    0    0    0  501 -0.00000000000E+00  0.00000000000E+00  0.34783581624E+03  0.34783581624E+03  0.00000000000E+00 0.  1.
          1   -1    0    0  501    0  0.00000000000E+00 -0.00000000000E+00 -0.43854039694E+02  0.43854039694E+02  0.00000000000E+00 0. -1.
         23    2    1    2    0    0  0.62954781800E+01  0.58903663923E+02  0.39592799752E+02  0.12074557067E+03  0.97481425791E+02 0.  0.
         13    1    3    3    0    0 -0.14462807572E+02  0.50666843813E+02 -0.20576150397E+02  0.56565712494E+02  0.00000000000E+00 0. -1.
        -13    1    3    3    0    0  0.20758285752E+02  0.82368201101E+01  0.60168950149E+02  0.64179858172E+02  0.00000000000E+00 0.  1.
         22    1    1    2    0    0 -0.62954781800E+01 -0.58903663923E+02  0.26438897680E+03  0.27094428527E+03  0.00000000000E+00 0.  1.
<mgrwt>
<rscale>  0 0.96834469E+02</rscale>
<asrwt>0</asrwt>
<pdfrwt beam="1">  1        1 0.67467756E-02 0.11406973E+03</pdfrwt>
<pdfrwt beam="2">  1       -1 0.53513201E-01 0.11406973E+03</pdfrwt>
<totfact> 0.37712717E+03</totfact>
</mgrwt>
</event>
<event>
 6    1  0.1535970E-002  0.9473835E+02  0.7546771E-02  0.1366115E+00
         -2   -1    0    0    0  501 -0.00000000000E+00  0.00000000000E+00  0.18398267263E+03  0.18398267263E+03  0.00000000000E+00 0.  1.
          2   -1    0    0  501    0  0.00000000000E+00 -0.00000000000E+00 -0.19817570698E+02  0.19817570698E+02  0.00000000000E+00 0. -1.
         23    2    1    2    0    0 -0.24653521928E+02  0.66347662192E+01  0.12136260790E+03  0.15396180674E+03  0.91233431766E+02 0.  0.
         11    1    3    3    0    0  0.24789548626E+02 -0.23076994105E+02  0.26779272113E+02  0.43176368454E+02  0.00000000000E+00 0.  1.
        -11    1    3    3    0    0 -0.49443070553E+02  0.29711760325E+02  0.94583335788E+02  0.11078543829E+03  0.00000000000E+00 0. -1.
         22    1    1    2    0    0  0.24653521928E+02 -0.66347662192E+01  0.42802494029E+02  0.49838436586E+02  0.00000000000E+00 0.  1.
<mgrwt>
<rscale>  0 0.68259015E+02</rscale>
<asrwt>0</asrwt>
<pdfrwt beam="1">  1        2 0.30488572E-02 0.94738352E+02</pdfrwt>
<pdfrwt beam="2">  1       -2 0.28305025E-01 0.94738352E+02</pdfrwt>
<totfact> 0.30522592E+04</totfact>
</mgrwt>
</event>
<event>
 6    1  0.1535970E-002  0.9378258E+02  0.7546771E-02  0.1367767E+00
         -2   -1    0    0    0  501 -0.00000000000E+00  0.00000000000E+00  0.10759347558E+02  0.10759347558E+02  0.00000000000E+00 0.  1.
          2   -1    0    0  501    0  0.00000000000E+00 -0.00000000000E+00 -0.49340410448E+03  0.49340410448E+03  0.00000000000E+00 0. -1.
         23    2    1    2    0    0 -0.18404825881E+02 -0.17802716093E+02 -0.46156657948E+03  0.47099774867E+03  0.90219164473E+02 0.  0.
         11    1    3    3    0    0  0.19730526716E+02 -0.22577188870E+02 -0.55199408671E+02  0.62817178060E+02  0.00000000000E+00 0.  1.
        -11    1    3    3    0    0 -0.38135352597E+02  0.47744727768E+01 -0.40636717081E+03  0.40818057061E+03  0.00000000000E+00 0. -1.
         22    1    1    2    0    0  0.18404825881E+02  0.17802716093E+02 -0.21078177444E+02  0.33165703375E+02  0.00000000000E+00 0.  1.
<mgrwt>
<rscale>  0 0.67791875E+02</rscale>
<asrwt>0</asrwt>
<pdfrwt beam="1">  1        2 0.75908303E-01 0.93782578E+02</pdfrwt>
<pdfrwt beam="2">  1       -2 0.16552847E-02 0.93782578E+02</pdfrwt>
<totfact> 0.57018082E+04</totfact>
</mgrwt>
</event>
<event>
 6    1  0.1535970E-002  0.9409776E+02  0.7546771E-02  0.1397142E+00
         -3   -1    0    0    0  501 -0.00000000000E+00  0.00000000000E+00  0.47479602804E+01  0.47479602804E+01  0.00000000000E+00 0.  1.
          3   -1    0    0  501    0  0.00000000000E+00 -0.00000000000E+00 -0.85726765568E+03  0.85726765568E+03  0.00000000000E+00 0. -1.
         23    2    1    2    0    0  0.15474434515E+02  0.28033523215E+01 -0.82476237325E+03  0.83011285996E+03  0.92774301545E+02 0.  0.
         11    1    3    3    0    0 -0.13485373875E+02 -0.22738220492E+02 -0.78105568657E+02  0.82458242978E+02  0.00000000000E+00 0.  1.
        -11    1    3    3    0    0  0.28959808390E+02  0.25541572814E+02 -0.74665680459E+03  0.74765461698E+03  0.00000000000E+00 0. -1.
         22    1    1    2    0    0 -0.15474434515E+02 -0.28033523215E+01 -0.27757322152E+02  0.31902756007E+02  0.00000000000E+00 0.  1.
<mgrwt>
<rscale>  0 0.60164620E+02</rscale>
<asrwt>0</asrwt>
<pdfrwt beam="1">  1        3 0.13188725E+00 0.94097757E+02</pdfrwt>
<pdfrwt beam="2">  1       -3 0.73045589E-03 0.94097757E+02</pdfrwt>
<totfact> 0.43857973E+03</totfact>
</mgrwt>
</event>
<event>
 6    1  0.1535970E-002  0.9315911E+02  0.7546771E-02  0.1380519E+00
          2   -1    0    0  501    0  0.00000000000E+00  0.00000000000E+00  0.18879795375E+02  0.18879795375E+02  0.00000000000E+00 0. -1.
         -2   -1    0    0    0  501 -0.00000000000E+00 -0.00000000000E+00 -0.19832051822E+03  0.19832051822E+03  0.00000000000E+00 0.  1.
         23    2    1    2    0    0 -0.81186524025E+01 -0.19561389500E+02 -0.10770934422E+03  0.14240759232E+03  0.90719672852E+02 0.  0.
         13    1    3    3    0    0 -0.15492692642E+02  0.34889661047E+02 -0.42208015818E+02  0.56910707011E+02  0.00000000000E+00 0. -1.
        -13    1    3    3    0    0  0.73740402391E+01 -0.54451050548E+02 -0.65501328402E+02  0.85496885309E+02  0.00000000000E+00 0.  1.
         22    1    1    2    0    0  0.81186524025E+01  0.19561389500E+02 -0.71731378630E+02  0.74792721278E+02  0.00000000000E+00 0.  1.
<mgrwt>
<rscale>  0 0.64327492E+02</rscale>
<asrwt>0</asrwt>
<pdfrwt beam="1">  1        2 0.29045840E-02 0.93159109E+02</pdfrwt>
<pdfrwt beam="2">  1       -2 0.30510848E-01 0.93159109E+02</pdfrwt>
<totfact> 0.28426040E+04</totfact>
</mgrwt>
</event>
<event>
 6    1  0.1535970E-002  0.9226153E+02  0.7546771E-02  0.1417792E+00
         -1   -1    0    0    0  501 -0.00000000000E+00  0.00000000000E+00  0.34799457962E+01  0.34799457962E+01  0.00000000000E+00 0.  1.
          1   -1    0    0  501    0  0.00000000000E+00 -0.00000000000E+00 -0.13698919128E+04  0.13698919128E+04  0.00000000000E+00 0. -1.
         23    2    1    2    0    0 -0.11778091424E+02 -0.26528709477E+01 -0.13491826749E+04  0.13523335680E+04  0.91468179777E+02 0.  0.
         13    1    3    3    0    0 -0.27628138435E+02  0.37341898590E+02 -0.53402817940E+03  0.53604461364E+03  0.00000000000E+00 0. -1.
        -13    1    3    3    0    0  0.15850047011E+02 -0.39994769538E+02 -0.81515449546E+03  0.81628895439E+03  0.00000000000E+00 0.  1.
         22    1    1    2    0    0  0.11778091424E+02  0.26528709477E+01 -0.17229292093E+02  0.21038290517E+02  0.00000000000E+00 0.  1.
<mgrwt>
<rscale>  0 0.55490764E+02</rscale>
<asrwt>0</asrwt>
<pdfrwt beam="1">  1        1 0.21075241E+00 0.92261525E+02</pdfrwt>
<pdfrwt beam="2">  1       -1 0.53537677E-03 0.92261525E+02</pdfrwt>
<totfact> 0.37194546E+04</totfact>
</mgrwt>
</event>
<event>
 6    1  0.1535970E-002  0.8943068E+02  0.7546771E-02  0.1421358E+00
          2   -1    0    0  501    0  0.00000000000E+00  0.00000000000E+00  0.20053709495E+03  0.20053709495E+03  0.00000000000E+00 0.  1.
         -2   -1    0    0    0  501 -0.00000000000E+00 -0.00000000000E+00 -0.19776594595E+02  0.19776594595E+02  0.00000000000E+00 0. -1.
         23    2    1    2    0    0  0.66820511601E+01 -0.10621352380E+02  0.18625687851E+03  0.20661430610E+03  0.88545941495E+02 0.  0.
         11    1    3    3    0    0  0.63747994528E+01 -0.95449991337E+01  0.19623660701E+03  0.19657199955E+03  0.00000000000E+00 0.  1.
        -11    1    3    3    0    0  0.30725170733E+00 -0.10763532460E+01 -0.99797284948E+01  0.10042306545E+02  0.00000000000E+00 0. -1.
         22    1    1    2    0    0 -0.66820511601E+01  0.10621352380E+02 -0.54963781579E+01  0.13699383451E+02  0.00000000000E+00 0. -1.
<mgrwt>
<rscale>  0 0.54734631E+02</rscale>
<asrwt>0</asrwt>
<pdfrwt beam="1">  1        2 0.30851859E-01 0.89430681E+02</pdfrwt>
<pdfrwt beam="2">  1       -2 0.30425532E-02 0.89430681E+02</pdfrwt>
<totfact> 0.60863441E+04</totfact>
</mgrwt>
</event>
<event>
 6    1  0.1535970E-002  0.8844173E+02  0.7546771E-02  0.1418604E+00
         -2   -1    0    0    0  501 -0.00000000000E+00  0.00000000000E+00  0.35890709926E+02  0.35890709926E+02  0.00000000000E+00 0. -1.
          2   -1    0    0  501    0  0.00000000000E+00 -0.00000000000E+00 -0.75225704056E+02  0.75225704056E+02  0.00000000000E+00 0.  1.
         23    2    1    2    0    0  0.11927956262E+02 -0.63978922360E+01 -0.40992426501E+02  0.97479836416E+02  0.87399830158E+02 0.  0.
         13    1    3    3    0    0 -0.91865289227E+01 -0.34377888495E+02 -0.49923307943E+02  0.61307162771E+02  0.00000000000E+00 0.  1.
        -13    1    3    3    0    0  0.21114485185E+02  0.27979996259E+02  0.89308814425E+01  0.36172673645E+02  0.00000000000E+00 0. -1.
         22    1    1    2    0    0 -0.11927956262E+02  0.63978922360E+01  0.16574323706E+01  0.13636577566E+02  0.00000000000E+00 0.  1.
<mgrwt>
<rscale>  0 0.55317344E+02</rscale>
<asrwt>0</asrwt>
<pdfrwt beam="1">  1        2 0.11573185E-01 0.88441729E+02</pdfrwt>
<pdfrwt beam="2">  1       -2 0.55216477E-02 0.88441729E+02</pdfrwt>
<totfact> 0.76198826E+04</totfact>
</mgrwt>
</event>
<event>
 6    1  0.1535970E-002  0.9589910E+02  0.7546771E-02  0.1355143E+00
          2   -1    0    0  501    0  0.00000000000E+00  0.00000000000E+00  0.24758333619E+02  0.24758333619E+02  0.00000000000E+00 0. -1.
         -2   -1    0    0    0  501 -0.00000000000E+00 -0.00000000000E+00 -0.17420086936E+03  0.17420086936E+03  0.00000000000E+00 0.  1.
         23    2    1    2    0    0 -0.27545514527E+02  0.10820094428E+02 -0.13610815826E+03  0.16649945195E+03  0.91218457241E+02 0.  0.
         13    1    3    3    0    0 -0.30926026824E+02 -0.36618769177E+02 -0.75999140436E+02  0.89851114284E+02  0.00000000000E+00 0. -1.
        -13    1    3    3    0    0  0.33805122962E+01  0.47438863604E+02 -0.60109017825E+02  0.76648337668E+02  0.00000000000E+00 0.  1.
         22    1    1    2    0    0  0.27545514527E+02 -0.10820094428E+02 -0.13334377483E+02  0.32459751029E+02  0.00000000000E+00 0. -1.
<mgrwt>
<rscale>  0 0.71476512E+02</rscale>
<asrwt>0</asrwt>
<pdfrwt beam="1">  1        2 0.38089745E-02 0.95899097E+02</pdfrwt>
<pdfrwt beam="2">  1       -2 0.26800133E-01 0.95899097E+02</pdfrwt>
<totfact> 0.25077509E+04</totfact>
</mgrwt>
</event>
<event>
 6    1  0.1535970E-002  0.9435812E+02  0.7546771E-02  0.1356793E+00
          2   -1    0    0  501    0  0.00000000000E+00  0.00000000000E+00  0.29086499216E+02  0.29086499216E+02  0.00000000000E+00 0. -1.
         -2   -1    0    0    0  501 -0.00000000000E+00 -0.00000000000E+00 -0.13436610925E+03  0.13436610925E+03  0.00000000000E+00 0.  1.
         23    2    1    2    0    0 -0.24678921957E+02  0.17430038120E+02 -0.85559444258E+02  0.12737296939E+03  0.89390152761E+02 0.  0.
         11    1    3    3    0    0  0.64376903947E+01 -0.32685105741E+02 -0.18670497299E+02  0.38188315809E+02  0.00000000000E+00 0. -1.
        -11    1    3    3    0    0 -0.31116612352E+02  0.50115143861E+02 -0.66888946959E+02  0.89184653577E+02  0.00000000000E+00 0.  1.
         22    1    1    2    0    0  0.24678921957E+02 -0.17430038120E+02 -0.19720165777E+02  0.36079639080E+02  0.00000000000E+00 0. -1.
<mgrwt>
<rscale>  0 0.70979790E+02</rscale>
<asrwt>0</asrwt>
<pdfrwt beam="1">  1        2 0.44748460E-02 0.94358120E+02</pdfrwt>
<pdfrwt beam="2">  1       -2 0.20671709E-01 0.94358120E+02</pdfrwt>
<totfact> 0.31659991E+04</totfact>
</mgrwt>
</event>
<event>
 6    1  0.1535970E-002  0.9030770E+02  0.7546771E-02  0.1375186E+00
         -2   -1    0    0    0  501 -0.00000000000E+00  0.00000000000E+00  0.25298083335E+01  0.25298083335E+01  0.00000000000E+00 0. -1.
          2   -1    0    0  501    0  0.00000000000E+00 -0.00000000000E+00 -0.18923450810E+04  0.18923450810E+04  0.00000000000E+00 0.  1.
         23    2    1    2    0    0 -0.17316800474E+02  0.18540087273E+02 -0.17747474706E+04  0.17770436308E+04  0.86671073340E+02 0.  0.
         11    1    3    3    0    0 -0.36655518588E+02  0.14750457951E+02 -0.36049953923E+03  0.36265840793E+03  0.00000000000E+00 0. -1.
        -11    1    3    3    0    0  0.19338718115E+02  0.37896293222E+01 -0.14142479314E+04  0.14143852229E+04  0.00000000000E+00 0.  1.
         22    1    1    2    0    0  0.17316800474E+02 -0.18540087273E+02 -0.11506780202E+03  0.11783125849E+03  0.00000000000E+00 0.  1.
<mgrwt>
<rscale>  0 0.65746274E+02</rscale>
<asrwt>0</asrwt>
<pdfrwt beam="1">  1        2 0.29112954E+00 0.90307704E+02</pdfrwt>
<pdfrwt beam="2">  1       -2 0.38920191E-03 0.90307704E+02</pdfrwt>
<totfact> 0.64676387E+04</totfact>
</mgrwt>
</event>
<event>
 6    1  0.1535970E-002  0.9240470E+02  0.7546771E-02  0.1427639E+00
         -2   -1    0    0    0  501 -0.00000000000E+00  0.00000000000E+00  0.14749989677E+02  0.14749989677E+02  0.00000000000E+00 0.  1.
          2   -1    0    0  501    0  0.00000000000E+00 -0.00000000000E+00 -0.18015874756E+03  0.18015874756E+03  0.00000000000E+00 0. -1.
         23    2    1    2    0    0  0.44512180140E+01  0.93265867552E+01 -0.15323347183E+03  0.17893888587E+03  0.91824993459E+02 0.  0.
         13    1    3    3    0    0  0.36212467747E+02  0.35241118974E+02 -0.72178044193E+02  0.88107600980E+02  0.00000000000E+00 0. -1.
        -13    1    3    3    0    0 -0.31761249733E+02 -0.25914532219E+02 -0.81055427638E+02  0.90831284887E+02  0.00000000000E+00 0.  1.
         22    1    1    2    0    0 -0.44512180140E+01 -0.93265867552E+01 -0.12175286053E+02  0.15969851370E+02  0.00000000000E+00 0. -1.
<mgrwt>
<rscale>  0 0.53436894E+02</rscale>
<asrwt>0</asrwt>
<pdfrwt beam="1">  1        2 0.27716732E-01 0.92404697E+02</pdfrwt>
<pdfrwt beam="2">  1       -2 0.22692291E-02 0.92404697E+02</pdfrwt>
<totfact> 0.10488336E+05</totfact>
</mgrwt>
</event>
<event>
 6    1  0.1535970E-002  0.9187537E+02  0.7546771E-02  0.1426845E+00
         -1   -1    0    0    0  501 -0.00000000000E+00  0.00000000000E+00  0.47418787013E+01  0.47418787013E+01  0.00000000000E+00 0.  1.
          1   -1    0    0  501    0  0.00000000000E+00 -0.00000000000E+00 -0.77416577356E+03  0.77416577356E+03  0.00000000000E+00 0. -1.
         23    2    1    2    0    0 -0.28899031765E+01  0.10241897847E+02 -0.75697493194E+03  0.76253008560E+03  0.91256977006E+02 0.  0.
         11    1    3    3    0    0 -0.18810829562E+02 -0.23014460078E+02 -0.95281815260E+02  0.99810505463E+02  0.00000000000E+00 0.  1.
        -11    1    3    3    0    0  0.15920926386E+02  0.33256357925E+02 -0.66169311668E+03  0.66271958014E+03  0.00000000000E+00 0. -1.
         22    1    1    2    0    0  0.28899031765E+01 -0.10241897847E+02 -0.12448962916E+02  0.16377566656E+02  0.00000000000E+00 0.  1.
<mgrwt>
<rscale>  0 0.53598564E+02</rscale>
<asrwt>0</asrwt>
<pdfrwt beam="1">  1        1 0.11910234E+00 0.91875371E+02</pdfrwt>
<pdfrwt beam="2">  1       -1 0.72952034E-03 0.91875371E+02</pdfrwt>
<totfact> 0.63919809E+04</totfact>
</mgrwt>
</event>
<event>
 6    1  0.1535970E-002  0.9196238E+02  0.7546771E-02  0.1407305E+00
          2   -1    0    0  501    0  0.00000000000E+00  0.00000000000E+00  0.10504366673E+04  0.10504366673E+04  0.00000000000E+00 0. -1.
         -2   -1    0    0    0  501 -0.00000000000E+00 -0.00000000000E+00 -0.27903607279E+01  0.27903607279E+01  0.00000000000E+00 0.  1.
         23    2    1    2    0    0  0.92450178950E+01 -0.10975694476E+02  0.96213219542E+03  0.96651717028E+03  0.90835801039E+02 0.  0.
         13    1    3    3    0    0  0.24617408205E+02  0.23732547114E+02  0.76497469117E+03  0.76573855115E+03  0.00000000000E+00 0. -1.
        -13    1    3    3    0    0 -0.15372390310E+02 -0.34708241591E+02  0.19715750425E+03  0.20077861913E+03  0.00000000000E+00 0.  1.
         22    1    1    2    0    0 -0.92450178950E+01  0.10975694476E+02  0.85514111147E+02  0.86709857747E+02  0.00000000000E+00 0.  1.
<mgrwt>
<rscale>  0 0.57799521E+02</rscale>
<asrwt>0</asrwt>
<pdfrwt beam="1">  1        2 0.16160533E+00 0.91962378E+02</pdfrwt>
<pdfrwt beam="2">  1       -2 0.42928710E-03 0.91962378E+02</pdfrwt>
<totfact> 0.15510040E+05</totfact>
</mgrwt>
</event>
<event>
 6    1  0.1535970E-002  0.9520771E+02  0.7546771E-02  0.1381757E+00
          2   -1    0    0  501    0  0.00000000000E+00  0.00000000000E+00  0.17023538342E+04  0.17023538342E+04  0.00000000000E+00 0.  1.
         -2   -1    0    0    0  501 -0.00000000000E+00 -0.00000000000E+00 -0.22871524239E+01  0.22871524239E+01  0.00000000000E+00 0. -1.
         23    2    1    2    0    0 -0.11033213847E+02  0.16012082764E+02  0.15916004100E+04  0.15944454754E+04  0.93200804709E+02 0.  0.
         11    1    3    3    0    0 -0.26001083391E+02  0.18191300018E+02  0.15474614245E+04  0.15477867553E+04  0.00000000000E+00 0.  1.
        -11    1    3    3    0    0  0.14967869544E+02 -0.21792172532E+01  0.44138985554E+02  0.46658720002E+02  0.00000000000E+00 0. -1.
         22    1    1    2    0    0  0.11033213847E+02 -0.16012082764E+02  0.10846627174E+03  0.11019551128E+03  0.00000000000E+00 0. -1.
<mgrwt>
<rscale>  0 0.64004072E+02</rscale>
<asrwt>0</asrwt>
<pdfrwt beam="1">  1        2 0.26189958E+00 0.95207713E+02</pdfrwt>
<pdfrwt beam="2">  1       -2 0.35187097E-03 0.95207713E+02</pdfrwt>
<totfact> 0.93245419E+04</totfact>
</mgrwt>
</event>
<event>
 6    1  0.1535970E-002  0.9846947E+02  0.7546771E-02  0.1363228E+00
          1   -1    0    0  501    0  0.00000000000E+00  0.00000000000E+00  0.24188162517E+02  0.24188162517E+02  0.00000000000E+00 0. -1.
         -1   -1    0    0    0  501 -0.00000000000E+00 -0.00000000000E+00 -0.23684785895E+03  0.23684785895E+03  0.00000000000E+00 0.  1.
         23    2    1    2    0    0  0.14061201057E+02 -0.19275831317E+02 -0.81784356428E+02  0.12800358306E+03  0.95535131081E+02 0.  0.
         11    1    3    3    0    0  0.29044181740E+02 -0.47799220777E+02 -0.77390477993E+02  0.95486208867E+02  0.00000000000E+00 0.  1.
        -11    1    3    3    0    0 -0.14982980683E+02  0.28523389460E+02 -0.43938784357E+01  0.32517374189E+02  0.00000000000E+00 0. -1.
         22    1    1    2    0    0 -0.14061201057E+02  0.19275831317E+02 -0.13087534000E+03  0.13303243841E+03  0.00000000000E+00 0. -1.
<mgrwt>
<rscale>  0 0.69086225E+02</rscale>
<asrwt>0</asrwt>
<pdfrwt beam="1">  1        1 0.37212558E-02 0.98469469E+02</pdfrwt>
<pdfrwt beam="2">  1       -1 0.36438131E-01 0.98469469E+02</pdfrwt>
<totfact> 0.16493396E+04</totfact>
</mgrwt>
</event>
<event>
 6    1  0.1535970E-002  0.9737980E+02  0.7546771E-02  0.1368413E+00
         -1   -1    0    0    0  501 -0.00000000000E+00  0.00000000000E+00  0.59606540122E+02  0.59606540122E+02  0.00000000000E+00 0.  1.
          1   -1    0    0  501    0  0.00000000000E+00 -0.00000000000E+00 -0.62284785236E+02  0.62284785236E+02  0.00000000000E+00 0. -1.
         23    2    1    2    0    0  0.43858237706E+01  0.22198745300E+02 -0.10512636941E+02  0.97945606777E+02  0.94714342148E+02 0.  0.
         11    1    3    3    0    0  0.19451813335E+02  0.49192224615E+02  0.18013767740E+02  0.55881516021E+02  0.00000000000E+00 0.  1.
        -11    1    3    3    0    0 -0.15065989565E+02 -0.26993479315E+02 -0.28526404681E+02  0.42064090756E+02  0.00000000000E+00 0. -1.
         22    1    1    2    0    0 -0.43858237706E+01 -0.22198745300E+02  0.78343918274E+01  0.23945718581E+02  0.00000000000E+00 0. -1.
<mgrwt>
<rscale>  0 0.67610245E+02</rscale>
<asrwt>0</asrwt>
<pdfrwt beam="1">  1        1 0.95822747E-02 0.97379805E+02</pdfrwt>
<pdfrwt beam="2">  1       -1 0.91702369E-02 0.97379805E+02</pdfrwt>
<totfact> 0.41365962E+04</totfact>
</mgrwt>
</event>
<event>
 6    1  0.1535970E-002  0.9584829E+02  0.7546771E-02  0.1354133E+00
          2   -1    0    0  501    0  0.00000000000E+00  0.00000000000E+00  0.12351378468E+04  0.12351378468E+04  0.00000000000E+00 0. -1.
         -2   -1    0    0    0  501 -0.00000000000E+00 -0.00000000000E+00 -0.72990545225E+01  0.72990545225E+01  0.00000000000E+00 0.  1.
         23    2    1    2    0    0  0.29711011094E+02 -0.51441554136E+01  0.11909129412E+04  0.11947637957E+04  0.90981798450E+02 0.  0.
         11    1    3    3    0    0  0.26081821005E+02  0.20127816204E+02  0.10954619438E+04  0.10959572349E+04  0.00000000000E+00 0. -1.
        -11    1    3    3    0    0  0.36291900881E+01 -0.25271971618E+02  0.95450997394E+02  0.98806560884E+02  0.00000000000E+00 0.  1.
         22    1    1    2    0    0 -0.29711011094E+02  0.51441554136E+01  0.36925851072E+02  0.47673105547E+02  0.00000000000E+00 0.  1.
<mgrwt>
<rscale>  0 0.71782914E+02</rscale>
<asrwt>0</asrwt>
<pdfrwt beam="1">  1        2 0.19002104E+00 0.95848287E+02</pdfrwt>
<pdfrwt beam="2">  1       -2 0.11229324E-02 0.95848287E+02</pdfrwt>
<totfact> 0.31754056E+04</totfact>
</mgrwt>
</event>
<event>
 6    1  0.1535970E-002  0.9364650E+02  0.7546771E-02  0.1375255E+00
          2   -1    0    0  501    0  0.00000000000E+00  0.00000000000E+00  0.45375745519E+03  0.45375745519E+03  0.00000000000E+00 0. -1.
         -2   -1    0    0    0  501 -0.00000000000E+00 -0.00000000000E+00 -0.90849204729E+01  0.90849204729E+01  0.00000000000E+00 0.  1.
         23    2    1    2    0    0  0.38267708034E+01  0.22401081724E+02  0.41517763567E+03  0.42560796004E+03  0.90847200558E+02 0.  0.
         13    1    3    3    0    0  0.35211347098E+02  0.29603700935E+02  0.34892767512E+03  0.35194707065E+03  0.00000000000E+00 0. -1.
        -13    1    3    3    0    0 -0.31384576295E+02 -0.72026192105E+01  0.66249960555E+02  0.73660889394E+02  0.00000000000E+00 0.  1.
         22    1    1    2    0    0 -0.38267708034E+01 -0.22401081724E+02  0.29494899047E+02  0.37234415626E+02  0.00000000000E+00 0.  1.
<mgrwt>
<rscale>  0 0.65727553E+02</rscale>
<asrwt>0</asrwt>
<pdfrwt beam="1">  1        2 0.69808821E-01 0.93646497E+02</pdfrwt>
<pdfrwt beam="2">  1       -2 0.13976804E-02 0.93646497E+02</pdfrwt>
<totfact> 0.79415864E+04</totfact>
</mgrwt>
</event>
<event>
 6    1  0.1535970E-002  0.1279665E+03  0.7546771E-02  0.1247965E+00
          2   -1    0    0  501    0  0.00000000000E+00  0.00000000000E+00  0.28561397254E+02  0.28561397254E+02  0.00000000000E+00 0. -1.
         -2   -1    0    0    0  501 -0.00000000000E+00 -0.00000000000E+00 -0.41857604493E+03  0.41857604493E+03  0.00000000000E+00 0.  1.
         23    2    1    2    0    0  0.84127485662E+02  0.31177962275E+02 -0.24991740660E+03  0.28077417661E+03  0.91246528447E+02 0.  0.
         13    1    3    3    0    0  0.72440504282E+02  0.14062251025E+02 -0.24935133230E+03  0.26004126688E+03  0.00000000000E+00 0.  1.
        -13    1    3    3    0    0  0.11686981381E+02  0.17115711250E+02 -0.56607429781E+00  0.20732909721E+02  0.00000000000E+00 0. -1.
         22    1    1    2    0    0 -0.84127485662E+02 -0.31177962275E+02 -0.14009724108E+03  0.16636326558E+03  0.00000000000E+00 0. -1.
<mgrwt>
<rscale>  0 0.11709635E+03</rscale>
<asrwt>0</asrwt>
<pdfrwt beam="1">  1        2 0.43940610E-02 0.12796651E+03</pdfrwt>
<pdfrwt beam="2">  1       -2 0.64396316E-01 0.12796651E+03</pdfrwt>
<totfact> 0.40305441E+03</totfact>
</mgrwt>
</event>
<event>
 6    1  0.1535970E-002  0.9493419E+02  0.7546771E-02  0.1407008E+00
          2   -1    0    0  501    0  0.00000000000E+00  0.00000000000E+00  0.15688288900E+04  0.15688288900E+04  0.00000000000E+00 0. -1.
         -2   -1    0    0    0  501 -0.00000000000E+00 -0.00000000000E+00 -0.27050347064E+01  0.27050347064E+01  0.00000000000E+00 0.  1.
         23    2    1    2    0    0  0.19521887259E+01 -0.12959193358E+02  0.15326302811E+04  0.15355676732E+04  0.94025256130E+02 0.  0.
         11    1    3    3    0    0 -0.90856799647E+01 -0.10538020878E+02  0.15118462268E+04  0.15119102529E+04  0.00000000000E+00 0. -1.
        -11    1    3    3    0    0  0.11037868691E+02 -0.24211724802E+01  0.20784054286E+02  0.23657420273E+02  0.00000000000E+00 0.  1.
         22    1    1    2    0    0 -0.19521887259E+01  0.12959193358E+02  0.33493574258E+02  0.35966251540E+02  0.00000000000E+00 0.  1.
<mgrwt>
<rscale>  0 0.57866822E+02</rscale>
<asrwt>0</asrwt>
<pdfrwt beam="1">  1        2 0.24135756E+00 0.94934190E+02</pdfrwt>
<pdfrwt beam="2">  1       -2 0.41616044E-03 0.94934190E+02</pdfrwt>
<totfact> 0.86124479E+04</totfact>
</mgrwt>
</event>
<event>
 6    1  0.1535970E-002  0.8615583E+02  0.7546771E-02  0.1432140E+00
          2   -1    0    0  501    0  0.00000000000E+00  0.00000000000E+00  0.80345287238E+03  0.80345287238E+03  0.00000000000E+00 0.  1.
         -2   -1    0    0    0  501 -0.00000000000E+00 -0.00000000000E+00 -0.33181301776E+01  0.33181301776E+01  0.00000000000E+00 0. -1.
         23    2    1    2    0    0 -0.10425883401E+02 -0.57552015777E+01  0.76107869164E+03  0.76593968522E+03  0.85328806028E+02 0.  0.
         13    1    3    3    0    0 -0.28133884302E+02 -0.25937905348E+02  0.17008752595E+03  0.17433891380E+03  0.00000000000E+00 0. -1.
        -13    1    3    3    0    0  0.17708000901E+02  0.20182703770E+02  0.59099116569E+03  0.59160077142E+03  0.00000000000E+00 0.  1.
         22    1    1    2    0    0  0.10425883401E+02  0.57552015777E+01  0.39056050561E+02  0.40831317335E+02  0.00000000000E+00 0. -1.
<mgrwt>
<rscale>  0 0.52532880E+02</rscale>
<asrwt>0</asrwt>
<pdfrwt beam="1">  1        2 0.12360798E+00 0.86155827E+02</pdfrwt>
<pdfrwt beam="2">  1       -2 0.51048221E-03 0.86155827E+02</pdfrwt>
<totfact> 0.17067525E+05</totfact>
</mgrwt>
</event>
<event>
 6    1  0.1535970E-002  0.9120476E+02  0.7546771E-02  0.1405948E+00
         -1   -1    0    0    0  501 -0.00000000000E+00  0.00000000000E+00  0.27509727848E+02  0.27509727848E+02  0.00000000000E+00 0.  1.
          1   -1    0    0  501    0  0.00000000000E+00 -0.00000000000E+00 -0.10773279798E+03  0.10773279798E+03  0.00000000000E+00 0. -1.
         23    2    1    2    0    0  0.88334355380E+01  0.12157308621E+02 -0.78082401621E+02  0.12006319126E+03  0.89958205382E+02 0.  0.
         13    1    3    3    0    0 -0.32805006666E+02 -0.26565176616E+01 -0.31425305877E+01  0.33062078685E+02  0.00000000000E+00 0.  1.
        -13    1    3    3    0    0  0.41638442204E+02  0.14813826282E+02 -0.74939871033E+02  0.87001112572E+02  0.00000000000E+00 0. -1.
         22    1    1    2    0    0 -0.88334355380E+01 -0.12157308621E+02 -0.21406685094E+01  0.15179334569E+02  0.00000000000E+00 0.  1.
<mgrwt>
<rscale>  0 0.58107979E+02</rscale>
<asrwt>0</asrwt>
<pdfrwt beam="1">  1        1 0.16574277E-01 0.91204761E+02</pdfrwt>
<pdfrwt beam="2">  1       -1 0.42322658E-02 0.91204761E+02</pdfrwt>
<totfact> 0.63285069E+04</totfact>
</mgrwt>
</event>
<event>
 6    1  0.1535970E-002  0.9223275E+02  0.7546771E-02  0.1414729E+00
          2   -1    0    0  501    0  0.00000000000E+00  0.00000000000E+00  0.33917503010E+03  0.33917503010E+03  0.00000000000E+00 0. -1.
         -2   -1    0    0    0  501 -0.00000000000E+00 -0.00000000000E+00 -0.81177728806E+01  0.81177728806E+01  0.00000000000E+00 0.  1.
         23    2    1    2    0    0 -0.11577973357E+02  0.51477527055E+01  0.29414217800E+03  0.30826368694E+03  0.91358256242E+02 0.  0.
         13    1    3    3    0    0 -0.53514736763E+01 -0.36328602704E+01  0.29704461558E+03  0.29711502754E+03  0.00000000000E+00 0. -1.
        -13    1    3    3    0    0 -0.62264996807E+01  0.87806129759E+01 -0.29024375829E+01  0.11148659401E+02  0.00000000000E+00 0.  1.
         22    1    1    2    0    0  0.11577973357E+02 -0.51477527055E+01  0.36915079220E+02  0.39029116039E+02  0.00000000000E+00 0. -1.
<mgrwt>
<rscale>  0 0.56151938E+02</rscale>
<asrwt>0</asrwt>
<pdfrwt beam="1">  1        2 0.52180763E-01 0.92232748E+02</pdfrwt>
<pdfrwt beam="2">  1       -2 0.12488884E-02 0.92232748E+02</pdfrwt>
<totfact> 0.12641392E+05</totfact>
</mgrwt>
</event>
<event>
 6    1  0.1535970E-002  0.7448204E+02  0.7546771E-02  0.1372987E+00
         -2   -1    0    0    0  501 -0.00000000000E+00  0.00000000000E+00  0.19907493410E+02  0.19907493410E+02  0.00000000000E+00 0.  1.
          2   -1    0    0  501    0  0.00000000000E+00 -0.00000000000E+00 -0.18550932631E+03  0.18550932631E+03  0.00000000000E+00 0. -1.
         23    2    1    2    0    0 -0.46620211250E+02  0.49903513133E+01 -0.96255198754E+02  0.12170718246E+03  0.57872508770E+02 0.  0.
         11    1    3    3    0    0 -0.49133420793E+02  0.16732638585E+02 -0.43862024997E+02  0.67955510959E+02  0.00000000000E+00 0.  1.
        -11    1    3    3    0    0  0.25132095428E+01 -0.11742287272E+02 -0.52393173756E+02  0.53751671498E+02  0.00000000000E+00 0. -1.
         22    1    1    2    0    0  0.46620211250E+02 -0.49903513133E+01 -0.69346634149E+02  0.83709637265E+02  0.00000000000E+00 0. -1.
<mgrwt>
<rscale>  0 0.66343861E+02</rscale>
<asrwt>0</asrwt>
<pdfrwt beam="1">  1        2 0.28539897E-01 0.74482045E+02</pdfrwt>
<pdfrwt beam="2">  1       -2 0.30626913E-02 0.74482045E+02</pdfrwt>
<totfact> 0.63794350E+04</totfact>
</mgrwt>
</event>
<event>
 6    1  0.1535970E-002  0.9314768E+02  0.7546771E-02  0.1394054E+00
         -1   -1    0    0    0  501 -0.00000000000E+00  0.00000000000E+00  0.94017442837E+01  0.94017442837E+01  0.00000000000E+00 0.  1.
          1   -1    0    0  501    0  0.00000000000E+00 -0.00000000000E+00 -0.34473332538E+03  0.34473332538E+03  0.00000000000E+00 0. -1.
         23    2    1    2    0    0 -0.95556144147E+01 -0.14097057188E+02 -0.30934857503E+03  0.32306815169E+03  0.91577578994E+02 0.  0.
         11    1    3    3    0    0  0.95633750591E+01  0.36521819104E+02 -0.10156294531E+03  0.10835281849E+03  0.00000000000E+00 0.  1.
        -11    1    3    3    0    0 -0.19118989474E+02 -0.50618876292E+02 -0.20778562972E+03  0.21471533320E+03  0.00000000000E+00 0. -1.
         22    1    1    2    0    0  0.95556144147E+01  0.14097057188E+02 -0.25983006066E+02  0.31066917974E+02  0.00000000000E+00 0.  1.
<mgrwt>
<rscale>  0 0.60909587E+02</rscale>
<asrwt>0</asrwt>
<pdfrwt beam="1">  1        1 0.53035899E-01 0.93147677E+02</pdfrwt>
<pdfrwt beam="2">  1       -1 0.14464221E-02 0.93147677E+02</pdfrwt>
<totfact> 0.70359183E+04</totfact>
</mgrwt>
</event>
<event>
 6    1  0.1535970E-002  0.9343161E+02  0.7546771E-02  0.1418746E+00
          2   -1    0    0  501    0  0.00000000000E+00  0.00000000000E+00  0.82814240343E+03  0.82814240343E+03  0.00000000000E+00 0. -1.
         -2   -1    0    0    0  501 -0.00000000000E+00 -0.00000000000E+00 -0.37656217957E+01  0.37656217957E+01  0.00000000000E+00 0.  1.
         23    2    1    2    0    0 -0.11096861121E+02 -0.28436792453E+01  0.79337439862E+03  0.79885693461E+03  0.92726688440E+02 0.  0.
         13    1    3    3    0    0  0.32577809248E+02  0.14441483161E+02  0.53938386637E+03  0.54055973342E+03  0.00000000000E+00 0. -1.
        -13    1    3    3    0    0 -0.43674670369E+02 -0.17285162406E+02  0.25399053225E+03  0.25829720119E+03  0.00000000000E+00 0.  1.
         22    1    1    2    0    0  0.11096861121E+02  0.28436792453E+01  0.31002383016E+02  0.33051090618E+02  0.00000000000E+00 0. -1.
<mgrwt>
<rscale>  0 0.55287023E+02</rscale>
<asrwt>0</asrwt>
<pdfrwt beam="1">  1        2 0.12740638E+00 0.93431609E+02</pdfrwt>
<pdfrwt beam="2">  1       -2 0.57932709E-03 0.93431609E+02</pdfrwt>
<totfact> 0.13936423E+05</totfact>
</mgrwt>
</event>
<event>
 6    1  0.1535970E-002  0.9176774E+02  0.7546771E-02  0.1368405E+00
          2   -1    0    0  501    0  0.00000000000E+00  0.00000000000E+00  0.72419060297E+03  0.72419060297E+03  0.00000000000E+00 0. -1.
         -2   -1    0    0    0  501 -0.00000000000E+00 -0.00000000000E+00 -0.52474580172E+01  0.52474580172E+01  0.00000000000E+00 0.  1.
         23    2    1    2    0    0 -0.27018271852E+02  0.11397467952E+01  0.62425527405E+03  0.63096431355E+03  0.87692826207E+02 0.  0.
         11    1    3    3    0    0 -0.50349753937E+02 -0.24899666087E+01  0.20731807929E+03  0.21335904868E+03  0.00000000000E+00 0.  1.
        -11    1    3    3    0    0  0.23331482085E+02  0.36297134039E+01  0.41693719476E+03  0.41760526487E+03  0.00000000000E+00 0. -1.
         22    1    1    2    0    0  0.27018271852E+02 -0.11397467952E+01  0.94687870909E+02  0.98473747435E+02  0.00000000000E+00 0. -1.
<mgrwt>
<rscale>  0 0.67612724E+02</rscale>
<asrwt>0</asrwt>
<pdfrwt beam="1">  1        2 0.11141386E+00 0.91767738E+02</pdfrwt>
<pdfrwt beam="2">  1       -2 0.80730181E-03 0.91767738E+02</pdfrwt>
<totfact> 0.10246283E+05</totfact>
</mgrwt>
</event>
<event>
 6    1  0.1535970E-002  0.9210155E+02  0.7546771E-02  0.1426966E+00
          2   -1    0    0  501    0  0.00000000000E+00  0.00000000000E+00  0.69093654832E+02  0.69093654832E+02  0.00000000000E+00 0. -1.
         -2   -1    0    0    0  501 -0.00000000000E+00 -0.00000000000E+00 -0.60330805970E+02  0.60330805970E+02  0.00000000000E+00 0.  1.
         23    2    1    2    0    0 -0.98650467687E+01  0.37227598747E+01  0.37020747155E+02  0.99263444493E+02  0.91495997748E+02 0.  0.
         13    1    3    3    0    0  0.83012534369E+01  0.16422161387E+02  0.62698192769E+02  0.65342647404E+02  0.00000000000E+00 0. -1.
        -13    1    3    3    0    0 -0.18166300206E+02 -0.12699401513E+02 -0.25677445614E+02  0.33920797089E+02  0.00000000000E+00 0.  1.
         22    1    1    2    0    0  0.98650467687E+01 -0.37227598747E+01 -0.28257898293E+02  0.30161016309E+02  0.00000000000E+00 0.  1.
<mgrwt>
<rscale>  0 0.53573819E+02</rscale>
<asrwt>0</asrwt>
<pdfrwt beam="1">  1        2 0.10629793E-01 0.92101551E+02</pdfrwt>
<pdfrwt beam="2">  1       -2 0.92816624E-02 0.92101551E+02</pdfrwt>
<totfact> 0.38587367E+04</totfact>
</mgrwt>
</event>
<event>
 6    1  0.1535970E-002  0.8531152E+02  0.7546771E-02  0.1402951E+00
         -2   -1    0    0    0  501 -0.00000000000E+00  0.00000000000E+00  0.21030455496E+03  0.21030455496E+03  0.00000000000E+00 0.  1.
          2   -1    0    0  501    0  0.00000000000E+00 -0.00000000000E+00 -0.13386019948E+02  0.13386019948E+02  0.00000000000E+00 0. -1.
         23    2    1    2    0    0 -0.17900572239E+02 -0.70760174761E+01  0.14392357542E+03  0.16730825275E+03  0.83111704149E+02 0.  0.
         11    1    3    3    0    0 -0.45797960762E+01  0.35317762648E+02  0.93744088666E+02  0.10028097053E+03  0.00000000000E+00 0.  1.
        -11    1    3    3    0    0 -0.13320776163E+02 -0.42393780124E+02  0.50179486753E+02  0.67027282218E+02  0.00000000000E+00 0. -1.
         22    1    1    2    0    0  0.17900572239E+02  0.70760174761E+01  0.52994959594E+02  0.56382322161E+02  0.00000000000E+00 0. -1.
<mgrwt>
<rscale>  0 0.58796892E+02</rscale>
<asrwt>0</asrwt>
<pdfrwt beam="1">  1        2 0.20593878E-02 0.85311523E+02</pdfrwt>
<pdfrwt beam="2">  1       -2 0.32354545E-01 0.85311523E+02</pdfrwt>
<totfact> 0.40025665E+04</totfact>
</mgrwt>
</event>
<event>
 6    1  0.1535970E-002  0.1030331E+03  0.7546771E-02  0.1316603E+00
         -2   -1    0    0    0  501 -0.00000000000E+00  0.00000000000E+00  0.78191061595E+01  0.78191061595E+01  0.00000000000E+00 0.  1.
          2   -1    0    0  501    0  0.00000000000E+00 -0.00000000000E+00 -0.89370737380E+03  0.89370737380E+03  0.00000000000E+00 0. -1.
         23    2    1    2    0    0 -0.15146524213E+02 -0.44208810590E+02 -0.76522001480E+03  0.77212530773E+03  0.91825833320E+02 0.  0.
         13    1    3    3    0    0  0.10250563618E+02 -0.49525649309E+02 -0.70155527844E+03  0.70337591137E+03  0.00000000000E+00 0. -1.
        -13    1    3    3    0    0 -0.25397087831E+02  0.53168387196E+01 -0.63664736362E+02  0.68749396363E+02  0.00000000000E+00 0.  1.
         22    1    1    2    0    0  0.15146524213E+02  0.44208810590E+02 -0.12066825284E+03  0.12940117222E+03  0.00000000000E+00 0.  1.
<mgrwt>
<rscale>  0 0.84554180E+02</rscale>
<asrwt>0</asrwt>
<pdfrwt beam="1">  1        2 0.13749337E+00 0.10303310E+03</pdfrwt>
<pdfrwt beam="2">  1       -2 0.12029400E-02 0.10303310E+03</pdfrwt>
<totfact> 0.45581190E+04</totfact>
</mgrwt>
</event>
<event>
 6    1  0.1535970E-002  0.9266371E+02  0.7546771E-02  0.1364192E+00
          2   -1    0    0  501    0  0.00000000000E+00  0.00000000000E+00  0.10779524044E+04  0.10779524044E+04  0.00000000000E+00 0. -1.
         -2   -1    0    0    0  501 -0.00000000000E+00 -0.00000000000E+00 -0.46314447113E+01  0.46314447113E+01  0.00000000000E+00 0.  1.
         23    2    1    2    0    0 -0.51347150582E+01 -0.27701604434E+02  0.99579958251E+03  0.10001016807E+04  0.88276944951E+02 0.  0.
         13    1    3    3    0    0  0.52474904251E+01 -0.59227924764E+02  0.64671911865E+03  0.64944676583E+03  0.00000000000E+00 0. -1.
        -13    1    3    3    0    0 -0.10382205483E+02  0.31526320330E+02  0.34908046387E+03  0.35065491486E+03  0.00000000000E+00 0.  1.
         22    1    1    2    0    0  0.51347150582E+01  0.27701604434E+02  0.77521377133E+02  0.82482168373E+02  0.00000000000E+00 0.  1.
<mgrwt>
<rscale>  0 0.68808539E+02</rscale>
<asrwt>0</asrwt>
<pdfrwt beam="1">  1        2 0.16583863E+00 0.92663710E+02</pdfrwt>
<pdfrwt beam="2">  1       -2 0.71253082E-03 0.92663710E+02</pdfrwt>
<totfact> 0.73527529E+04</totfact>
</mgrwt>
</event>
<event>
 6    1  0.1535970E-002  0.9415008E+02  0.7546771E-02  0.1382526E+00
          2   -1    0    0  501    0  0.00000000000E+00  0.00000000000E+00  0.62474049488E+02  0.62474049488E+02  0.00000000000E+00 0.  1.
         -2   -1    0    0    0  501 -0.00000000000E+00 -0.00000000000E+00 -0.53082080934E+02  0.53082080934E+02  0.00000000000E+00 0. -1.
         23    2    1    2    0    0 -0.15041560204E+02 -0.12965389453E+02  0.13959624053E+02  0.95179346235E+02  0.92031988944E+02 0.  0.
         13    1    3    3    0    0 -0.23947751617E+02 -0.19117169440E+02 -0.34141157274E+02  0.45875697214E+02  0.00000000000E+00 0. -1.
        -13    1    3    3    0    0  0.89061914129E+01  0.61517799867E+01  0.48100781327E+02  0.49303649021E+02  0.00000000000E+00 0.  1.
         22    1    1    2    0    0  0.15041560204E+02  0.12965389453E+02 -0.45676554985E+01  0.20376784187E+02  0.00000000000E+00 0.  1.
<mgrwt>
<rscale>  0 0.63804413E+02</rscale>
<asrwt>0</asrwt>
<pdfrwt beam="1">  1        2 0.96113922E-02 0.94150076E+02</pdfrwt>
<pdfrwt beam="2">  1       -2 0.81664740E-02 0.94150076E+02</pdfrwt>
<totfact> 0.53242687E+04</totfact>
</mgrwt>
</event>
<event>
 6    1  0.1535970E-002  0.9208895E+02  0.7546771E-02  0.1416543E+00
         -2   -1    0    0    0  501 -0.00000000000E+00  0.00000000000E+00  0.42791462227E+01  0.42791462227E+01  0.00000000000E+00 0.  1.
          2   -1    0    0  501    0  0.00000000000E+00 -0.00000000000E+00 -0.67315494805E+03  0.67315494805E+03  0.00000000000E+00 0. -1.
         23    2    1    2    0    0  0.12030946461E+02 -0.29091102035E+01 -0.62828688612E+03  0.63499983131E+03  0.91253317189E+02 0.  0.
         13    1    3    3    0    0 -0.11698727461E+02 -0.26282216857E+02 -0.53794201829E+03  0.53871071104E+03  0.00000000000E+00 0. -1.
        -13    1    3    3    0    0  0.23729673922E+02  0.23373106654E+02 -0.90344867831E+02  0.96289120270E+02  0.00000000000E+00 0.  1.
         22    1    1    2    0    0 -0.12030946461E+02  0.29091102035E+01 -0.40588915706E+02  0.42434262962E+02  0.00000000000E+00 0. -1.
<mgrwt>
<rscale>  0 0.55759044E+02</rscale>
<asrwt>0</asrwt>
<pdfrwt beam="1">  1        2 0.10356220E+00 0.92088949E+02</pdfrwt>
<pdfrwt beam="2">  1       -2 0.65833082E-03 0.92088949E+02</pdfrwt>
<totfact> 0.14880726E+05</totfact>
</mgrwt>
</event>
<event>
 6    1  0.1535970E-002  0.9623111E+02  0.7546771E-02  0.1384418E+00
          1   -1    0    0  501    0  0.00000000000E+00  0.00000000000E+00  0.28797603961E+03  0.28797603961E+03  0.00000000000E+00 0. -1.
         -1   -1    0    0    0  501 -0.00000000000E+00 -0.00000000000E+00 -0.13495567899E+02  0.13495567899E+02  0.00000000000E+00 0.  1.
         23    2    1    2    0    0 -0.17988228571E+02  0.13042895070E+01  0.26309823561E+03  0.28014479723E+03  0.94525913344E+02 0.  0.
         13    1    3    3    0    0 -0.20876865254E+02 -0.16033007091E+02  0.26113595325E+03  0.26245930523E+03  0.00000000000E+00 0. -1.
        -13    1    3    3    0    0  0.28886366832E+01  0.17337296598E+02  0.19622823585E+01  0.17685492000E+02  0.00000000000E+00 0.  1.
         22    1    1    2    0    0  0.17988228571E+02 -0.13042895070E+01  0.11382236104E+02  0.21326810286E+02  0.00000000000E+00 0.  1.
<mgrwt>
<rscale>  0 0.63316714E+02</rscale>
<asrwt>0</asrwt>
<pdfrwt beam="1">  1        1 0.44304002E-01 0.96231106E+02</pdfrwt>
<pdfrwt beam="2">  1       -1 0.20762414E-02 0.96231106E+02</pdfrwt>
<totfact> 0.52641544E+04</totfact>
</mgrwt>
</event>
<event>
 6    1  0.1535970E-002  0.9096897E+02  0.7546771E-02  0.1385600E+00
          2   -1    0    0  501    0  0.00000000000E+00  0.00000000000E+00  0.17351025734E+03  0.17351025734E+03  0.00000000000E+00 0. -1.
         -2   -1    0    0    0  501 -0.00000000000E+00 -0.00000000000E+00 -0.20190781495E+02  0.20190781495E+02  0.00000000000E+00 0.  1.
         23    2    1    2    0    0 -0.17210626744E+02 -0.11936561638E+02  0.14498098928E+03  0.17115735824E+03  0.88524950443E+02 0.  0.
         13    1    3    3    0    0  0.82368080483E+01 -0.87846947116E+01  0.14501631069E+03  0.14551545016E+03  0.00000000000E+00 0. -1.
        -13    1    3    3    0    0 -0.25447434792E+02 -0.31518669267E+01 -0.35321410702E-01  0.25641908085E+02  0.00000000000E+00 0.  1.
         22    1    1    2    0    0  0.17210626744E+02  0.11936561638E+02  0.83384865696E+01  0.22543680599E+02  0.00000000000E+00 0. -1.
<mgrwt>
<rscale>  0 0.63014332E+02</rscale>
<asrwt>0</asrwt>
<pdfrwt beam="1">  1        2 0.26693885E-01 0.90968973E+02</pdfrwt>
<pdfrwt beam="2">  1       -2 0.31062742E-02 0.90968973E+02</pdfrwt>
<totfact> 0.69152335E+04</totfact>
</mgrwt>
</event>
<event>
 6    1  0.1535970E-002  0.9184238E+02  0.7546771E-02  0.1422989E+00
         -2   -1    0    0    0  501 -0.00000000000E+00  0.00000000000E+00  0.25556726352E+02  0.25556726352E+02  0.00000000000E+00 0.  1.
          2   -1    0    0  501    0  0.00000000000E+00 -0.00000000000E+00 -0.11081426061E+03  0.11081426061E+03  0.00000000000E+00 0. -1.
         23    2    1    2    0    0  0.34828020025E+01 -0.10749292117E+02 -0.84890392988E+02  0.12506559075E+03  0.91144643159E+02 0.  0.
         13    1    3    3    0    0  0.12495928950E+02 -0.49662722226E+02 -0.55195877391E+02  0.75293552846E+02  0.00000000000E+00 0. -1.
        -13    1    3    3    0    0 -0.90131269477E+01  0.38913430110E+02 -0.29694515596E+02  0.49772037901E+02  0.00000000000E+00 0.  1.
         22    1    1    2    0    0 -0.34828020025E+01  0.10749292117E+02 -0.36714126853E+00  0.11305396212E+02  0.00000000000E+00 0.  1.
<mgrwt>
<rscale>  0 0.54393439E+02</rscale>
<asrwt>0</asrwt>
<pdfrwt beam="1">  1        2 0.17048347E-01 0.91842382E+02</pdfrwt>
<pdfrwt beam="2">  1       -2 0.39318042E-02 0.91842382E+02</pdfrwt>
<totfact> 0.80673070E+04</totfact>
</mgrwt>
</event>
<event>
 6    1  0.1535970E-002  0.8481783E+02  0.7546771E-02  0.1419891E+00
         -1   -1    0    0    0  501 -0.00000000000E+00  0.00000000000E+00  0.78831649785E+02  0.78831649785E+02  0.00000000000E+00 0.  1.
          1   -1    0    0  501    0  0.00000000000E+00 -0.00000000000E+00 -0.60058859807E+02  0.60058859807E+02  0.00000000000E+00 0. -1.
         23    2    1    2    0    0  0.99400985087E+01  0.11292895062E+02 -0.28345348988E+02  0.89428867314E+02  0.83472920535E+02 0.  0.
         11    1    3    3    0    0  0.39605834018E+02  0.29901534449E+02 -0.13797541399E+02  0.51508212931E+02  0.00000000000E+00 0. -1.
        -11    1    3    3    0    0 -0.29665735510E+02 -0.18608639388E+02 -0.14547807589E+02  0.37920654383E+02  0.00000000000E+00 0.  1.
         22    1    1    2    0    0 -0.99400985087E+01 -0.11292895062E+02  0.47118138966E+02  0.49461642278E+02  0.00000000000E+00 0.  1.
<mgrwt>
<rscale>  0 0.55043916E+02</rscale>
<asrwt>0</asrwt>
<pdfrwt beam="1">  1        1 0.92398246E-02 0.84817825E+02</pdfrwt>
<pdfrwt beam="2">  1       -1 0.12127946E-01 0.84817825E+02</pdfrwt>
<totfact> 0.27905788E+04</totfact>
</mgrwt>
</event>
<event>
 6    1  0.1535970E-002  0.9293496E+02  0.7546771E-02  0.1412609E+00
          1   -1    0    0  501    0  0.00000000000E+00  0.00000000000E+00  0.18181827883E+03  0.18181827883E+03  0.00000000000E+00 0. -1.
         -1   -1    0    0    0  501 -0.00000000000E+00 -0.00000000000E+00 -0.64391550039E+02  0.64391550039E+02  0.00000000000E+00 0.  1.
         23    2    1    2    0    0 -0.16959563839E+01 -0.12687257595E+02  0.16911059321E+03  0.19296450405E+03  0.92049249397E+02 0.  0.
         11    1    3    3    0    0  0.32388522804E+02 -0.22292574992E+01  0.14802469954E+03  0.15154305551E+03  0.00000000000E+00 0. -1.
        -11    1    3    3    0    0 -0.34084479188E+02 -0.10458000096E+02  0.21085893665E+02  0.41421448540E+02  0.00000000000E+00 0.  1.
         22    1    1    2    0    0  0.16959563839E+01  0.12687257595E+02 -0.51683864420E+02  0.53245324816E+02  0.00000000000E+00 0.  1.
<mgrwt>
<rscale>  0 0.56615814E+02</rscale>
<asrwt>0</asrwt>
<pdfrwt beam="1">  1        1 0.27972043E-01 0.92934962E+02</pdfrwt>
<pdfrwt beam="2">  1       -1 0.99063923E-02 0.92934962E+02</pdfrwt>
<totfact> 0.93602230E+03</totfact>
</mgrwt>
</event>
<event>
 6    1  0.1535970E-002  0.9293624E+02  0.7546771E-02  0.1397823E+00
          2   -1    0    0  501    0  0.00000000000E+00  0.00000000000E+00  0.81198853684E+02  0.81198853684E+02  0.00000000000E+00 0. -1.
         -2   -1    0    0    0  501 -0.00000000000E+00 -0.00000000000E+00 -0.36663073069E+02  0.36663073069E+02  0.00000000000E+00 0.  1.
         23    2    1    2    0    0 -0.11562459040E+02 -0.11271815544E+02  0.36798744547E+02  0.99956452399E+02  0.91522677470E+02 0.  0.
         11    1    3    3    0    0 -0.35252516510E+02  0.49306132570E+00  0.56760587685E+02  0.66818764910E+02  0.00000000000E+00 0. -1.
        -11    1    3    3    0    0  0.23690057470E+02 -0.11764876869E+02 -0.19961843138E+02  0.33137687489E+02  0.00000000000E+00 0.  1.
         22    1    1    2    0    0  0.11562459040E+02  0.11271815544E+02  0.77370360681E+01  0.17905474353E+02  0.00000000000E+00 0. -1.
<mgrwt>
<rscale>  0 0.60001993E+02</rscale>
<asrwt>0</asrwt>
<pdfrwt beam="1">  1        2 0.12492131E-01 0.92936240E+02</pdfrwt>
<pdfrwt beam="2">  1       -2 0.56404728E-02 0.92936240E+02</pdfrwt>
<totfact> 0.67912142E+04</totfact>
</mgrwt>
</event>
<event>
 6    1  0.1535970E-002  0.1000556E+03  0.7546771E-02  0.1328495E+00
         -2   -1    0    0    0  501 -0.00000000000E+00  0.00000000000E+00  0.12103569769E+03  0.12103569769E+03  0.00000000000E+00 0. -1.
          2   -1    0    0  501    0  0.00000000000E+00 -0.00000000000E+00 -0.51378757089E+02  0.51378757089E+02  0.00000000000E+00 0.  1.
         23    2    1    2    0    0 -0.39295652631E+02 -0.12692054760E+02  0.10969946416E+02  0.10065513583E+03  0.91136601182E+02 0.  0.
         13    1    3    3    0    0  0.20209896638E+01  0.15687806143E+02  0.39802011713E+02  0.42829800340E+02  0.00000000000E+00 0. -1.
        -13    1    3    3    0    0 -0.41316642294E+02 -0.28379860902E+02 -0.28832065297E+02  0.57825335491E+02  0.00000000000E+00 0.  1.
         22    1    1    2    0    0  0.39295652631E+02  0.12692054760E+02  0.58686994187E+02  0.71759318952E+02  0.00000000000E+00 0. -1.
<mgrwt>
<rscale>  0 0.80196243E+02</rscale>
<asrwt>0</asrwt>
<pdfrwt beam="1">  1        2 0.79044242E-02 0.10005557E+03</pdfrwt>
<pdfrwt beam="2">  1       -2 0.18620877E-01 0.10005557E+03</pdfrwt>
<totfact> 0.18391417E+04</totfact>
</mgrwt>
</event>
<event>
 6    1  0.1535970E-002  0.9323241E+02  0.7546771E-02  0.1380274E+00
          2   -1    0    0  501    0  0.00000000000E+00  0.00000000000E+00  0.70970935263E+03  0.70970935263E+03  0.00000000000E+00 0. -1.
         -2   -1    0    0    0  501 -0.00000000000E+00 -0.00000000000E+00 -0.46175918570E+01  0.46175918570E+01  0.00000000000E+00 0.  1.
         23    2    1    2    0    0 -0.14783299289E+02  0.15214670181E+02  0.58211869579E+03  0.58953749446E+03  0.90786834178E+02 0.  0.
         13    1    3    3    0    0 -0.25741068038E+02  0.64536060858E+01  0.57105256248E+03  0.57166885583E+03  0.00000000000E+00 0. -1.
        -13    1    3    3    0    0  0.10957768749E+02  0.87610640955E+01  0.11066133318E+02  0.17868638635E+02  0.00000000000E+00 0.  1.
         22    1    1    2    0    0  0.14783299289E+02 -0.15214670181E+02  0.12297306498E+03  0.12478945003E+03  0.00000000000E+00 0. -1.
<mgrwt>
<rscale>  0 0.64391806E+02</rscale>
<asrwt>0</asrwt>
<pdfrwt beam="1">  1        2 0.10918597E+00 0.93232405E+02</pdfrwt>
<pdfrwt beam="2">  1       -2 0.71039931E-03 0.93232405E+02</pdfrwt>
<totfact> 0.12593457E+05</totfact>
</mgrwt>
</event>
<event>
 6    1  0.1535970E-002  0.8927228E+02  0.7546771E-02  0.1431826E+00
         -2   -1    0    0    0  501 -0.00000000000E+00  0.00000000000E+00  0.25688497840E+02  0.25688497840E+02  0.00000000000E+00 0.  1.
          2   -1    0    0  501    0  0.00000000000E+00 -0.00000000000E+00 -0.24930055211E+03  0.24930055211E+03  0.00000000000E+00 0. -1.
         23    2    1    2    0    0 -0.27429064586E+01  0.10399959679E+02 -0.23961660820E+03  0.25570619632E+03  0.88621990579E+02 0.  0.
         13    1    3    3    0    0  0.31095465750E+02 -0.14414246178E+01 -0.19946187697E+03  0.20187631377E+03  0.00000000000E+00 0. -1.
        -13    1    3    3    0    0 -0.33838372208E+02  0.11841384296E+02 -0.40154731231E+02  0.53829882556E+02  0.00000000000E+00 0.  1.
         22    1    1    2    0    0  0.27429064586E+01 -0.10399959679E+02  0.16004553936E+02  0.19282853623E+02  0.00000000000E+00 0.  1.
<mgrwt>
<rscale>  0 0.52595189E+02</rscale>
<asrwt>0</asrwt>
<pdfrwt beam="1">  1        2 0.38353930E-01 0.89272280E+02</pdfrwt>
<pdfrwt beam="2">  1       -2 0.39520767E-02 0.89272280E+02</pdfrwt>
<totfact> 0.32981495E+04</totfact>
</mgrwt>
</event>
<event>
 6    1  0.1535970E-002  0.8878428E+02  0.7546771E-02  0.1430102E+00
         -2   -1    0    0    0  501 -0.00000000000E+00  0.00000000000E+00  0.40109080093E+02  0.40109080093E+02  0.00000000000E+00 0.  1.
          2   -1    0    0  501    0  0.00000000000E+00 -0.00000000000E+00 -0.68302308756E+02  0.68302308756E+02  0.00000000000E+00 0. -1.
         23    2    1    2    0    0 -0.10250089915E+02  0.45708338183E+01 -0.34831209437E+02  0.95372230371E+02  0.88072085873E+02 0.  0.
         11    1    3    3    0    0 -0.22702737811E+02  0.17918158969E+02 -0.58632010620E+02  0.65377269707E+02  0.00000000000E+00 0. -1.
        -11    1    3    3    0    0  0.12452647896E+02 -0.13347325151E+02  0.23800801183E+02  0.29994960664E+02  0.00000000000E+00 0.  1.
         22    1    1    2    0    0  0.10250089915E+02 -0.45708338183E+01  0.66379807738E+01  0.13039158478E+02  0.00000000000E+00 0. -1.
<mgrwt>
<rscale>  0 0.52939496E+02</rscale>
<asrwt>0</asrwt>
<pdfrwt beam="1">  1        2 0.10508047E-01 0.88784285E+02</pdfrwt>
<pdfrwt beam="2">  1       -2 0.61706278E-02 0.88784285E+02</pdfrwt>
<totfact> 0.72476770E+04</totfact>
</mgrwt>
</event>
<event>
 6    1  0.1535970E-002  0.9796737E+02  0.7546771E-02  0.1381695E+00
         -2   -1    0    0    0  501 -0.00000000000E+00  0.00000000000E+00  0.18345559035E+03  0.18345559035E+03  0.00000000000E+00 0.  1.
          2   -1    0    0  501    0  0.00000000000E+00 -0.00000000000E+00 -0.23247520507E+02  0.23247520507E+02  0.00000000000E+00 0. -1.
         23    2    1    2    0    0 -0.14670121797E+02  0.10197311541E+02  0.85951633619E+02  0.13032761769E+03  0.96324487926E+02 0.  0.
         11    1    3    3    0    0 -0.38721494920E+02  0.42154519360E+02  0.42660478965E+02  0.71388193260E+02  0.00000000000E+00 0. -1.
        -11    1    3    3    0    0  0.24051373124E+02 -0.31957207819E+02  0.43291154654E+02  0.58939424428E+02  0.00000000000E+00 0.  1.
         22    1    1    2    0    0  0.14670121797E+02 -0.10197311541E+02  0.74256436224E+02  0.76375493169E+02  0.00000000000E+00 0.  1.
<mgrwt>
<rscale>  0 0.64020421E+02</rscale>
<asrwt>0</asrwt>
<pdfrwt beam="1">  1        2 0.35765417E-02 0.97967365E+02</pdfrwt>
<pdfrwt beam="2">  1       -2 0.28223936E-01 0.97967365E+02</pdfrwt>
<totfact> 0.24940960E+04</totfact>
</mgrwt>
</event>
<event>
 6    1  0.1535970E-002  0.8947805E+02  0.7546771E-02  0.1432912E+00
          2   -1    0    0  501    0  0.00000000000E+00  0.00000000000E+00  0.14853821434E+03  0.14853821434E+03  0.00000000000E+00 0. -1.
         -2   -1    0    0    0  501 -0.00000000000E+00 -0.00000000000E+00 -0.23043979467E+02  0.23043979467E+02  0.00000000000E+00 0.  1.
         23    2    1    2    0    0  0.61428760427E+01  0.85250467198E+01  0.13181808420E+03  0.15931832745E+03  0.88858937600E+02 0.  0.
         13    1    3    3    0    0 -0.19781932222E+02  0.23277957752E+02  0.12505580343E+03  0.12873283238E+03  0.00000000000E+00 0. -1.
        -13    1    3    3    0    0  0.25924808265E+02 -0.14752911032E+02  0.67622807628E+01  0.30585495069E+02  0.00000000000E+00 0.  1.
         22    1    1    2    0    0 -0.61428760427E+01 -0.85250467198E+01 -0.63238493295E+01  0.12263866356E+02  0.00000000000E+00 0. -1.
<mgrwt>
<rscale>  0 0.52379833E+02</rscale>
<asrwt>0</asrwt>
<pdfrwt beam="1">  1        2 0.22852032E-01 0.89478054E+02</pdfrwt>
<pdfrwt beam="2">  1       -2 0.35452277E-02 0.89478054E+02</pdfrwt>
<totfact> 0.67390712E+04</totfact>
</mgrwt>
</event>
<event>
 6    1  0.1535970E-002  0.8895902E+02  0.7546771E-02  0.1408341E+00
          2   -1    0    0  501    0  0.00000000000E+00  0.00000000000E+00  0.65840239101E+03  0.65840239101E+03  0.00000000000E+00 0. -1.
         -2   -1    0    0    0  501 -0.00000000000E+00 -0.00000000000E+00 -0.64016765490E+01  0.64016765490E+01  0.00000000000E+00 0.  1.
         23    2    1    2    0    0  0.12053890490E+02 -0.99006130777E+01  0.63693659043E+03  0.64311890562E+03  0.87580752063E+02 0.  0.
         13    1    3    3    0    0  0.40859569445E+01 -0.14007510985E+02  0.63326334362E+03  0.63343142311E+03  0.00000000000E+00 0. -1.
        -13    1    3    3    0    0  0.79679335450E+01  0.41068979075E+01  0.36732468069E+01  0.96874825163E+01  0.00000000000E+00 0.  1.
         22    1    1    2    0    0 -0.12053890490E+02  0.99006130777E+01  0.15064124037E+02  0.21685161938E+02  0.00000000000E+00 0. -1.
<mgrwt>
<rscale>  0 0.57565774E+02</rscale>
<asrwt>0</asrwt>
<pdfrwt beam="1">  1        2 0.10129262E+00 0.88959016E+02</pdfrwt>
<pdfrwt beam="2">  1       -2 0.98487384E-03 0.88959016E+02</pdfrwt>
<totfact> 0.86059292E+04</totfact>
</mgrwt>
</event>
<event>
 6    1  0.1535970E-002  0.9375149E+02  0.7546771E-02  0.1364014E+00
         -2   -1    0    0    0  501 -0.00000000000E+00  0.00000000000E+00  0.16128509604E+02  0.16128509604E+02  0.00000000000E+00 0.  1.
          2   -1    0    0  501    0  0.00000000000E+00 -0.00000000000E+00 -0.88923069698E+03  0.88923069698E+03  0.00000000000E+00 0. -1.
         23    2    1    2    0    0  0.26716139974E+02  0.55428293829E+01 -0.87305485160E+03  0.87807409465E+03  0.89693180855E+02 0.  0.
         11    1    3    3    0    0  0.39856718554E+02 -0.20193586402E+02 -0.76240584795E+03  0.76371396212E+03  0.00000000000E+00 0. -1.
        -11    1    3    3    0    0 -0.13140578580E+02  0.25736415785E+02 -0.11064900365E+03  0.11436013253E+03  0.00000000000E+00 0.  1.
         22    1    1    2    0    0 -0.26716139974E+02 -0.55428293829E+01 -0.47335771885E-01  0.27285111935E+02  0.00000000000E+00 0.  1.
<mgrwt>
<rscale>  0 0.68859665E+02</rscale>
<asrwt>0</asrwt>
<pdfrwt beam="1">  1        2 0.13680473E+00 0.93751490E+02</pdfrwt>
<pdfrwt beam="2">  1       -2 0.24813090E-02 0.93751490E+02</pdfrwt>
<totfact> 0.16092514E+04</totfact>
</mgrwt>
</event>
<event>
 6    1  0.1535970E-002  0.9900268E+02  0.7546771E-02  0.1340534E+00
          2   -1    0    0  501    0  0.00000000000E+00  0.00000000000E+00  0.10366984408E+03  0.10366984408E+03  0.00000000000E+00 0.  1.
         -2   -1    0    0    0  501 -0.00000000000E+00 -0.00000000000E+00 -0.43444395692E+02  0.43444395692E+02  0.00000000000E+00 0. -1.
         23    2    1    2    0    0  0.10176858968E+01  0.34525503140E+02  0.38022005439E+02  0.10605283538E+03  0.92781921424E+02 0.  0.
         11    1    3    3    0    0  0.15846846052E+02 -0.11872343590E+02  0.51780263620E+02  0.55437088422E+02  0.00000000000E+00 0.  1.
        -11    1    3    3    0    0 -0.14829160155E+02  0.46397846730E+02 -0.13758258181E+02  0.50615746960E+02  0.00000000000E+00 0. -1.
         22    1    1    2    0    0 -0.10176858968E+01 -0.34525503140E+02  0.22203442948E+02  0.41061404389E+02  0.00000000000E+00 0.  1.
<mgrwt>
<rscale>  0 0.76088210E+02</rscale>
<asrwt>0</asrwt>
<pdfrwt beam="1">  1        2 0.15949207E-01 0.99002682E+02</pdfrwt>
<pdfrwt beam="2">  1       -2 0.66837532E-02 0.99002682E+02</pdfrwt>
<totfact> 0.39899212E+04</totfact>
</mgrwt>
</event>
<event>
 6    1  0.1535970E-002  0.9374959E+02  0.7546771E-02  0.1374421E+00
          2   -1    0    0  501    0  0.00000000000E+00  0.00000000000E+00  0.48962536171E+02  0.48962536171E+02  0.00000000000E+00 0. -1.
         -2   -1    0    0    0  501 -0.00000000000E+00 -0.00000000000E+00 -0.11475049880E+03  0.11475049880E+03  0.00000000000E+00 0.  1.
         23    2    1    2    0    0  0.67718052742E+01  0.21942268163E+02  0.29907330558E+00  0.93750067643E+02  0.90893703079E+02 0.  0.
         13    1    3    3    0    0  0.34602951144E+02 -0.13914156778E+02  0.22146809450E+02  0.43375674698E+02  0.00000000000E+00 0. -1.
        -13    1    3    3    0    0 -0.27831145869E+02  0.35856424941E+02 -0.21847736144E+02  0.50374392945E+02  0.00000000000E+00 0.  1.
         22    1    1    2    0    0 -0.67718052742E+01 -0.21942268163E+02 -0.66087035938E+02  0.69962967332E+02  0.00000000000E+00 0.  1.
<mgrwt>
<rscale>  0 0.65953275E+02</rscale>
<asrwt>0</asrwt>
<pdfrwt beam="1">  1        2 0.75326980E-02 0.93749591E+02</pdfrwt>
<pdfrwt beam="2">  1       -2 0.17653923E-01 0.93749591E+02</pdfrwt>
<totfact> 0.21176254E+04</totfact>
</mgrwt>
</event>
<event>
 6    1  0.1535970E-002  0.9109880E+02  0.7546771E-02  0.1427616E+00
          1   -1    0    0  501    0  0.00000000000E+00  0.00000000000E+00  0.28287834387E+02  0.28287834387E+02  0.00000000000E+00 0. -1.
         -1   -1    0    0    0  501 -0.00000000000E+00 -0.00000000000E+00 -0.10546329602E+03  0.10546329602E+03  0.00000000000E+00 0.  1.
         23    2    1    2    0    0  0.10766078493E+02 -0.70143911297E+00 -0.48697141687E+02  0.10329763849E+03  0.90457669915E+02 0.  0.
         11    1    3    3    0    0  0.24389783739E+02 -0.49415833047E+01  0.20749143326E+02  0.32400736800E+02  0.00000000000E+00 0. -1.
        -11    1    3    3    0    0 -0.13623705246E+02  0.42401441917E+01 -0.69446285013E+02  0.70896901692E+02  0.00000000000E+00 0.  1.
         22    1    1    2    0    0 -0.10766078493E+02  0.70143911297E+00 -0.28478319948E+02  0.30453491918E+02  0.00000000000E+00 0.  1.
<mgrwt>
<rscale>  0 0.53441521E+02</rscale>
<asrwt>0</asrwt>
<pdfrwt beam="1">  1        1 0.43519745E-02 0.91098795E+02</pdfrwt>
<pdfrwt beam="2">  1       -1 0.16225123E-01 0.91098795E+02</pdfrwt>
<totfact> 0.49210911E+04</totfact>
</mgrwt>
</event>
<event>
 6    1  0.1535970E-002  0.9524919E+02  0.7546771E-02  0.1378111E+00
         -2   -1    0    0    0  501 -0.00000000000E+00  0.00000000000E+00  0.12227184285E+03  0.12227184285E+03  0.00000000000E+00 0.  1.
          2   -1    0    0  501    0  0.00000000000E+00 -0.00000000000E+00 -0.43319243755E+03  0.43319243755E+03  0.00000000000E+00 0. -1.
         23    2    1    2    0    0 -0.10649707491E+02 -0.17645502331E+02 -0.42703820764E+03  0.43753175708E+03  0.92992621490E+02 0.  0.
         11    1    3    3    0    0 -0.14269305672E+02  0.19680320322E+02 -0.35917262463E+03  0.35999430881E+03  0.00000000000E+00 0. -1.
        -11    1    3    3    0    0  0.36195981808E+01 -0.37325822653E+02 -0.67865583009E+02  0.77537448274E+02  0.00000000000E+00 0.  1.
         22    1    1    2    0    0  0.10649707491E+02  0.17645502331E+02  0.11611761293E+03  0.11793252332E+03  0.00000000000E+00 0.  1.
<mgrwt>
<rscale>  0 0.64963059E+02</rscale>
<asrwt>0</asrwt>
<pdfrwt beam="1">  1        2 0.66644992E-01 0.95249187E+02</pdfrwt>
<pdfrwt beam="2">  1       -2 0.18811052E-01 0.95249187E+02</pdfrwt>
<totfact> 0.16613881E+03</totfact>
</mgrwt>
</event>
<event>
 6    1  0.1535970E-002  0.9318333E+02  0.7546771E-02  0.1393664E+00
         -1   -1    0    0    0  501 -0.00000000000E+00  0.00000000000E+00  0.89500500630E+01  0.89500500630E+01  0.00000000000E+00 0.  1.
          1   -1    0    0  501    0  0.00000000000E+00 -0.00000000000E+00 -0.35411030489E+03  0.35411030489E+03  0.00000000000E+00 0. -1.
         23    2    1    2    0    0  0.11564516555E+02  0.12619838762E+02 -0.25992719089E+03  0.27612547380E+03  0.91597676510E+02 0.  0.
         11    1    3    3    0    0 -0.21251286093E+02 -0.19784858469E+02 -0.19098744245E+03  0.19318193745E+03  0.00000000000E+00 0. -1.
        -11    1    3    3    0    0  0.32815802648E+02  0.32404697232E+02 -0.68939748447E+02  0.82943536349E+02  0.00000000000E+00 0.  1.
         22    1    1    2    0    0 -0.11564516555E+02 -0.12619838762E+02 -0.85233063938E+02  0.86934881157E+02  0.00000000000E+00 0. -1.
<mgrwt>
<rscale>  0 0.61004492E+02</rscale>
<asrwt>0</asrwt>
<pdfrwt beam="1">  1        1 0.54478499E-01 0.93183329E+02</pdfrwt>
<pdfrwt beam="2">  1       -1 0.13769310E-02 0.93183329E+02</pdfrwt>
<totfact> 0.73001799E+04</totfact>
</mgrwt>
</event>
<event>
 6    1  0.1535970E-002  0.9965858E+02  0.7546771E-02  0.1331199E+00
          1   -1    0    0  501    0  0.00000000000E+00  0.00000000000E+00  0.76602749953E+02  0.76602749953E+02  0.00000000000E+00 0. -1.
         -1   -1    0    0    0  501 -0.00000000000E+00 -0.00000000000E+00 -0.63615842322E+02  0.63615842322E+02  0.00000000000E+00 0.  1.
         23    2    1    2    0    0 -0.37472113682E+02  0.13554899509E+02  0.67713772329E+01  0.99888362637E+02  0.91345163179E+02 0.  0.
         13    1    3    3    0    0  0.19749782234E+02  0.30358215294E+02  0.15903868296E+02  0.39555128124E+02  0.00000000000E+00 0. -1.
        -13    1    3    3    0    0 -0.57221895917E+02 -0.16803315786E+02 -0.91324910626E+01  0.60333234512E+02  0.00000000000E+00 0.  1.
         22    1    1    2    0    0  0.37472113682E+02 -0.13554899509E+02  0.62155303987E+01  0.40330229638E+02  0.00000000000E+00 0. -1.
<mgrwt>
<rscale>  0 0.79248079E+02</rscale>
<asrwt>0</asrwt>
<pdfrwt beam="1">  1        1 0.11785038E-01 0.99658584E+02</pdfrwt>
<pdfrwt beam="2">  1       -1 0.97870527E-02 0.99658584E+02</pdfrwt>
<totfact> 0.28685717E+04</totfact>
</mgrwt>
</event>
<event>
 6    1  0.1535970E-002  0.9329619E+02  0.7546771E-02  0.1396787E+00
          2   -1    0    0  501    0  0.00000000000E+00  0.00000000000E+00  0.32972448864E+03  0.32972448864E+03  0.00000000000E+00 0. -1.
         -2   -1    0    0    0  501 -0.00000000000E+00 -0.00000000000E+00 -0.91096097222E+01  0.91096097222E+01  0.00000000000E+00 0.  1.
         23    2    1    2    0    0  0.13554489484E+02  0.89207622617E+01  0.26809144469E+03  0.28386123845E+03  0.91874238993E+02 0.  0.
         13    1    3    3    0    0 -0.32838728346E+02  0.18372421267E+02  0.17960341534E+03  0.18350290119E+03  0.00000000000E+00 0. -1.
        -13    1    3    3    0    0  0.46393217830E+02 -0.94516590052E+01  0.88488029349E+02  0.10035833726E+03  0.00000000000E+00 0.  1.
         22    1    1    2    0    0 -0.13554489484E+02 -0.89207622617E+01  0.52523434231E+02  0.54972859921E+02  0.00000000000E+00 0. -1.
<mgrwt>
<rscale>  0 0.60249739E+02</rscale>
<asrwt>0</asrwt>
<pdfrwt beam="1">  1        2 0.50726835E-01 0.93296195E+02</pdfrwt>
<pdfrwt beam="2">  1       -2 0.14014787E-02 0.93296195E+02</pdfrwt>
<totfact> 0.11069433E+05</totfact>
</mgrwt>
</event>
<event>
 6    1  0.1535970E-002  0.9255188E+02  0.7546771E-02  0.1382270E+00
         -2   -1    0    0    0  501 -0.00000000000E+00  0.00000000000E+00  0.25798355489E+01  0.25798355489E+01  0.00000000000E+00 0.  1.
          2   -1    0    0  501    0  0.00000000000E+00 -0.00000000000E+00 -0.19254140689E+04  0.19254140689E+04  0.00000000000E+00 0. -1.
         23    2    1    2    0    0  0.79903593453E+01  0.19411878716E+02 -0.18467255782E+04  0.18490433232E+04  0.90139798732E+02 0.  0.
         13    1    3    3    0    0 -0.37345866401E+02 -0.80257583574E+01 -0.93387078641E+03  0.93465168498E+03  0.00000000000E+00 0.  1.
        -13    1    3    3    0    0  0.45336225746E+02  0.27437637074E+02 -0.91285479175E+03  0.91439163826E+03  0.00000000000E+00 0. -1.
         22    1    1    2    0    0 -0.79903593453E+01 -0.19411878716E+02 -0.76108655152E+02  0.78950581168E+02  0.00000000000E+00 0.  1.
<mgrwt>
<rscale>  0 0.63870855E+02</rscale>
<asrwt>0</asrwt>
<pdfrwt beam="1">  1        2 0.29621616E+00 0.92551878E+02</pdfrwt>
<pdfrwt beam="2">  1       -2 0.39689964E-03 0.92551878E+02</pdfrwt>
<totfact> 0.60711396E+04</totfact>
</mgrwt>
</event>
<event>
 6    1  0.1535970E-002  0.3625616E+03  0.7546771E-02  0.1058630E+00
         -1   -1    0    0    0  501 -0.00000000000E+00  0.00000000000E+00  0.25994843764E+03  0.25994843764E+03  0.00000000000E+00 0.  1.
          1   -1    0    0  501    0  0.00000000000E+00 -0.00000000000E+00 -0.57366977937E+03  0.57366977937E+03  0.00000000000E+00 0. -1.
         23    2    1    2    0    0 -0.31200517656E+03  0.16289363501E+03 -0.31705001636E+03  0.48163434437E+03  0.87002082016E+02 0.  0.
         13    1    3    3    0    0 -0.27832672568E+03  0.12038703584E+03 -0.23667082370E+03  0.38467113671E+03  0.00000000000E+00 0. -1.
        -13    1    3    3    0    0 -0.33678450876E+02  0.42506599170E+02 -0.80379192666E+02  0.96963207661E+02  0.00000000000E+00 0.  1.
         22    1    1    2    0    0  0.31200517656E+03 -0.16289363501E+03  0.33286746326E+01  0.35198387264E+03  0.00000000000E+00 0.  1.
<mgrwt>
<rscale>  0 0.35988373E+03</rscale>
<asrwt>0</asrwt>
<pdfrwt beam="1">  1        1 0.88256888E-01 0.36256162E+03</pdfrwt>
<pdfrwt beam="2">  1       -1 0.39992068E-01 0.36256162E+03</pdfrwt>
<totfact> 0.23119938E+02</totfact>
</mgrwt>
</event>
<event>
 6    1  0.1535970E-002  0.9110731E+02  0.7546771E-02  0.1421107E+00
         -2   -1    0    0    0  501 -0.00000000000E+00  0.00000000000E+00  0.81795872649E+02  0.81795872649E+02  0.00000000000E+00 0.  1.
          2   -1    0    0  501    0  0.00000000000E+00 -0.00000000000E+00 -0.95678276064E+02  0.95678276064E+02  0.00000000000E+00 0. -1.
         23    2    1    2    0    0  0.93051326559E+01 -0.74404431780E+01 -0.73262915024E+02  0.11691020856E+03  0.90324949257E+02 0.  0.
         13    1    3    3    0    0  0.15877838367E+02  0.17709926319E+02  0.12797371789E+02  0.27009627286E+02  0.00000000000E+00 0.  1.
        -13    1    3    3    0    0 -0.65727057112E+01 -0.25150369497E+02 -0.86060286813E+02  0.89900581269E+02  0.00000000000E+00 0. -1.
         22    1    1    2    0    0 -0.93051326559E+01  0.74404431780E+01  0.59380511609E+02  0.60563940158E+02  0.00000000000E+00 0.  1.
<mgrwt>
<rscale>  0 0.54787338E+02</rscale>
<asrwt>0</asrwt>
<pdfrwt beam="1">  1        2 0.14719735E-01 0.91107311E+02</pdfrwt>
<pdfrwt beam="2">  1       -2 0.12583980E-01 0.91107311E+02</pdfrwt>
<totfact> 0.16283486E+04</totfact>
</mgrwt>
</event>
<event>
 6    1  0.1535970E-002  0.9667344E+02  0.7546771E-02  0.1343127E+00
          2   -1    0    0  501    0  0.00000000000E+00  0.00000000000E+00  0.58400456139E+02  0.58400456139E+02  0.00000000000E+00 0. -1.
         -2   -1    0    0    0  501 -0.00000000000E+00 -0.00000000000E+00 -0.92844108083E+02  0.92844108083E+02  0.00000000000E+00 0.  1.
         23    2    1    2    0    0 -0.32800779151E+02  0.13505133080E+02  0.67186149423E+01  0.96906622158E+02  0.89930383625E+02 0.  0.
         13    1    3    3    0    0  0.30596973223E+02  0.51593633950E+01 -0.62700713722E+01  0.31656083081E+02  0.00000000000E+00 0.  1.
        -13    1    3    3    0    0 -0.63397752374E+02  0.83457696854E+01  0.12988686314E+02  0.65250539077E+02  0.00000000000E+00 0. -1.
         22    1    1    2    0    0  0.32800779151E+02 -0.13505133080E+02 -0.41162266887E+02  0.54337942063E+02  0.00000000000E+00 0.  1.
<mgrwt>
<rscale>  0 0.75240647E+02</rscale>
<asrwt>0</asrwt>
<pdfrwt beam="1">  1        2 0.89846857E-02 0.96673438E+02</pdfrwt>
<pdfrwt beam="2">  1       -2 0.14283709E-01 0.96673438E+02</pdfrwt>
<totfact> 0.24132463E+04</totfact>
</mgrwt>
</event>
<event>
 6    1  0.1535970E-002  0.9344234E+02  0.7546771E-02  0.1385851E+00
         -2   -1    0    0    0  501 -0.00000000000E+00  0.00000000000E+00  0.33456355629E+02  0.33456355629E+02  0.00000000000E+00 0.  1.
          2   -1    0    0  501    0  0.00000000000E+00 -0.00000000000E+00 -0.98622180437E+02  0.98622180437E+02  0.00000000000E+00 0. -1.
         23    2    1    2    0    0  0.99728192000E+01 -0.16461973149E+02 -0.63030182145E+02  0.11271324102E+03  0.91438597739E+02 0.  0.
         11    1    3    3    0    0  0.21456792274E+02  0.15834113844E+02 -0.72419722135E+02  0.77173371379E+02  0.00000000000E+00 0. -1.
        -11    1    3    3    0    0 -0.11483973074E+02 -0.32296086993E+02  0.93895399903E+01  0.35539869638E+02  0.00000000000E+00 0.  1.
         22    1    1    2    0    0 -0.99728192000E+01  0.16461973149E+02 -0.21356426638E+01  0.19365295049E+02  0.00000000000E+00 0. -1.
<mgrwt>
<rscale>  0 0.62950548E+02</rscale>
<asrwt>0</asrwt>
<pdfrwt beam="1">  1        2 0.15172643E-01 0.93442340E+02</pdfrwt>
<pdfrwt beam="2">  1       -2 0.51471317E-02 0.93442340E+02</pdfrwt>
<totfact> 0.62071599E+04</totfact>
</mgrwt>
</event>
<event>
 6    1  0.1535970E-002  0.9075162E+02  0.7546771E-02  0.1415305E+00
         -2   -1    0    0    0  501 -0.00000000000E+00  0.00000000000E+00  0.11848786869E+02  0.11848786869E+02  0.00000000000E+00 0.  1.
          2   -1    0    0  501    0  0.00000000000E+00 -0.00000000000E+00 -0.26550937327E+03  0.26550937327E+03  0.00000000000E+00 0. -1.
         23    2    1    2    0    0  0.53609489122E+01 -0.12043928493E+02 -0.24577946971E+03  0.26199886370E+03  0.89788979627E+02 0.  0.
         13    1    3    3    0    0  0.38213768853E+02 -0.11201632751E+02 -0.20864298605E+03  0.21240919080E+03  0.00000000000E+00 0. -1.
        -13    1    3    3    0    0 -0.32852819940E+02 -0.84229574175E+00 -0.37136483656E+02  0.49589672902E+02  0.00000000000E+00 0.  1.
         22    1    1    2    0    0 -0.53609489122E+01  0.12043928493E+02 -0.78811166906E+01  0.15359296438E+02  0.00000000000E+00 0. -1.
<mgrwt>
<rscale>  0 0.56026793E+02</rscale>
<asrwt>0</asrwt>
<pdfrwt beam="1">  1        2 0.40847593E-01 0.90751622E+02</pdfrwt>
<pdfrwt beam="2">  1       -2 0.18228904E-02 0.90751622E+02</pdfrwt>
<totfact> 0.94961209E+04</totfact>
</mgrwt>
</event>
<event>
 6    1  0.1535970E-002  0.9716540E+02  0.7546771E-02  0.1414853E+00
         -2   -1    0    0    0  501 -0.00000000000E+00  0.00000000000E+00  0.32513640346E+02  0.32513640346E+02  0.00000000000E+00 0.  1.
          2   -1    0    0  501    0  0.00000000000E+00 -0.00000000000E+00 -0.92525726460E+02  0.92525726460E+02  0.00000000000E+00 0. -1.
         23    2    1    2    0    0  0.10253560502E+02 -0.34439479861E+01 -0.60047809196E+02  0.11422282592E+03  0.96561474151E+02 0.  0.
         13    1    3    3    0    0  0.11861113309E+02 -0.21017909971E+02 -0.82332571061E+02  0.85796799509E+02  0.00000000000E+00 0. -1.
        -13    1    3    3    0    0 -0.16075528070E+01  0.17573961985E+02  0.22284761865E+02  0.28426026406E+02  0.00000000000E+00 0.  1.
         22    1    1    2    0    0 -0.10253560502E+02  0.34439479861E+01  0.35723081415E-01  0.10816540891E+02  0.00000000000E+00 0.  1.
<mgrwt>
<rscale>  0 0.56124855E+02</rscale>
<asrwt>0</asrwt>
<pdfrwt beam="1">  1        2 0.14234727E-01 0.97165398E+02</pdfrwt>
<pdfrwt beam="2">  1       -2 0.50020985E-02 0.97165398E+02</pdfrwt>
<totfact> 0.70137160E+04</totfact>
</mgrwt>
</event>
<event>
 6    1  0.1535970E-002  0.9159794E+02  0.7546771E-02  0.1422573E+00
          2   -1    0    0  501    0  0.00000000000E+00  0.00000000000E+00  0.22957179082E+04  0.22957179082E+04  0.00000000000E+00 0.  1.
         -2   -1    0    0    0  501 -0.00000000000E+00 -0.00000000000E+00 -0.35828791804E+01  0.35828791804E+01  0.00000000000E+00 0. -1.
         23    2    1    2    0    0 -0.10606397531E+02 -0.43478827066E+01  0.22824694795E+04  0.22843067019E+04  0.90877850156E+02 0.  0.
         11    1    3    3    0    0  0.34151412303E+02 -0.79429527902E+01  0.48038647933E+03  0.48166438418E+03  0.00000000000E+00 0. -1.
        -11    1    3    3    0    0 -0.44757809834E+02  0.35950700836E+01  0.18020830002E+04  0.18026423177E+04  0.00000000000E+00 0.  1.
         22    1    1    2    0    0  0.10606397531E+02  0.43478827066E+01  0.96655495311E+01  0.14994085513E+02  0.00000000000E+00 0. -1.
<mgrwt>
<rscale>  0 0.54480190E+02</rscale>
<asrwt>0</asrwt>
<pdfrwt beam="1">  1        2 0.35318619E+00 0.91597944E+02</pdfrwt>
<pdfrwt beam="2">  1       -2 0.55121402E-03 0.91597944E+02</pdfrwt>
<totfact> 0.24867036E+04</totfact>
</mgrwt>
</event>
<event>
 6    1  0.1535970E-002  0.1011314E+03  0.7546771E-02  0.1403796E+00
          2   -1    0    0  501    0  0.00000000000E+00  0.00000000000E+00  0.74530926174E+02  0.74530926174E+02  0.00000000000E+00 0. -1.
         -2   -1    0    0    0  501 -0.00000000000E+00 -0.00000000000E+00 -0.42578609557E+02  0.42578609557E+02  0.00000000000E+00 0.  1.
         23    2    1    2    0    0 -0.72466926057E+01  0.88027613022E+01  0.26964457221E+02  0.10466437998E+03  0.10048655295E+03 0.  0.
         11    1    3    3    0    0  0.12124268651E+01  0.17538211849E+02  0.63641041073E+02  0.66024548182E+02  0.00000000000E+00 0. -1.
        -11    1    3    3    0    0 -0.84591194708E+01 -0.87354505465E+01 -0.36676583852E+02  0.38639831800E+02  0.00000000000E+00 0.  1.
         22    1    1    2    0    0  0.72466926057E+01 -0.88027613022E+01  0.49878593964E+01  0.12445155749E+02  0.00000000000E+00 0.  1.
<mgrwt>
<rscale>  0 0.58601482E+02</rscale>
<asrwt>0</asrwt>
<pdfrwt beam="1">  1        2 0.11466296E-01 0.10113135E+03</pdfrwt>
<pdfrwt beam="2">  1       -2 0.65505553E-02 0.10113135E+03</pdfrwt>
<totfact> 0.60776182E+04</totfact>
</mgrwt>
</event>
<event>
 6    1  0.1535970E-002  0.9393800E+02  0.7546771E-02  0.1421884E+00
          2   -1    0    0  501    0  0.00000000000E+00  0.00000000000E+00  0.23564986684E+03  0.23564986684E+03  0.00000000000E+00 0. -1.
         -2   -1    0    0    0  501 -0.00000000000E+00 -0.00000000000E+00 -0.13414969770E+02  0.13414969770E+02  0.00000000000E+00 0.  1.
         23    2    1    2    0    0  0.10700171469E+02 -0.92851804365E+00  0.21825238707E+03  0.23760987257E+03  0.93321976328E+02 0.  0.
         11    1    3    3    0    0  0.37170534765E+02  0.27993261616E+02  0.16528832117E+03  0.17171342541E+03  0.00000000000E+00 0. -1.
        -11    1    3    3    0    0 -0.26470363296E+02 -0.28921779659E+02  0.52964065895E+02  0.65896447156E+02  0.00000000000E+00 0.  1.
         22    1    1    2    0    0 -0.10700171469E+02  0.92851804365E+00  0.39825099996E+01  0.11454964039E+02  0.00000000000E+00 0.  1.
<mgrwt>
<rscale>  0 0.54624303E+02</rscale>
<asrwt>0</asrwt>
<pdfrwt beam="1">  1        2 0.36253823E-01 0.93937996E+02</pdfrwt>
<pdfrwt beam="2">  1       -2 0.20638417E-02 0.93937996E+02</pdfrwt>
<totfact> 0.90539128E+04</totfact>
</mgrwt>
</event>
<event>
 6    1  0.1535970E-002  0.9145439E+02  0.7546771E-02  0.1408322E+00
          2   -1    0    0  501    0  0.00000000000E+00  0.00000000000E+00  0.18731971939E+03  0.18731971939E+03  0.00000000000E+00 0.  1.
         -2   -1    0    0    0  501 -0.00000000000E+00 -0.00000000000E+00 -0.47116454129E+02  0.47116454129E+02  0.00000000000E+00 0. -1.
         23    2    1    2    0    0  0.14332804229E+02  0.89219541687E+00  0.17463338435E+03  0.19713123563E+03  0.90319875115E+02 0.  0.
         13    1    3    3    0    0  0.44822790546E+02 -0.20144898012E+02  0.65517533387E+02  0.81899002737E+02  0.00000000000E+00 0. -1.
        -13    1    3    3    0    0 -0.30489986317E+02  0.21037093428E+02  0.10911585097E+03  0.11523223289E+03  0.00000000000E+00 0.  1.
         22    1    1    2    0    0 -0.14332804229E+02 -0.89219541687E+00 -0.34430119095E+02  0.37304937885E+02  0.00000000000E+00 0. -1.
<mgrwt>
<rscale>  0 0.57569990E+02</rscale>
<asrwt>0</asrwt>
<pdfrwt beam="1">  1        2 0.28818418E-01 0.91454388E+02</pdfrwt>
<pdfrwt beam="2">  1       -2 0.72486854E-02 0.91454388E+02</pdfrwt>
<totfact> 0.18124224E+04</totfact>
</mgrwt>
</event>
<event>
 6    1  0.1535970E-002  0.9304050E+02  0.7546771E-02  0.1413088E+00
         -2   -1    0    0    0  501 -0.00000000000E+00  0.00000000000E+00  0.11423038055E+02  0.11423038055E+02  0.00000000000E+00 0.  1.
          2   -1    0    0  501    0  0.00000000000E+00 -0.00000000000E+00 -0.28752711410E+03  0.28752711410E+03  0.00000000000E+00 0. -1.
         23    2    1    2    0    0 -0.90791572432E+01  0.88255739807E+01 -0.26853979767E+03  0.28420090947E+03  0.92174899847E+02 0.  0.
         13    1    3    3    0    0 -0.31478720388E+02  0.34853243658E+02 -0.21864047929E+03  0.22362763160E+03  0.00000000000E+00 0. -1.
        -13    1    3    3    0    0  0.22399563145E+02 -0.26027669678E+02 -0.49899318383E+02  0.60573277879E+02  0.00000000000E+00 0.  1.
         22    1    1    2    0    0  0.90791572432E+01 -0.88255739807E+01 -0.75642783799E+01  0.14749242684E+02  0.00000000000E+00 0. -1.
<mgrwt>
<rscale>  0 0.56510364E+02</rscale>
<asrwt>0</asrwt>
<pdfrwt beam="1">  1        2 0.44234933E-01 0.93040497E+02</pdfrwt>
<pdfrwt beam="2">  1       -2 0.17573908E-02 0.93040497E+02</pdfrwt>
<totfact> 0.92406451E+04</totfact>
</mgrwt>
</event>
<event>
 6    1  0.1535970E-002  0.7582035E+02  0.7546771E-02  0.1426532E+00
         -2   -1    0    0    0  501 -0.00000000000E+00  0.00000000000E+00  0.51864931292E+02  0.51864931292E+02  0.00000000000E+00 0.  1.
          2   -1    0    0  501    0  0.00000000000E+00 -0.00000000000E+00 -0.55846483975E+02  0.55846483975E+02  0.00000000000E+00 0. -1.
         23    2    1    2    0    0  0.14101914049E+02 -0.12770429095E+02 -0.24547660981E+02  0.79695122691E+02  0.73394666577E+02 0.  0.
         13    1    3    3    0    0 -0.17205625030E+02 -0.11311567907E+02  0.17657753592E+02  0.27125290102E+02  0.00000000000E+00 0.  1.
        -13    1    3    3    0    0  0.31307539080E+02 -0.14588611878E+01 -0.42205414573E+02  0.52569832589E+02  0.00000000000E+00 0. -1.
         22    1    1    2    0    0 -0.14101914049E+02  0.12770429095E+02  0.20566108299E+02  0.28016292576E+02  0.00000000000E+00 0.  1.
<mgrwt>
<rscale>  0 0.53662397E+02</rscale>
<asrwt>0</asrwt>
<pdfrwt beam="1">  1        2 0.85917668E-02 0.75820346E+02</pdfrwt>
<pdfrwt beam="2">  1       -2 0.79792202E-02 0.75820346E+02</pdfrwt>
<totfact> 0.61277894E+04</totfact>
</mgrwt>
</event>
<event>
 6    1  0.1535970E-002  0.1079280E+03  0.7546771E-02  0.1360184E+00
          2   -1    0    0  501    0  0.00000000000E+00  0.00000000000E+00  0.38187203735E+03  0.38187203735E+03  0.00000000000E+00 0.  1.
         -2   -1    0    0    0  501 -0.00000000000E+00 -0.00000000000E+00 -0.10895159303E+02  0.10895159303E+02  0.00000000000E+00 0. -1.
         23    2    1    2    0    0 -0.62531038933E+01 -0.18014405574E+02  0.33628602250E+03  0.35318089125E+03  0.10623009414E+03 0.  0.
         11    1    3    3    0    0 -0.40747585214E+02  0.26522791541E+02  0.11538158641E+03  0.12520676760E+03  0.00000000000E+00 0. -1.
        -11    1    3    3    0    0  0.34494481321E+02 -0.44537197115E+02  0.22090443609E+03  0.22797412365E+03  0.00000000000E+00 0.  1.
         22    1    1    2    0    0  0.62531038933E+01  0.18014405574E+02  0.34690855542E+02  0.39586305394E+02  0.00000000000E+00 0.  1.
<mgrwt>
<rscale>  0 0.69973175E+02</rscale>
<asrwt>0</asrwt>
<pdfrwt beam="1">  1        2 0.58749534E-01 0.10792800E+03</pdfrwt>
<pdfrwt beam="2">  1       -2 0.16761786E-02 0.10792800E+03</pdfrwt>
<totfact> 0.74951085E+04</totfact>
</mgrwt>
</event>
<event>
 6    1  0.1535970E-002  0.9342446E+02  0.7546771E-02  0.1367770E+00
          2   -1    0    0  501    0  0.00000000000E+00  0.00000000000E+00  0.20286755801E+04  0.20286755801E+04  0.00000000000E+00 0. -1.
         -2   -1    0    0    0  501 -0.00000000000E+00 -0.00000000000E+00 -0.25166955423E+01  0.25166955423E+01  0.00000000000E+00 0.  1.
         23    2    1    2    0    0 -0.21402029733E+01  0.25812030022E+02  0.19053059176E+04  0.19075950225E+04  0.89762402198E+02 0.  0.
         13    1    3    3    0    0  0.20849758430E+02  0.53432194476E+02  0.12201402920E+04  0.12214876356E+04  0.00000000000E+00 0. -1.
        -13    1    3    3    0    0 -0.22989961403E+02 -0.27620164454E+02  0.68516562563E+03  0.68610738690E+03  0.00000000000E+00 0.  1.
         22    1    1    2    0    0  0.21402029733E+01 -0.25812030022E+02  0.12085296693E+03  0.12359725312E+03  0.00000000000E+00 0.  1.
<mgrwt>
<rscale>  0 0.67791140E+02</rscale>
<asrwt>0</asrwt>
<pdfrwt beam="1">  1        2 0.31210263E+00 0.93424463E+02</pdfrwt>
<pdfrwt beam="2">  1       -2 0.38718555E-03 0.93424463E+02</pdfrwt>
<totfact> 0.55814980E+04</totfact>
</mgrwt>
</event>
<event>
 6    1  0.1535970E-002  0.9066069E+02  0.7546771E-02  0.1423978E+00
          1   -1    0    0  501    0  0.00000000000E+00  0.00000000000E+00  0.20510544184E+04  0.20510544184E+04  0.00000000000E+00 0. -1.
         -1   -1    0    0    0  501 -0.00000000000E+00 -0.00000000000E+00 -0.16075746427E+01  0.16075746427E+01  0.00000000000E+00 0.  1.
         23    2    1    2    0    0 -0.57484170334E+01 -0.10041641726E+02  0.19919713893E+04  0.19940334443E+04  0.89919309286E+02 0.  0.
         13    1    3    3    0    0 -0.61640520500E+01  0.18903792293E+02  0.10652136268E+03  0.10836119973E+03  0.00000000000E+00 0.  1.
        -13    1    3    3    0    0  0.41563501657E+00 -0.28945434019E+02  0.18854500267E+04  0.18856722446E+04  0.00000000000E+00 0. -1.
         22    1    1    2    0    0  0.57484170334E+01  0.10041641726E+02  0.57475454461E+02  0.58628548783E+02  0.00000000000E+00 0.  1.
<mgrwt>
<rscale>  0 0.54188019E+02</rscale>
<asrwt>0</asrwt>
<pdfrwt beam="1">  1        1 0.31554474E+00 0.90660692E+02</pdfrwt>
<pdfrwt beam="2">  1       -1 0.24732082E-03 0.90660692E+02</pdfrwt>
<totfact> 0.40455671E+04</totfact>
</mgrwt>
</event>
<event>
 6    1  0.1535970E-002  0.9123233E+02  0.7546771E-02  0.1397636E+00
          2   -1    0    0  501    0  0.00000000000E+00  0.00000000000E+00  0.37626891840E+03  0.37626891840E+03  0.00000000000E+00 0. -1.
         -2   -1    0    0    0  501 -0.00000000000E+00 -0.00000000000E+00 -0.78011633302E+01  0.78011633302E+01  0.00000000000E+00 0.  1.
         23    2    1    2    0    0  0.53929343111E+01  0.16248687281E+02  0.30890756682E+03  0.32209815580E+03  0.89611570423E+02 0.  0.
         13    1    3    3    0    0 -0.22835124375E+01 -0.37033391556E+02  0.11347392595E+03  0.11938600584E+03  0.00000000000E+00 0. -1.
        -13    1    3    3    0    0  0.76764467486E+01  0.53282078837E+02  0.19543364087E+03  0.20271214996E+03  0.00000000000E+00 0.  1.
         22    1    1    2    0    0 -0.53929343111E+01 -0.16248687281E+02  0.59560188246E+02  0.61971925924E+02  0.00000000000E+00 0.  1.
<mgrwt>
<rscale>  0 0.60046707E+02</rscale>
<asrwt>0</asrwt>
<pdfrwt beam="1">  1        2 0.57887512E-01 0.91232325E+02</pdfrwt>
<pdfrwt beam="2">  1       -2 0.12001793E-02 0.91232325E+02</pdfrwt>
<totfact> 0.11977640E+05</totfact>
</mgrwt>
</event>
<event>
 6    1  0.1535970E-002  0.9113546E+02  0.7546771E-02  0.1398878E+00
          2   -1    0    0  501    0  0.00000000000E+00  0.00000000000E+00  0.42857102732E+03  0.42857102732E+03  0.00000000000E+00 0.  1.
         -2   -1    0    0    0  501 -0.00000000000E+00 -0.00000000000E+00 -0.69504892040E+01  0.69504892040E+01  0.00000000000E+00 0. -1.
         23    2    1    2    0    0 -0.13879950188E+02  0.95349698015E+01  0.37615113522E+03  0.38703404117E+03  0.89566198043E+02 0.  0.
         11    1    3    3    0    0 -0.41014634543E+02 -0.11892434722E+01  0.84587400316E+02  0.94014056603E+02  0.00000000000E+00 0. -1.
        -11    1    3    3    0    0  0.27134684355E+02  0.10724213274E+02  0.29156373490E+03  0.29301998456E+03  0.00000000000E+00 0.  1.
         22    1    1    2    0    0  0.13879950188E+02 -0.95349698015E+01  0.45469402895E+02  0.48487475352E+02  0.00000000000E+00 0.  1.
<mgrwt>
<rscale>  0 0.59751365E+02</rscale>
<asrwt>0</asrwt>
<pdfrwt beam="1">  1        2 0.65933984E-01 0.91135462E+02</pdfrwt>
<pdfrwt beam="2">  1       -2 0.10693064E-02 0.91135462E+02</pdfrwt>
<totfact> 0.12299527E+05</totfact>
</mgrwt>
</event>
<event>
 6    1  0.1535970E-002  0.1065540E+03  0.7546771E-02  0.1304904E+00
         -2   -1    0    0    0  501 -0.00000000000E+00  0.00000000000E+00  0.17047709753E+02  0.17047709753E+02  0.00000000000E+00 0.  1.
          2   -1    0    0  501    0  0.00000000000E+00 -0.00000000000E+00 -0.60595891877E+03  0.60595891877E+03  0.00000000000E+00 0. -1.
         23    2    1    2    0    0  0.46613942717E+02 -0.23562568352E+02 -0.54334151356E+03  0.55369103557E+03  0.92874690975E+02 0.  0.
         13    1    3    3    0    0 -0.14091800161E+02 -0.41006862789E+02 -0.21463519248E+03  0.21897124807E+03  0.00000000000E+00 0. -1.
        -13    1    3    3    0    0  0.60705742877E+02  0.17444294437E+02 -0.32870632108E+03  0.33471978750E+03  0.00000000000E+00 0.  1.
         22    1    1    2    0    0 -0.46613942717E+02  0.23562568352E+02 -0.45569695452E+02  0.69315592953E+02  0.00000000000E+00 0.  1.
<mgrwt>
<rscale>  0 0.89157740E+02</rscale>
<asrwt>0</asrwt>
<pdfrwt beam="1">  1        2 0.93224438E-01 0.10655404E+03</pdfrwt>
<pdfrwt beam="2">  1       -2 0.26227249E-02 0.10655404E+03</pdfrwt>
<totfact> 0.23745586E+04</totfact>
</mgrwt>
</event>
<event>
 6    1  0.1535970E-002  0.9185689E+02  0.7546771E-02  0.1430440E+00
          2   -1    0    0  501    0  0.00000000000E+00  0.00000000000E+00  0.11916665750E+04  0.11916665750E+04  0.00000000000E+00 0. -1.
         -2   -1    0    0    0  501 -0.00000000000E+00 -0.00000000000E+00 -0.22991409925E+01  0.22991409925E+01  0.00000000000E+00 0.  1.
         23    2    1    2    0    0  0.16797835282E+00 -0.10081001410E+02  0.11318509189E+04  0.11355721862E+04  0.91301877068E+02 0.  0.
         11    1    3    3    0    0  0.31927475858E+02  0.12205537816E+02  0.19895788401E+03  0.20187267888E+03  0.00000000000E+00 0.  1.
        -11    1    3    3    0    0 -0.31759497505E+02 -0.22286539226E+02  0.93289303486E+03  0.93369950734E+03  0.00000000000E+00 0. -1.
         22    1    1    2    0    0 -0.16797835282E+00  0.10081001410E+02  0.57516515157E+02  0.58393529795E+02  0.00000000000E+00 0.  1.
<mgrwt>
<rscale>  0 0.52871883E+02</rscale>
<asrwt>0</asrwt>
<pdfrwt beam="1">  1        2 0.18333283E+00 0.91856886E+02</pdfrwt>
<pdfrwt beam="2">  1       -2 0.35371495E-03 0.91856886E+02</pdfrwt>
<totfact> 0.16952605E+05</totfact>
</mgrwt>
</event>
<event>
 6    1  0.1535970E-002  0.8977105E+02  0.7546771E-02  0.1390151E+00
         -2   -1    0    0    0  501 -0.00000000000E+00  0.00000000000E+00  0.46922395603E+01  0.46922395603E+01  0.00000000000E+00 0.  1.
          2   -1    0    0  501    0  0.00000000000E+00 -0.00000000000E+00 -0.64496669517E+03  0.64496669517E+03  0.00000000000E+00 0. -1.
         23    2    1    2    0    0 -0.13794054863E+01 -0.20205949740E+02 -0.52182486669E+03  0.52949035198E+03  0.87456607424E+02 0.  0.
         11    1    3    3    0    0  0.44710426899E+01 -0.27665351271E+02 -0.51877564350E+03  0.51953202998E+03  0.00000000000E+00 0. -1.
        -11    1    3    3    0    0 -0.58504481762E+01  0.74594015305E+01 -0.30492231874E+01  0.99583220023E+01  0.00000000000E+00 0.  1.
         22    1    1    2    0    0  0.13794054863E+01  0.20205949740E+02 -0.11844958892E+03  0.12016858275E+03  0.00000000000E+00 0. -1.
<mgrwt>
<rscale>  0 0.61869194E+02</rscale>
<asrwt>0</asrwt>
<pdfrwt beam="1">  1        2 0.99225589E-01 0.89771050E+02</pdfrwt>
<pdfrwt beam="2">  1       -2 0.72188342E-03 0.89771050E+02</pdfrwt>
<totfact> 0.13675382E+05</totfact>
</mgrwt>
</event>
<event>
 6    1  0.1535970E-002  0.1031092E+03  0.7546771E-02  0.1345759E+00
         -1   -1    0    0    0  501 -0.00000000000E+00  0.00000000000E+00  0.87438976871E+01  0.87438976871E+01  0.00000000000E+00 0.  1.
          1   -1    0    0  501    0  0.00000000000E+00 -0.00000000000E+00 -0.49185513392E+03  0.49185513392E+03  0.00000000000E+00 0. -1.
         23    2    1    2    0    0 -0.17029580954E+02 -0.22152221081E+02 -0.37150719551E+03  0.38555039219E+03  0.99251101127E+02 0.  0.
         13    1    3    3    0    0 -0.73298492511E+01  0.36424938564E+02 -0.21444528980E+03  0.21764026547E+03  0.00000000000E+00 0.  1.
        -13    1    3    3    0    0 -0.96997317030E+01 -0.58577159645E+02 -0.15706190572E+03  0.16791012672E+03  0.00000000000E+00 0. -1.
         22    1    1    2    0    0  0.17029580954E+02  0.22152221081E+02 -0.11160404072E+03  0.11504863941E+03  0.00000000000E+00 0. -1.
<mgrwt>
<rscale>  0 0.74393591E+02</rscale>
<asrwt>0</asrwt>
<pdfrwt beam="1">  1        1 0.75670023E-01 0.10310921E+03</pdfrwt>
<pdfrwt beam="2">  1       -1 0.13452150E-02 0.10310921E+03</pdfrwt>
<totfact> 0.50634590E+04</totfact>
</mgrwt>
</event>
<event>
 6    1  0.1535970E-002  0.9056167E+02  0.7546771E-02  0.1380225E+00
          2   -1    0    0  501    0  0.00000000000E+00  0.00000000000E+00  0.17722523936E+03  0.17722523936E+03  0.00000000000E+00 0. -1.
         -2   -1    0    0    0  501 -0.00000000000E+00 -0.00000000000E+00 -0.18250364318E+02  0.18250364318E+02  0.00000000000E+00 0.  1.
         23    2    1    2    0    0  0.20512372354E+02 -0.10763905460E+02  0.12795212765E+03  0.15675829571E+03  0.87548827656E+02 0.  0.
         11    1    3    3    0    0  0.82660577815E+01  0.35618943141E+02  0.84338443031E+02  0.91923934830E+02  0.00000000000E+00 0. -1.
        -11    1    3    3    0    0  0.12246314572E+02 -0.46382848601E+02  0.43613684622E+02  0.64834360884E+02  0.00000000000E+00 0.  1.
         22    1    1    2    0    0 -0.20512372354E+02  0.10763905460E+02  0.31022747387E+02  0.38717307961E+02  0.00000000000E+00 0.  1.
<mgrwt>
<rscale>  0 0.64404555E+02</rscale>
<asrwt>0</asrwt>
<pdfrwt beam="1">  1        2 0.27265420E-01 0.90561671E+02</pdfrwt>
<pdfrwt beam="2">  1       -2 0.28077485E-02 0.90561671E+02</pdfrwt>
<totfact> 0.78224923E+04</totfact>
</mgrwt>
</event>
<event>
 6    1  0.1535970E-002  0.9928443E+02  0.7546771E-02  0.1407868E+00
          2   -1    0    0  501    0  0.00000000000E+00  0.00000000000E+00  0.27555563007E+02  0.27555563007E+02  0.00000000000E+00 0. -1.
         -2   -1    0    0    0  501 -0.00000000000E+00 -0.00000000000E+00 -0.13208727538E+03  0.13208727538E+03  0.00000000000E+00 0.  1.
         23    2    1    2    0    0  0.78941105362E+01 -0.80906122081E+01 -0.65345569586E+02  0.11885891050E+03  0.98638847087E+02 0.  0.
         11    1    3    3    0    0 -0.34356940925E+02 -0.27958289740E+02 -0.55731241759E+02  0.71190144423E+02  0.00000000000E+00 0.  1.
        -11    1    3    3    0    0  0.42251051462E+02  0.19867677532E+02 -0.96143278274E+01  0.47668766081E+02  0.00000000000E+00 0. -1.
         22    1    1    2    0    0 -0.78941105362E+01  0.80906122081E+01 -0.39186142786E+02  0.40783927882E+02  0.00000000000E+00 0.  1.
<mgrwt>
<rscale>  0 0.57672208E+02</rscale>
<asrwt>0</asrwt>
<pdfrwt beam="1">  1        2 0.42393174E-02 0.99284425E+02</pdfrwt>
<pdfrwt beam="2">  1       -2 0.20321119E-01 0.99284425E+02</pdfrwt>
<totfact> 0.35201266E+04</totfact>
</mgrwt>
</event>
<event>
 6    1  0.1535970E-002  0.9231346E+02  0.7546771E-02  0.1427066E+00
         -1   -1    0    0    0  501 -0.00000000000E+00  0.00000000000E+00  0.26923451451E+03  0.26923451451E+03  0.00000000000E+00 0.  1.
          1   -1    0    0  501    0  0.00000000000E+00 -0.00000000000E+00 -0.10525082997E+02  0.10525082997E+02  0.00000000000E+00 0. -1.
         23    2    1    2    0    0  0.36531352026E+01  0.97968046290E+01  0.20199638206E+03  0.22209077789E+03  0.91719422593E+02 0.  0.
         11    1    3    3    0    0 -0.70729982904E+01 -0.13916784627E+02  0.19433353301E+03  0.19495955030E+03  0.00000000000E+00 0.  1.
        -11    1    3    3    0    0  0.10726133493E+02  0.23713589256E+02  0.76628490461E+01  0.27131227591E+02  0.00000000000E+00 0. -1.
         22    1    1    2    0    0 -0.36531352026E+01 -0.97968046290E+01  0.56713049458E+02  0.57668819621E+02  0.00000000000E+00 0.  1.
<mgrwt>
<rscale>  0 0.53553469E+02</rscale>
<asrwt>0</asrwt>
<pdfrwt beam="1">  1        1 0.16192437E-02 0.92313462E+02</pdfrwt>
<pdfrwt beam="2">  1       -1 0.41420689E-01 0.92313462E+02</pdfrwt>
<totfact> 0.41172354E+04</totfact>
</mgrwt>
</event>
<event>
 6    1  0.1535970E-002  0.9496195E+02  0.7546771E-02  0.1422916E+00
          1   -1    0    0  501    0  0.00000000000E+00  0.00000000000E+00  0.10860734899E+04  0.10860734899E+04  0.00000000000E+00 0. -1.
         -1   -1    0    0    0  501 -0.00000000000E+00 -0.00000000000E+00 -0.32571882198E+01  0.32571882198E+01  0.00000000000E+00 0.  1.
         23    2    1    2    0    0 -0.84279942235E+01  0.58047442997E+01  0.10609142730E+04  0.10651557944E+04  0.94408927167E+02 0.  0.
         11    1    3    3    0    0  0.14532196121E+02 -0.43165108562E+00  0.24647345893E+02  0.28615777228E+02  0.00000000000E+00 0.  1.
        -11    1    3    3    0    0 -0.22960190344E+02  0.62363953853E+01  0.10362669271E+04  0.10365400172E+04  0.00000000000E+00 0. -1.
         22    1    1    2    0    0  0.84279942235E+01 -0.58047442997E+01  0.21902028696E+02  0.24174883744E+02  0.00000000000E+00 0.  1.
<mgrwt>
<rscale>  0 0.54408794E+02</rscale>
<asrwt>0</asrwt>
<pdfrwt beam="1">  1        1 0.16708794E+00 0.94961949E+02</pdfrwt>
<pdfrwt beam="2">  1       -1 0.50110675E-03 0.94961949E+02</pdfrwt>
<totfact> 0.63445615E+04</totfact>
</mgrwt>
</event>
<event>
 6    1  0.1535970E-002  0.9853102E+02  0.7546771E-02  0.1399917E+00
         -2   -1    0    0    0  501 -0.00000000000E+00  0.00000000000E+00  0.14598277547E+02  0.14598277547E+02  0.00000000000E+00 0.  1.
          2   -1    0    0  501    0  0.00000000000E+00 -0.00000000000E+00 -0.28481843010E+03  0.28481843010E+03  0.00000000000E+00 0. -1.
         23    2    1    2    0    0 -0.62928899909E+01  0.11498027592E+02 -0.26873101298E+03  0.28622494357E+03  0.97655291092E+02 0.  0.
         11    1    3    3    0    0 -0.18661374304E+02  0.41786510583E+02 -0.62769836616E+02  0.77681476212E+02  0.00000000000E+00 0.  1.
        -11    1    3    3    0    0  0.12368484313E+02 -0.30288482991E+02 -0.20596117637E+03  0.20854346736E+03  0.00000000000E+00 0. -1.
         22    1    1    2    0    0  0.62928899909E+01 -0.11498027592E+02 -0.14891395725E+01  0.13191764083E+02  0.00000000000E+00 0. -1.
<mgrwt>
<rscale>  0 0.59505790E+02</rscale>
<asrwt>0</asrwt>
<pdfrwt beam="1">  1        2 0.43818214E-01 0.98531015E+02</pdfrwt>
<pdfrwt beam="2">  1       -2 0.22458892E-02 0.98531015E+02</pdfrwt>
<totfact> 0.66115152E+04</totfact>
</mgrwt>
</event>
<event>
 6    1  0.1535970E-002  0.9286100E+02  0.7546771E-02  0.1411691E+00
         -1   -1    0    0    0  501 -0.00000000000E+00  0.00000000000E+00  0.61337215058E+01  0.61337215058E+01  0.00000000000E+00 0.  1.
          1   -1    0    0  501    0  0.00000000000E+00 -0.00000000000E+00 -0.72334665783E+03  0.72334665783E+03  0.00000000000E+00 0. -1.
         23    2    1    2    0    0  0.12964244595E+02 -0.11494907001E+01 -0.70663043496E+03  0.71270592549E+03  0.91944394333E+02 0.  0.
         13    1    3    3    0    0  0.45359461832E+02  0.58445625530E+01 -0.58034063753E+03  0.58213992756E+03  0.00000000000E+00 0. -1.
        -13    1    3    3    0    0 -0.32395217238E+02 -0.69940532532E+01 -0.12628979743E+03  0.13056599793E+03  0.00000000000E+00 0.  1.
         22    1    1    2    0    0 -0.12964244595E+02  0.11494907001E+01 -0.10582501369E+02  0.16774453851E+02  0.00000000000E+00 0.  1.
<mgrwt>
<rscale>  0 0.56818129E+02</rscale>
<asrwt>0</asrwt>
<pdfrwt beam="1">  1        1 0.11128402E+00 0.92860996E+02</pdfrwt>
<pdfrwt beam="2">  1       -1 0.94365017E-03 0.92860996E+02</pdfrwt>
<totfact> 0.49136011E+04</totfact>
</mgrwt>
</event>
<event>
 6    1  0.1535970E-002  0.1012592E+03  0.7546771E-02  0.1340039E+00
         -2   -1    0    0    0  501 -0.00000000000E+00  0.00000000000E+00  0.69188764486E+03  0.69188764486E+03  0.00000000000E+00 0.  1.
          2   -1    0    0  501    0  0.00000000000E+00 -0.00000000000E+00 -0.64825302446E+01  0.64825302446E+01  0.00000000000E+00 0. -1.
         23    2    1    2    0    0 -0.11069507203E+02  0.30620740747E+02  0.53118803020E+03  0.54075332043E+03  0.95881522563E+02 0.  0.
         13    1    3    3    0    0 -0.91776087607E+01 -0.29764457997E+01  0.47612011219E+03  0.47621785872E+03  0.00000000000E+00 0.  1.
        -13    1    3    3    0    0 -0.18918984419E+01  0.33597186547E+02  0.55067918016E+02  0.64535461710E+02  0.00000000000E+00 0. -1.
         22    1    1    2    0    0  0.11069507203E+02 -0.30620740747E+02  0.15421708441E+03  0.15761685468E+03  0.00000000000E+00 0.  1.
<mgrwt>
<rscale>  0 0.76251354E+02</rscale>
<asrwt>0</asrwt>
<pdfrwt beam="1">  1        2 0.99731289E-03 0.10125922E+03</pdfrwt>
<pdfrwt beam="2">  1       -2 0.10644419E+00 0.10125922E+03</pdfrwt>
<totfact> 0.96756031E+03</totfact>
</mgrwt>
</event>
<event>
 6    1  0.1535970E-002  0.8980602E+02  0.7546771E-02  0.1433044E+00
         -2   -1    0    0    0  501 -0.00000000000E+00  0.00000000000E+00  0.15571110383E+02  0.15571110383E+02  0.00000000000E+00 0.  1.
          2   -1    0    0  501    0  0.00000000000E+00 -0.00000000000E+00 -0.19453870173E+03  0.19453870173E+03  0.00000000000E+00 0. -1.
         23    2    1    2    0    0  0.87883830581E+01 -0.55090722082E+01 -0.17839156259E+03  0.19972148393E+03  0.89205022195E+02 0.  0.
         13    1    3    3    0    0 -0.21972731982E+02  0.60874488997E+01 -0.16085362205E+03  0.16246152071E+03  0.00000000000E+00 0. -1.
        -13    1    3    3    0    0  0.30761115041E+02 -0.11596521108E+02 -0.17537940537E+02  0.37259963213E+02  0.00000000000E+00 0.  1.
         22    1    1    2    0    0 -0.87883830581E+01  0.55090722082E+01 -0.57602875638E+00  0.10388328186E+02  0.00000000000E+00 0. -1.
<mgrwt>
<rscale>  0 0.52353816E+02</rscale>
<asrwt>0</asrwt>
<pdfrwt beam="1">  1        2 0.29929029E-01 0.89806022E+02</pdfrwt>
<pdfrwt beam="2">  1       -2 0.23955556E-02 0.89806022E+02</pdfrwt>
<totfact> 0.88939047E+04</totfact>
</mgrwt>
</event>
<event>
 6    1  0.1535970E-002  0.9204204E+02  0.7546771E-02  0.1395033E+00
          2   -1    0    0  501    0  0.00000000000E+00  0.00000000000E+00  0.74052839129E+03  0.74052839129E+03  0.00000000000E+00 0. -1.
         -2   -1    0    0    0  501 -0.00000000000E+00 -0.00000000000E+00 -0.40535438491E+01  0.40535438491E+01  0.00000000000E+00 0.  1.
         23    2    1    2    0    0  0.14177470438E+02 -0.10049118625E+02  0.63336973372E+03  0.64002262218E+03  0.90386679571E+02 0.  0.
         11    1    3    3    0    0  0.94154616811E+01  0.10355685604E+02  0.60279336886E+03  0.60295583311E+03  0.00000000000E+00 0. -1.
        -11    1    3    3    0    0  0.47620087569E+01 -0.20404804229E+02  0.30576364865E+02  0.37066789062E+02  0.00000000000E+00 0.  1.
         22    1    1    2    0    0 -0.14177470438E+02  0.10049118625E+02  0.10310511372E+03  0.10455931297E+03  0.00000000000E+00 0. -1.
<mgrwt>
<rscale>  0 0.60671947E+02</rscale>
<asrwt>0</asrwt>
<pdfrwt beam="1">  1        2 0.11392734E+00 0.92042041E+02</pdfrwt>
<pdfrwt beam="2">  1       -2 0.62362272E-03 0.92042041E+02</pdfrwt>
<totfact> 0.14360564E+05</totfact>
</mgrwt>
</event>
<event>
 6    1  0.1535970E-002  0.9970067E+02  0.7546771E-02  0.1345455E+00
         -2   -1    0    0    0  501 -0.00000000000E+00  0.00000000000E+00  0.70221649582E+01  0.70221649582E+01  0.00000000000E+00 0. -1.
          2   -1    0    0  501    0  0.00000000000E+00 -0.00000000000E+00 -0.82210382295E+03  0.82210382295E+03  0.00000000000E+00 0.  1.
         23    2    1    2    0    0 -0.21939799400E+02  0.21997410808E+02 -0.75433805710E+03  0.76089823747E+03  0.94736384366E+02 0.  0.
         13    1    3    3    0    0 -0.66685117155E+01  0.12128867343E+02 -0.11945763815E+02  0.18283318754E+02  0.00000000000E+00 0. -1.
        -13    1    3    3    0    0 -0.15271287684E+02  0.98685434645E+01 -0.74239229328E+03  0.74261491872E+03  0.00000000000E+00 0.  1.
         22    1    1    2    0    0  0.21939799400E+02 -0.21997410808E+02 -0.60743600894E+02  0.68227750436E+02  0.00000000000E+00 0. -1.
<mgrwt>
<rscale>  0 0.74490865E+02</rscale>
<asrwt>0</asrwt>
<pdfrwt beam="1">  1        2 0.12647743E+00 0.99700669E+02</pdfrwt>
<pdfrwt beam="2">  1       -2 0.10803338E-02 0.99700669E+02</pdfrwt>
<totfact> 0.58805727E+04</totfact>
</mgrwt>
</event>
<event>
 6    1  0.1535970E-002  0.9303874E+02  0.7546771E-02  0.1413480E+00
          2   -1    0    0  501    0  0.00000000000E+00  0.00000000000E+00  0.17836555956E+03  0.17836555956E+03  0.00000000000E+00 0.  1.
         -2   -1    0    0    0  501 -0.00000000000E+00 -0.00000000000E+00 -0.17134429326E+02  0.17134429326E+02  0.00000000000E+00 0. -1.
         23    2    1    2    0    0  0.11920406416E+02 -0.40381340123E+01  0.15647461819E+03  0.18204536060E+03  0.92183537370E+02 0.  0.
         13    1    3    3    0    0  0.49009399417E+02 -0.12953884485E+02  0.61516908092E+02  0.79712322358E+02  0.00000000000E+00 0. -1.
        -13    1    3    3    0    0 -0.37088993001E+02  0.89157504726E+01  0.94957710102E+02  0.10233303824E+03  0.00000000000E+00 0.  1.
         22    1    1    2    0    0 -0.11920406416E+02  0.40381340123E+01  0.47565120351E+01  0.13454628281E+02  0.00000000000E+00 0. -1.
<mgrwt>
<rscale>  0 0.56424557E+02</rscale>
<asrwt>0</asrwt>
<pdfrwt beam="1">  1        2 0.27440854E-01 0.93038740E+02</pdfrwt>
<pdfrwt beam="2">  1       -2 0.26360662E-02 0.93038740E+02</pdfrwt>
<totfact> 0.85462799E+04</totfact>
</mgrwt>
</event>
<event>
 6    1  0.1535970E-002  0.9467394E+02  0.7546771E-02  0.1371894E+00
          2   -1    0    0  501    0  0.00000000000E+00  0.00000000000E+00  0.31384377166E+02  0.31384377166E+02  0.00000000000E+00 0. -1.
         -2   -1    0    0    0  501 -0.00000000000E+00 -0.00000000000E+00 -0.11216428670E+03  0.11216428670E+03  0.00000000000E+00 0.  1.
         23    2    1    2    0    0 -0.19577183182E+02  0.12533516791E+02 -0.58145689061E+02  0.11110389417E+03  0.91775808347E+02 0.  0.
         11    1    3    3    0    0 -0.49072605376E+02 -0.12474567843E+02 -0.14242021046E+02  0.52598199634E+02  0.00000000000E+00 0. -1.
        -11    1    3    3    0    0  0.29495422194E+02  0.25008084634E+02 -0.43903668015E+02  0.58505694532E+02  0.00000000000E+00 0.  1.
         22    1    1    2    0    0  0.19577183182E+02 -0.12533516791E+02 -0.22634220473E+02  0.32444769701E+02  0.00000000000E+00 0.  1.
<mgrwt>
<rscale>  0 0.66643491E+02</rscale>
<asrwt>0</asrwt>
<pdfrwt beam="1">  1        2 0.48283658E-02 0.94673936E+02</pdfrwt>
<pdfrwt beam="2">  1       -2 0.17256044E-01 0.94673936E+02</pdfrwt>
<totfact> 0.38766393E+04</totfact>
</mgrwt>
</event>
<event>
 6    1  0.1535970E-002  0.9060393E+02  0.7546771E-02  0.1420348E+00
         -1   -1    0    0    0  501 -0.00000000000E+00  0.00000000000E+00  0.89970330078E+01  0.89970330078E+01  0.00000000000E+00 0.  1.
          1   -1    0    0  501    0  0.00000000000E+00 -0.00000000000E+00 -0.29469384910E+03  0.29469384910E+03  0.00000000000E+00 0. -1.
         23    2    1    2    0    0 -0.90332537903E+01  0.82829735397E+01 -0.25621219908E+03  0.27176048961E+03  0.89771183745E+02 0.  0.
         13    1    3    3    0    0 -0.46869009906E+02  0.14361042421E+02 -0.17857494074E+03  0.18518086588E+03  0.00000000000E+00 0. -1.
        -13    1    3    3    0    0  0.37835756115E+02 -0.60780688816E+01 -0.77637258343E+02  0.86579623730E+02  0.00000000000E+00 0.  1.
         22    1    1    2    0    0  0.90332537903E+01 -0.82829735397E+01 -0.29484617010E+02  0.31930392495E+02  0.00000000000E+00 0.  1.
<mgrwt>
<rscale>  0 0.54947341E+02</rscale>
<asrwt>0</asrwt>
<pdfrwt beam="1">  1        1 0.45337510E-01 0.90603933E+02</pdfrwt>
<pdfrwt beam="2">  1       -1 0.13841591E-02 0.90603933E+02</pdfrwt>
<totfact> 0.90386311E+04</totfact>
</mgrwt>
</event>
<event>
 6    1  0.1535970E-002  0.9079244E+02  0.7546771E-02  0.1427021E+00
         -2   -1    0    0    0  501 -0.00000000000E+00  0.00000000000E+00  0.30961060517E+01  0.30961060517E+01  0.00000000000E+00 0.  1.
          2   -1    0    0  501    0  0.00000000000E+00 -0.00000000000E+00 -0.21972997553E+04  0.21972997553E+04  0.00000000000E+00 0. -1.
         23    2    1    2    0    0 -0.99717428902E+01  0.46382920450E+01 -0.21823062235E+04  0.21841940667E+04  0.90123906890E+02 0.  0.
         11    1    3    3    0    0 -0.19778312898E+02 -0.13436356422E+02 -0.20623105053E+04  0.20624491115E+04  0.00000000000E+00 0. -1.
        -11    1    3    3    0    0  0.98065700076E+01  0.18074648467E+02 -0.11999571821E+03  0.12174495522E+03  0.00000000000E+00 0.  1.
         22    1    1    2    0    0  0.99717428902E+01 -0.46382920450E+01 -0.11897425722E+02  0.16201794597E+02  0.00000000000E+00 0.  1.
<mgrwt>
<rscale>  0 0.53562736E+02</rscale>
<asrwt>0</asrwt>
<pdfrwt beam="1">  1        2 0.33804802E+00 0.90792445E+02</pdfrwt>
<pdfrwt beam="2">  1       -2 0.47632132E-03 0.90792445E+02</pdfrwt>
<totfact> 0.34240563E+04</totfact>
</mgrwt>
</event>
<event>
 6    1  0.1535970E-002  0.9171154E+02  0.7546771E-02  0.1399056E+00
          2   -1    0    0  501    0  0.00000000000E+00  0.00000000000E+00  0.13866291403E+04  0.13866291403E+04  0.00000000000E+00 0. -1.
         -2   -1    0    0    0  501 -0.00000000000E+00 -0.00000000000E+00 -0.24764669700E+01  0.24764669700E+01  0.00000000000E+00 0.  1.
         23    2    1    2    0    0  0.15944285365E+02 -0.41582292317E+01  0.13069621140E+04  0.13101759326E+04  0.90219153283E+02 0.  0.
         11    1    3    3    0    0  0.40079362171E+00 -0.32663880640E+02  0.11156595612E+04  0.11161376915E+04  0.00000000000E+00 0. -1.
        -11    1    3    3    0    0  0.15543491743E+02  0.28505651408E+02  0.19130255281E+03  0.19403824110E+03  0.00000000000E+00 0.  1.
         22    1    1    2    0    0 -0.15944285365E+02  0.41582292317E+01  0.77190559266E+02  0.78929674686E+02  0.00000000000E+00 0.  1.
<mgrwt>
<rscale>  0 0.59709226E+02</rscale>
<asrwt>0</asrwt>
<pdfrwt beam="1">  1        2 0.21332694E+00 0.91711541E+02</pdfrwt>
<pdfrwt beam="2">  1       -2 0.38099603E-03 0.91711541E+02</pdfrwt>
<totfact> 0.12037684E+05</totfact>
</mgrwt>
</event>
<event>
 6    1  0.1535970E-002  0.1127693E+03  0.7546771E-02  0.1283001E+00
          2   -1    0    0  501    0  0.00000000000E+00  0.00000000000E+00  0.11351040733E+04  0.11351040733E+04  0.00000000000E+00 0. -1.
         -2   -1    0    0    0  501 -0.00000000000E+00 -0.00000000000E+00 -0.10368655591E+02  0.10368655591E+02  0.00000000000E+00 0.  1.
         23    2    1    2    0    0  0.65958956711E+02  0.61080817477E+01  0.97798010261E+03  0.98446025998E+03  0.91263518222E+02 0.  0.
         13    1    3    3    0    0  0.57919850710E+02 -0.27095672552E+02  0.83543008650E+03  0.83787368619E+03  0.00000000000E+00 0. -1.
        -13    1    3    3    0    0  0.80391060009E+01  0.33203754300E+02  0.14255001611E+03  0.14658657380E+03  0.00000000000E+00 0.  1.
         22    1    1    2    0    0 -0.65958956711E+02 -0.61080817477E+01  0.14675531510E+03  0.16101246891E+03  0.00000000000E+00 0.  1.
<mgrwt>
<rscale>  0 0.98724571E+02</rscale>
<asrwt>0</asrwt>
<pdfrwt beam="1">  1        2 0.17463130E+00 0.11276933E+03</pdfrwt>
<pdfrwt beam="2">  1       -2 0.15951787E-02 0.11276933E+03</pdfrwt>
<totfact> 0.22123139E+04</totfact>
</mgrwt>
</event>
<event>
 6    1  0.1535970E-002  0.1884215E+03  0.7546771E-02  0.1165645E+00
         -2   -1    0    0    0  501 -0.00000000000E+00  0.00000000000E+00  0.14653466993E+03  0.14653466993E+03  0.00000000000E+00 0.  1.
          2   -1    0    0  501    0  0.00000000000E+00 -0.00000000000E+00 -0.28963004793E+03  0.28963004793E+03  0.00000000000E+00 0. -1.
         23    2    1    2    0    0  0.16356473588E+03  0.21060413220E+02  0.36945768017E+02  0.19200948427E+03  0.91135549855E+02 0.  0.
         11    1    3    3    0    0  0.14861334373E+03  0.20748236853E+02  0.62380113219E+02  0.16250444238E+03  0.00000000000E+00 0.  1.
        -11    1    3    3    0    0  0.14951392147E+02  0.31217636664E+00 -0.25434345202E+02  0.29505041892E+02  0.00000000000E+00 0. -1.
         22    1    1    2    0    0 -0.16356473588E+03 -0.21060413220E+02 -0.18004114602E+03  0.24415523359E+03  0.00000000000E+00 0. -1.
<mgrwt>
<rscale>  0 0.18224803E+03</rscale>
<asrwt>0</asrwt>
<pdfrwt beam="1">  1        2 0.44558469E-01 0.18842148E+03</pdfrwt>
<pdfrwt beam="2">  1       -2 0.22543795E-01 0.18842148E+03</pdfrwt>
<totfact> 0.19154578E+03</totfact>
</mgrwt>
</event>
<event>
 6    1  0.1535970E-002  0.1049287E+03  0.7546771E-02  0.1307035E+00
          2   -1    0    0  501    0  0.00000000000E+00  0.00000000000E+00  0.57292614169E+03  0.57292614169E+03  0.00000000000E+00 0.  1.
         -2   -1    0    0    0  501 -0.00000000000E+00 -0.00000000000E+00 -0.15133997886E+02  0.15133997886E+02  0.00000000000E+00 0. -1.
         23    2    1    2    0    0  0.45107501586E+02  0.27071798674E+02  0.49567420425E+03  0.50665861995E+03  0.90788057751E+02 0.  0.
         13    1    3    3    0    0  0.28387148499E+02  0.53863614741E+02  0.42381046424E+03  0.42816168534E+03  0.00000000000E+00 0.  1.
        -13    1    3    3    0    0  0.16720353087E+02 -0.26791816066E+02  0.71863740010E+02  0.78496934613E+02  0.00000000000E+00 0. -1.
         22    1    1    2    0    0 -0.45107501586E+02 -0.27071798674E+02  0.62117939557E+02  0.81401519627E+02  0.00000000000E+00 0. -1.
<mgrwt>
<rscale>  0 0.88294398E+02</rscale>
<asrwt>0</asrwt>
<pdfrwt beam="1">  1        2 0.88142467E-01 0.10492874E+03</pdfrwt>
<pdfrwt beam="2">  1       -2 0.23283078E-02 0.10492874E+03</pdfrwt>
<totfact> 0.30008765E+04</totfact>
</mgrwt>
</event>
<event>
 6    1  0.1535970E-002  0.9836059E+02  0.7546771E-02  0.1338344E+00
          2   -1    0    0  501    0  0.00000000000E+00  0.00000000000E+00  0.96820873428E+02  0.96820873428E+02  0.00000000000E+00 0. -1.
         -2   -1    0    0    0  501 -0.00000000000E+00 -0.00000000000E+00 -0.76913666868E+02  0.76913666868E+02  0.00000000000E+00 0.  1.
         23    2    1    2    0    0 -0.36408359101E+02 -0.35830304691E+01  0.63306816532E+02  0.11697246787E+03  0.91303879991E+02 0.  0.
         11    1    3    3    0    0 -0.66031000603E+02  0.79026568823E+01  0.45120776132E+02  0.80364354444E+02  0.00000000000E+00 0.  1.
        -11    1    3    3    0    0  0.29622641502E+02 -0.11485687351E+02  0.18186040400E+02  0.36608113430E+02  0.00000000000E+00 0. -1.
         22    1    1    2    0    0  0.36408359101E+02  0.35830304691E+01 -0.43399609973E+02  0.56762072421E+02  0.00000000000E+00 0.  1.
<mgrwt>
<rscale>  0 0.76813818E+02</rscale>
<asrwt>0</asrwt>
<pdfrwt beam="1">  1        2 0.14895519E-01 0.98360588E+02</pdfrwt>
<pdfrwt beam="2">  1       -2 0.11832872E-01 0.98360588E+02</pdfrwt>
<totfact> 0.17849995E+04</totfact>
</mgrwt>
</event>
<event>
 6    1  0.1535970E-002  0.1833547E+03  0.7546771E-02  0.1171065E+00
          2   -1    0    0  501    0  0.00000000000E+00  0.00000000000E+00  0.15181670406E+04  0.15181670406E+04  0.00000000000E+00 0.  1.
         -2   -1    0    0    0  501 -0.00000000000E+00 -0.00000000000E+00 -0.43104969620E+02  0.43104969620E+02  0.00000000000E+00 0. -1.
         23    2    1    2    0    0  0.13647224107E+03 -0.79706262108E+02  0.13425895945E+04  0.13550519389E+04  0.92957931497E+02 0.  0.
         11    1    3    3    0    0  0.23259185405E+02 -0.44575481266E+02  0.19580754363E+03  0.20215973234E+03  0.00000000000E+00 0. -1.
        -11    1    3    3    0    0  0.11321305566E+03 -0.35130780842E+02  0.11467820509E+04  0.11528922066E+04  0.00000000000E+00 0.  1.
         22    1    1    2    0    0 -0.13647224107E+03  0.79706262108E+02  0.13247247652E+03  0.20622007137E+03  0.00000000000E+00 0. -1.
<mgrwt>
<rscale>  0 0.17667015E+03</rscale>
<asrwt>0</asrwt>
<pdfrwt beam="1">  1        2 0.23356412E+00 0.18335468E+03</pdfrwt>
<pdfrwt beam="2">  1       -2 0.66315350E-02 0.18335468E+03</pdfrwt>
<totfact> 0.16977538E+03</totfact>
</mgrwt>
</event>
<event>
 6    1  0.1535970E-002  0.9285987E+02  0.7546771E-02  0.1400304E+00
         -2   -1    0    0    0  501 -0.00000000000E+00  0.00000000000E+00  0.14353795091E+02  0.14353795091E+02  0.00000000000E+00 0.  1.
          2   -1    0    0  501    0  0.00000000000E+00 -0.00000000000E+00 -0.21070609203E+03  0.21070609203E+03  0.00000000000E+00 0. -1.
         23    2    1    2    0    0 -0.13415190616E+02 -0.78890964931E+01 -0.17965279618E+03  0.20223274301E+03  0.91546436231E+02 0.  0.
         13    1    3    3    0    0 -0.51652195650E+02  0.41804788260E+01 -0.86800694874E+02  0.10109295895E+03  0.00000000000E+00 0. -1.
        -13    1    3    3    0    0  0.38237005034E+02 -0.12069575319E+02 -0.92852101306E+02  0.10113978406E+03  0.00000000000E+00 0.  1.
         22    1    1    2    0    0  0.13415190616E+02  0.78890964931E+01 -0.16699500762E+02  0.22827144115E+02  0.00000000000E+00 0.  1.
<mgrwt>
<rscale>  0 0.59414709E+02</rscale>
<asrwt>0</asrwt>
<pdfrwt beam="1">  1        2 0.32416320E-01 0.92859868E+02</pdfrwt>
<pdfrwt beam="2">  1       -2 0.22082763E-02 0.92859868E+02</pdfrwt>
<totfact> 0.92317212E+04</totfact>
</mgrwt>
</event>
<event>
 6    1  0.1535970E-002  0.9241076E+02  0.7546771E-02  0.1395767E+00
         -1   -1    0    0    0  501 -0.00000000000E+00  0.00000000000E+00  0.67275025182E+01  0.67275025182E+01  0.00000000000E+00 0.  1.
          1   -1    0    0  501    0  0.00000000000E+00 -0.00000000000E+00 -0.12227997302E+04  0.12227997302E+04  0.00000000000E+00 0. -1.
         23    2    1    2    0    0 -0.86148952820E+01 -0.14621774136E+02 -0.12065177631E+04  0.12100515943E+04  0.90839063358E+02 0.  0.
         11    1    3    3    0    0 -0.37098836077E+02  0.14659260725E+02 -0.89208446620E+03  0.89297587448E+03  0.00000000000E+00 0. -1.
        -11    1    3    3    0    0  0.28483940795E+02 -0.29281034860E+02 -0.31443329691E+03  0.31707571981E+03  0.00000000000E+00 0.  1.
         22    1    1    2    0    0  0.86148952820E+01  0.14621774136E+02 -0.95544645952E+01  0.19475638457E+02  0.00000000000E+00 0.  1.
<mgrwt>
<rscale>  0 0.60494843E+02</rscale>
<asrwt>0</asrwt>
<pdfrwt beam="1">  1        1 0.18812287E+00 0.92410758E+02</pdfrwt>
<pdfrwt beam="2">  1       -1 0.10350013E-02 0.92410758E+02</pdfrwt>
<totfact> 0.18407357E+04</totfact>
</mgrwt>
</event>
<event>
 6    1  0.1535970E-002  0.9420233E+02  0.7546771E-02  0.1363545E+00
          2   -1    0    0  501    0  0.00000000000E+00  0.00000000000E+00  0.80955740120E+03  0.80955740120E+03  0.00000000000E+00 0. -1.
         -2   -1    0    0    0  501 -0.00000000000E+00 -0.00000000000E+00 -0.74806909372E+01  0.74806909372E+01  0.00000000000E+00 0.  1.
         23    2    1    2    0    0  0.17098214308E+02 -0.21034416921E+02  0.76672298902E+03  0.77248833082E+03  0.90217979000E+02 0.  0.
         11    1    3    3    0    0 -0.20438350436E+02 -0.21648656874E+01  0.60652006233E+03  0.60686818900E+03  0.00000000000E+00 0. -1.
        -11    1    3    3    0    0  0.37536564744E+02 -0.18869551234E+02  0.16020292669E+03  0.16562014182E+03  0.00000000000E+00 0.  1.
         22    1    1    2    0    0 -0.17098214308E+02  0.21034416921E+02  0.35353721248E+02  0.44549761322E+02  0.00000000000E+00 0.  1.
<mgrwt>
<rscale>  0 0.68994911E+02</rscale>
<asrwt>0</asrwt>
<pdfrwt beam="1">  1        2 0.12454722E+00 0.94202332E+02</pdfrwt>
<pdfrwt beam="2">  1       -2 0.11508762E-02 0.94202332E+02</pdfrwt>
<totfact> 0.54421828E+04</totfact>
</mgrwt>
</event>
<event>
 6    1  0.1535970E-002  0.1356688E+03  0.7546771E-02  0.1233694E+00
         -2   -1    0    0    0  501 -0.00000000000E+00  0.00000000000E+00  0.30832384582E+03  0.30832384582E+03  0.00000000000E+00 0.  1.
          2   -1    0    0  501    0  0.00000000000E+00 -0.00000000000E+00 -0.49493864656E+02  0.49493864656E+02  0.00000000000E+00 0. -1.
         23    2    1    2    0    0  0.96542317523E+02  0.28155422355E+02  0.95136922080E+02  0.16570169222E+03  0.91065196312E+02 0.  0.
         11    1    3    3    0    0  0.74885812362E-01  0.38626064177E+02  0.27933940333E+02  0.47668474532E+02  0.00000000000E+00 0.  1.
        -11    1    3    3    0    0  0.96467431710E+02 -0.10470641822E+02  0.67202981747E+02  0.11803321768E+03  0.00000000000E+00 0. -1.
         22    1    1    2    0    0 -0.96542317523E+02 -0.28155422355E+02  0.16369305909E+03  0.19211601826E+03  0.00000000000E+00 0.  1.
<mgrwt>
<rscale>  0 0.12588405E+03</rscale>
<asrwt>0</asrwt>
<pdfrwt beam="1">  1        2 0.76144409E-02 0.13566878E+03</pdfrwt>
<pdfrwt beam="2">  1       -2 0.47434437E-01 0.13566878E+03</pdfrwt>
<totfact> 0.36923229E+03</totfact>
</mgrwt>
</event>
<event>
 6    1  0.1535970E-002  0.9479302E+02  0.7546771E-02  0.1388233E+00
          2   -1    0    0  501    0  0.00000000000E+00  0.00000000000E+00  0.10308145673E+03  0.10308145673E+03  0.00000000000E+00 0.  1.
         -2   -1    0    0    0  501 -0.00000000000E+00 -0.00000000000E+00 -0.43849503867E+02  0.43849503867E+02  0.00000000000E+00 0. -1.
         23    2    1    2    0    0  0.81167156076E+01 -0.15775068111E+02  0.76772804567E+02  0.12198270765E+03  0.93118116382E+02 0.  0.
         13    1    3    3    0    0 -0.46557252104E+01  0.42984849213E+00 -0.21277384440E+02  0.21785032374E+02  0.00000000000E+00 0. -1.
        -13    1    3    3    0    0  0.12772440818E+02 -0.16204916603E+02  0.98050189007E+02  0.10019767528E+03  0.00000000000E+00 0.  1.
         22    1    1    2    0    0 -0.81167156076E+01  0.15775068111E+02 -0.17540851709E+02  0.24948252941E+02  0.00000000000E+00 0. -1.
<mgrwt>
<rscale>  0 0.62348386E+02</rscale>
<asrwt>0</asrwt>
<pdfrwt beam="1">  1        2 0.15858686E-01 0.94793024E+02</pdfrwt>
<pdfrwt beam="2">  1       -2 0.67460775E-02 0.94793024E+02</pdfrwt>
<totfact> 0.39382859E+04</totfact>
</mgrwt>
</event>
<event>
 6    1  0.1535970E-002  0.9072975E+02  0.7546771E-02  0.1402976E+00
          2   -1    0    0  501    0  0.00000000000E+00  0.00000000000E+00  0.34812249260E+03  0.34812249260E+03  0.00000000000E+00 0. -1.
         -2   -1    0    0    0  501 -0.00000000000E+00 -0.00000000000E+00 -0.10554638640E+02  0.10554638640E+02  0.00000000000E+00 0.  1.
         23    2    1    2    0    0 -0.41184364730E+01 -0.15456139276E+02  0.32736352678E+03  0.33970393822E+03  0.89308640212E+02 0.  0.
         11    1    3    3    0    0  0.37932364090E+01 -0.44164487213E+02  0.28184852426E+03  0.28531295309E+03  0.00000000000E+00 0. -1.
        -11    1    3    3    0    0 -0.79116728820E+01  0.28708347937E+02  0.45515002518E+02  0.54390985129E+02  0.00000000000E+00 0.  1.
         22    1    1    2    0    0  0.41184364730E+01  0.15456139276E+02  0.10204327187E+02  0.18973193027E+02  0.00000000000E+00 0.  1.
<mgrwt>
<rscale>  0 0.58791055E+02</rscale>
<asrwt>0</asrwt>
<pdfrwt beam="1">  1        2 0.53557298E-01 0.90729747E+02</pdfrwt>
<pdfrwt beam="2">  1       -2 0.16237908E-02 0.90729747E+02</pdfrwt>
<totfact> 0.84413122E+04</totfact>
</mgrwt>
</event>
<event>
 6    1  0.1535970E-002  0.9381077E+02  0.7546771E-02  0.1409234E+00
         -1   -1    0    0    0  501 -0.00000000000E+00  0.00000000000E+00  0.11401684554E+02  0.11401684554E+02  0.00000000000E+00 0.  1.
          1   -1    0    0  501    0  0.00000000000E+00 -0.00000000000E+00 -0.26365787126E+03  0.26365787126E+03  0.00000000000E+00 0. -1.
         23    2    1    2    0    0 -0.78239122333E+01  0.10528035027E+02 -0.23727909490E+03  0.25515060298E+03  0.92889225416E+02 0.  0.
         11    1    3    3    0    0  0.15219613977E+02  0.41858751037E+02 -0.18321245686E+03  0.18854865695E+03  0.00000000000E+00 0. -1.
        -11    1    3    3    0    0 -0.23043526210E+02 -0.31330716010E+02 -0.54066638043E+02  0.66601946032E+02  0.00000000000E+00 0.  1.
         22    1    1    2    0    0  0.78239122333E+01 -0.10528035027E+02 -0.14977091805E+02  0.19908952838E+02  0.00000000000E+00 0. -1.
<mgrwt>
<rscale>  0 0.57365048E+02</rscale>
<asrwt>0</asrwt>
<pdfrwt beam="1">  1        1 0.40562749E-01 0.93810774E+02</pdfrwt>
<pdfrwt beam="2">  1       -1 0.17541053E-02 0.93810774E+02</pdfrwt>
<totfact> 0.74320539E+04</totfact>
</mgrwt>
</event>
<event>
 6    1  0.1535970E-002  0.9297297E+02  0.7546771E-02  0.1416309E+00
         -4   -1    0    0    0  501 -0.00000000000E+00  0.00000000000E+00  0.50854190207E+02  0.50854190207E+02  0.00000000000E+00 0.  1.
          4   -1    0    0  501    0  0.00000000000E+00 -0.00000000000E+00 -0.54269392056E+02  0.54269392056E+02  0.00000000000E+00 0. -1.
         23    2    1    2    0    0 -0.23978293281E+01 -0.11830984331E+02 -0.37329202986E+01  0.93047874386E+02  0.92185955861E+02 0.  0.
         13    1    3    3    0    0 -0.49944572593E+01 -0.18580892071E+02 -0.46159694122E+02  0.50009114318E+02  0.00000000000E+00 0. -1.
        -13    1    3    3    0    0  0.25966279312E+01  0.67499077398E+01  0.42426773823E+02  0.43038760068E+02  0.00000000000E+00 0.  1.
         22    1    1    2    0    0  0.23978293281E+01  0.11830984331E+02  0.31771844885E+00  0.12075707877E+02  0.00000000000E+00 0.  1.
<mgrwt>
<rscale>  0 0.55809492E+02</rscale>
<asrwt>0</asrwt>
<pdfrwt beam="1">  1        4 0.83491372E-02 0.92972965E+02</pdfrwt>
<pdfrwt beam="2">  1       -4 0.78237216E-02 0.92972965E+02</pdfrwt>
<totfact> 0.17089944E+04</totfact>
</mgrwt>
</event>
<event>
 6    1  0.1535970E-002  0.1098055E+03  0.7546771E-02  0.1294954E+00
          3   -1    0    0  501    0  0.00000000000E+00  0.00000000000E+00  0.74066161980E+02  0.74066161980E+02  0.00000000000E+00 0. -1.
         -3   -1    0    0    0  501 -0.00000000000E+00 -0.00000000000E+00 -0.18391077515E+03  0.18391077515E+03  0.00000000000E+00 0.  1.
         23    2    1    2    0    0 -0.57105171495E+02 -0.51611567346E+01  0.23973574759E+02  0.11239209736E+03  0.93646212480E+02 0.  0.
         11    1    3    3    0    0 -0.64752434224E+02  0.83426161335E+00  0.51794402987E+02  0.82923060189E+02  0.00000000000E+00 0. -1.
        -11    1    3    3    0    0  0.76472627288E+01 -0.59954183479E+01 -0.27820828229E+02  0.29469037170E+02  0.00000000000E+00 0.  1.
         22    1    1    2    0    0  0.57105171495E+02  0.51611567346E+01 -0.13381818793E+03  0.14558483977E+03  0.00000000000E+00 0.  1.
<mgrwt>
<rscale>  0 0.93342326E+02</rscale>
<asrwt>0</asrwt>
<pdfrwt beam="1">  1        3 0.11394794E-01 0.10980552E+03</pdfrwt>
<pdfrwt beam="2">  1       -3 0.28293965E-01 0.10980552E+03</pdfrwt>
<totfact> 0.15703967E+03</totfact>
</mgrwt>
</event>
<event>
 6    1  0.1535970E-002  0.9412329E+02  0.7546771E-02  0.1401651E+00
         -1   -1    0    0    0  501 -0.00000000000E+00  0.00000000000E+00  0.12804652229E+02  0.12804652229E+02  0.00000000000E+00 0.  1.
          1   -1    0    0  501    0  0.00000000000E+00 -0.00000000000E+00 -0.26402024031E+03  0.26402024031E+03  0.00000000000E+00 0. -1.
         23    2    1    2    0    0 -0.13744571723E+02 -0.50118574038E+01 -0.24168065276E+03  0.25936216200E+03  0.92979358945E+02 0.  0.
         13    1    3    3    0    0 -0.82205125850E+01  0.19360868117E+02 -0.53361933456E+01  0.21700115226E+02  0.00000000000E+00 0.  1.
        -13    1    3    3    0    0 -0.55240591378E+01 -0.24372725520E+02 -0.23634445942E+03  0.23766204677E+03  0.00000000000E+00 0. -1.
         22    1    1    2    0    0  0.13744571723E+02  0.50118574038E+01 -0.95349353191E+01  0.17462730543E+02  0.00000000000E+00 0.  1.
<mgrwt>
<rscale>  0 0.59099342E+02</rscale>
<asrwt>0</asrwt>
<pdfrwt beam="1">  1        1 0.40618492E-01 0.94123287E+02</pdfrwt>
<pdfrwt beam="2">  1       -1 0.19699468E-02 0.94123287E+02</pdfrwt>
<totfact> 0.62908760E+04</totfact>
</mgrwt>
</event>
<event>
 6    1  0.1535970E-002  0.9715392E+02  0.7546771E-02  0.1344480E+00
          2   -1    0    0  501    0  0.00000000000E+00  0.00000000000E+00  0.90900454835E+03  0.90900454835E+03  0.00000000000E+00 0. -1.
         -2   -1    0    0    0  501 -0.00000000000E+00 -0.00000000000E+00 -0.69160761793E+01  0.69160761793E+01  0.00000000000E+00 0.  1.
         23    2    1    2    0    0 -0.11881917829E+02 -0.32009766318E+02  0.83510098702E+03  0.84073333652E+03  0.90956470400E+02 0.  0.
         13    1    3    3    0    0  0.24597303873E+02  0.13988428441E+02  0.12284080922E+03  0.12605779587E+03  0.00000000000E+00 0.  1.
        -13    1    3    3    0    0 -0.36479221702E+02 -0.45998194760E+02  0.71226017780E+03  0.71467554066E+03  0.00000000000E+00 0. -1.
         22    1    1    2    0    0  0.11881917829E+02  0.32009766318E+02  0.66987485154E+02  0.75187288010E+02  0.00000000000E+00 0.  1.
<mgrwt>
<rscale>  0 0.74803772E+02</rscale>
<asrwt>0</asrwt>
<pdfrwt beam="1">  1        2 0.13984676E+00 0.97153922E+02</pdfrwt>
<pdfrwt beam="2">  1       -2 0.10640124E-02 0.97153922E+02</pdfrwt>
<totfact> 0.52759906E+04</totfact>
</mgrwt>
</event>
<event>
 6    1  0.1535970E-002  0.9308045E+02  0.7546771E-02  0.1381197E+00
          4   -1    0    0  501    0  0.00000000000E+00  0.00000000000E+00  0.19145675259E+02  0.19145675259E+02  0.00000000000E+00 0. -1.
         -4   -1    0    0    0  501 -0.00000000000E+00 -0.00000000000E+00 -0.17699445583E+03  0.17699445583E+03  0.00000000000E+00 0.  1.
         23    2    1    2    0    0 -0.20594307363E+02  0.41073050983E+01 -0.11142662244E+03  0.14518905440E+03  0.90680614668E+02 0.  0.
         11    1    3    3    0    0 -0.39247624330E+01 -0.19707712743E+02  0.84787583588E+01  0.21810250916E+02  0.00000000000E+00 0. -1.
        -11    1    3    3    0    0 -0.16669544930E+02  0.23815017842E+02 -0.11990538080E+03  0.12337880348E+03  0.00000000000E+00 0.  1.
         22    1    1    2    0    0  0.20594307363E+02 -0.41073050983E+01 -0.46422158123E+02  0.50951076688E+02  0.00000000000E+00 0.  1.
<mgrwt>
<rscale>  0 0.64150213E+02</rscale>
<asrwt>0</asrwt>
<pdfrwt beam="1">  1        4 0.29454886E-02 0.93080445E+02</pdfrwt>
<pdfrwt beam="2">  1       -4 0.27229915E-01 0.93080445E+02</pdfrwt>
<totfact> 0.10381829E+04</totfact>
</mgrwt>
</event>
<event>
 6    1  0.1535970E-002  0.9384717E+02  0.7546771E-02  0.1385988E+00
         -2   -1    0    0    0  501 -0.00000000000E+00  0.00000000000E+00  0.21750823088E+02  0.21750823088E+02  0.00000000000E+00 0.  1.
          2   -1    0    0  501    0  0.00000000000E+00 -0.00000000000E+00 -0.14876250194E+03  0.14876250194E+03  0.00000000000E+00 0. -1.
         23    2    1    2    0    0 -0.12678239071E+02 -0.14093784264E+02 -0.11328639266E+03  0.14710913775E+03  0.91912562516E+02 0.  0.
         13    1    3    3    0    0 -0.20611509218E+02 -0.41503657024E+02 -0.21678560357E+02  0.51160021870E+02  0.00000000000E+00 0.  1.
        -13    1    3    3    0    0  0.79332701468E+01  0.27409872759E+02 -0.91607832303E+02  0.95949115885E+02  0.00000000000E+00 0. -1.
         22    1    1    2    0    0  0.12678239071E+02  0.14093784264E+02 -0.13725286192E+02  0.23404187272E+02  0.00000000000E+00 0. -1.
<mgrwt>
<rscale>  0 0.62915695E+02</rscale>
<asrwt>0</asrwt>
<pdfrwt beam="1">  1        2 0.22886540E-01 0.93847172E+02</pdfrwt>
<pdfrwt beam="2">  1       -2 0.33462803E-02 0.93847172E+02</pdfrwt>
<totfact> 0.73709260E+04</totfact>
</mgrwt>
</event>
<event>
 6    1  0.1535970E-002  0.9296466E+02  0.7546771E-02  0.1396339E+00
         -2   -1    0    0    0  501 -0.00000000000E+00  0.00000000000E+00  0.12218489798E+02  0.12218489798E+02  0.00000000000E+00 0.  1.
          2   -1    0    0  501    0  0.00000000000E+00 -0.00000000000E+00 -0.34176072306E+03  0.34176072306E+03  0.00000000000E+00 0. -1.
         23    2    1    2    0    0 -0.12076026589E+01  0.16473863913E+02 -0.32316841188E+03  0.33627406967E+03  0.91485414119E+02 0.  0.
         11    1    3    3    0    0  0.26166704464E+01 -0.38129861116E+02 -0.13075568925E+03  0.13622695601E+03  0.00000000000E+00 0.  1.
        -11    1    3    3    0    0 -0.38242731053E+01  0.54603725029E+02 -0.19241272263E+03  0.20004711366E+03  0.00000000000E+00 0. -1.
         22    1    1    2    0    0  0.12076026589E+01 -0.16473863913E+02 -0.63738213794E+01  0.17705143190E+02  0.00000000000E+00 0.  1.
<mgrwt>
<rscale>  0 0.60357077E+02</rscale>
<asrwt>0</asrwt>
<pdfrwt beam="1">  1        2 0.52578567E-01 0.92964657E+02</pdfrwt>
<pdfrwt beam="2">  1       -2 0.18797679E-02 0.92964657E+02</pdfrwt>
<totfact> 0.70023378E+04</totfact>
</mgrwt>
</event>
<event>
 6    1  0.1535970E-002  0.9130998E+02  0.7546771E-02  0.1403043E+00
         -2   -1    0    0    0  501 -0.00000000000E+00  0.00000000000E+00  0.83819907526E+01  0.83819907526E+01  0.00000000000E+00 0.  1.
          2   -1    0    0  501    0  0.00000000000E+00 -0.00000000000E+00 -0.38213534810E+03  0.38213534810E+03  0.00000000000E+00 0. -1.
         23    2    1    2    0    0  0.12751152902E+02 -0.91184405830E+01 -0.35233925403E+03  0.36397865614E+03  0.89954290282E+02 0.  0.
         11    1    3    3    0    0 -0.21282474445E+01 -0.36582871409E+02 -0.30543450477E+03  0.30762488947E+03  0.00000000000E+00 0. -1.
        -11    1    3    3    0    0  0.14879400346E+02  0.27464430826E+02 -0.46904749258E+02  0.56353766673E+02  0.00000000000E+00 0.  1.
         22    1    1    2    0    0 -0.12751152902E+02  0.91184405830E+01 -0.21414103323E+02  0.26538682712E+02  0.00000000000E+00 0.  1.
<mgrwt>
<rscale>  0 0.58775684E+02</rscale>
<asrwt>0</asrwt>
<pdfrwt beam="1">  1        2 0.58790071E-01 0.91309979E+02</pdfrwt>
<pdfrwt beam="2">  1       -2 0.12895367E-02 0.91309979E+02</pdfrwt>
<totfact> 0.10642728E+05</totfact>
</mgrwt>
</event>
<event>
 6    1  0.1535970E-002  0.9472676E+02  0.7546771E-02  0.1370183E+00
         -2   -1    0    0    0  501 -0.00000000000E+00  0.00000000000E+00  0.43368414244E+01  0.43368414244E+01  0.00000000000E+00 0.  1.
          2   -1    0    0  501    0  0.00000000000E+00 -0.00000000000E+00 -0.11646918134E+04  0.11646918134E+04  0.00000000000E+00 0. -1.
         23    2    1    2    0    0  0.17796203435E+02  0.15911987280E+02 -0.11007850768E+04  0.11048533589E+04  0.91669314164E+02 0.  0.
         13    1    3    3    0    0 -0.25976921392E+02  0.59124735633E+01 -0.82555875318E+03  0.82598850642E+03  0.00000000000E+00 0. -1.
        -13    1    3    3    0    0  0.43773124826E+02  0.99995137162E+01 -0.27522632367E+03  0.27886485252E+03  0.00000000000E+00 0.  1.
         22    1    1    2    0    0 -0.17796203435E+02 -0.15911987280E+02 -0.59569895110E+02  0.64175295864E+02  0.00000000000E+00 0.  1.
<mgrwt>
<rscale>  0 0.67116452E+02</rscale>
<asrwt>0</asrwt>
<pdfrwt beam="1">  1        2 0.17918349E+00 0.94726762E+02</pdfrwt>
<pdfrwt beam="2">  1       -2 0.66720587E-03 0.94726762E+02</pdfrwt>
<totfact> 0.72334216E+04</totfact>
</mgrwt>
</event>
<event>
 6    1  0.1535970E-002  0.9841371E+02  0.7546771E-02  0.1363835E+00
          2   -1    0    0  501    0  0.00000000000E+00  0.00000000000E+00  0.22343951950E+03  0.22343951950E+03  0.00000000000E+00 0. -1.
         -2   -1    0    0    0  501 -0.00000000000E+00 -0.00000000000E+00 -0.17480697236E+02  0.17480697236E+02  0.00000000000E+00 0.  1.
         23    2    1    2    0    0 -0.83702596845E+01  0.22128689424E+02  0.18387955105E+03  0.20855921613E+03  0.95527572961E+02 0.  0.
         13    1    3    3    0    0 -0.34418289828E+02  0.38848651538E+02  0.53434402744E+02  0.74492092182E+02  0.00000000000E+00 0. -1.
        -13    1    3    3    0    0  0.26048030144E+02 -0.16719962114E+02  0.13044514830E+03  0.13406712395E+03  0.00000000000E+00 0.  1.
         22    1    1    2    0    0  0.83702596845E+01 -0.22128689424E+02  0.22079271215E+02  0.32361000606E+02  0.00000000000E+00 0.  1.
<mgrwt>
<rscale>  0 0.68911229E+02</rscale>
<asrwt>0</asrwt>
<pdfrwt beam="1">  1        2 0.34375309E-01 0.98413705E+02</pdfrwt>
<pdfrwt beam="2">  1       -2 0.26893382E-02 0.98413705E+02</pdfrwt>
<totfact> 0.65765976E+04</totfact>
</mgrwt>
</event>
<event>
 6    1  0.1535970E-002  0.1099291E+03  0.7546771E-02  0.1293010E+00
          2   -1    0    0  501    0  0.00000000000E+00  0.00000000000E+00  0.66722866926E+03  0.66722866926E+03  0.00000000000E+00 0. -1.
         -2   -1    0    0    0  501 -0.00000000000E+00 -0.00000000000E+00 -0.17703285755E+02  0.17703285755E+02  0.00000000000E+00 0.  1.
         23    2    1    2    0    0  0.40321942751E+02  0.43412705379E+02  0.59279759576E+03  0.60290413072E+03  0.92595244205E+02 0.  0.
         13    1    3    3    0    0  0.65038164325E+02  0.48786465498E+02  0.50622406869E+03  0.51271131230E+03  0.00000000000E+00 0. -1.
        -13    1    3    3    0    0 -0.24716221574E+02 -0.53737601190E+01  0.86573527063E+02  0.90192818421E+02  0.00000000000E+00 0.  1.
         22    1    1    2    0    0 -0.40321942751E+02 -0.43412705379E+02  0.56727787748E+02  0.82027824294E+02  0.00000000000E+00 0.  1.
<mgrwt>
<rscale>  0 0.94190237E+02</rscale>
<asrwt>0</asrwt>
<pdfrwt beam="1">  1        2 0.10265054E+00 0.10992907E+03</pdfrwt>
<pdfrwt beam="2">  1       -2 0.27235829E-02 0.10992907E+03</pdfrwt>
<totfact> 0.20189846E+04</totfact>
</mgrwt>
</event>
<event>
 6    1  0.1535970E-002  0.8378208E+02  0.7546771E-02  0.1419907E+00
          2   -1    0    0  501    0  0.00000000000E+00  0.00000000000E+00  0.20954379667E+04  0.20954379667E+04  0.00000000000E+00 0. -1.
         -2   -1    0    0    0  501 -0.00000000000E+00 -0.00000000000E+00 -0.22659116347E+01  0.22659116347E+01  0.00000000000E+00 0.  1.
         23    2    1    2    0    0 -0.67604260457E+01 -0.14065266798E+02  0.20514284723E+04  0.20531386251E+04  0.82315867156E+02 0.  0.
         13    1    3    3    0    0  0.11132463583E+01 -0.43642977368E+02  0.69791758895E+03  0.69928170987E+03  0.00000000000E+00 0.  1.
        -13    1    3    3    0    0 -0.78736724040E+01  0.29577710570E+02  0.13535108833E+04  0.13538569152E+04  0.00000000000E+00 0. -1.
         22    1    1    2    0    0  0.67604260457E+01  0.14065266798E+02  0.41743582787E+02  0.44565253217E+02  0.00000000000E+00 0. -1.
<mgrwt>
<rscale>  0 0.55040650E+02</rscale>
<asrwt>0</asrwt>
<pdfrwt beam="1">  1        2 0.32237352E+00 0.83782081E+02</pdfrwt>
<pdfrwt beam="2">  1       -2 0.34860347E-03 0.83782081E+02</pdfrwt>
<totfact> 0.59235204E+04</totfact>
</mgrwt>
</event>
<event>
 6    1  0.1535970E-002  0.9567919E+02  0.7546771E-02  0.1360861E+00
         -2   -1    0    0    0  501 -0.00000000000E+00  0.00000000000E+00  0.40445008959E+01  0.40445008959E+01  0.00000000000E+00 0.  1.
          2   -1    0    0  501    0  0.00000000000E+00 -0.00000000000E+00 -0.13713623034E+04  0.13713623034E+04  0.00000000000E+00 0. -1.
         23    2    1    2    0    0  0.10545011109E+02  0.24921695933E+02 -0.12889912333E+04  0.12925373912E+04  0.91772653166E+02 0.  0.
         11    1    3    3    0    0  0.81971182472E+01  0.13440374111E+02 -0.12708043826E+04  0.12709018905E+04  0.00000000000E+00 0. -1.
        -11    1    3    3    0    0  0.23478928619E+01  0.11481321822E+02 -0.18186850706E+02  0.21635500693E+02  0.00000000000E+00 0.  1.
         22    1    1    2    0    0 -0.10545011109E+02 -0.24921695933E+02 -0.78326569143E+02  0.82869413061E+02  0.00000000000E+00 0.  1.
<mgrwt>
<rscale>  0 0.69774765E+02</rscale>
<asrwt>0</asrwt>
<pdfrwt beam="1">  1        2 0.21097915E+00 0.95679193E+02</pdfrwt>
<pdfrwt beam="2">  1       -2 0.62222992E-03 0.95679193E+02</pdfrwt>
<totfact> 0.61934977E+04</totfact>
</mgrwt>
</event>
<event>
 6    1  0.1535970E-002  0.9555633E+02  0.7546771E-02  0.1366633E+00
         -2   -1    0    0    0  501 -0.00000000000E+00  0.00000000000E+00  0.44667765321E+02  0.44667765321E+02  0.00000000000E+00 0.  1.
          2   -1    0    0  501    0  0.00000000000E+00 -0.00000000000E+00 -0.20630815933E+03  0.20630815933E+03  0.00000000000E+00 0. -1.
         23    2    1    2    0    0 -0.35869252789E+01  0.24405129316E+02 -0.19043234133E+03  0.21306217253E+03  0.92317584298E+02 0.  0.
         11    1    3    3    0    0 -0.89885660732E+01  0.42790438797E+02 -0.18883755333E+03  0.19383353044E+03  0.00000000000E+00 0. -1.
        -11    1    3    3    0    0  0.54016407943E+01 -0.18385309481E+02 -0.15947879914E+01  0.19228642093E+02  0.00000000000E+00 0.  1.
         22    1    1    2    0    0  0.35869252789E+01 -0.24405129316E+02  0.28791947314E+02  0.37913752123E+02  0.00000000000E+00 0.  1.
<mgrwt>
<rscale>  0 0.68112225E+02</rscale>
<asrwt>0</asrwt>
<pdfrwt beam="1">  1        2 0.31739716E-01 0.95556333E+02</pdfrwt>
<pdfrwt beam="2">  1       -2 0.68719640E-02 0.95556333E+02</pdfrwt>
<totfact> 0.17804104E+04</totfact>
</mgrwt>
</event>
<event>
 6    1  0.1535970E-002  0.9149929E+02  0.7546771E-02  0.1389828E+00
         -2   -1    0    0    0  501 -0.00000000000E+00  0.00000000000E+00  0.21411875880E+02  0.21411875880E+02  0.00000000000E+00 0.  1.
          2   -1    0    0  501    0  0.00000000000E+00 -0.00000000000E+00 -0.14347511695E+03  0.14347511695E+03  0.00000000000E+00 0. -1.
         23    2    1    2    0    0  0.93378904535E+01  0.16806525012E+02 -0.97787686870E+02  0.13391994562E+03  0.89456495854E+02 0.  0.
         11    1    3    3    0    0  0.18448485225E+02 -0.34131383293E+02 -0.51598484018E+02  0.64557737612E+02  0.00000000000E+00 0. -1.
        -11    1    3    3    0    0 -0.91105947719E+01  0.50937908306E+02 -0.46189202852E+02  0.69362208008E+02  0.00000000000E+00 0.  1.
         22    1    1    2    0    0 -0.93378904535E+01 -0.16806525012E+02 -0.24275554200E+02  0.30967047208E+02  0.00000000000E+00 0.  1.
<mgrwt>
<rscale>  0 0.61949519E+02</rscale>
<asrwt>0</asrwt>
<pdfrwt beam="1">  1        2 0.22073095E-01 0.91499290E+02</pdfrwt>
<pdfrwt beam="2">  1       -2 0.32941347E-02 0.91499290E+02</pdfrwt>
<totfact> 0.78203391E+04</totfact>
</mgrwt>
</event>
<event>
 6    1  0.1535970E-002  0.9640604E+02  0.7546771E-02  0.1382827E+00
          1   -1    0    0  501    0  0.00000000000E+00  0.00000000000E+00  0.12315007156E+02  0.12315007156E+02  0.00000000000E+00 0. -1.
         -1   -1    0    0    0  501 -0.00000000000E+00 -0.00000000000E+00 -0.26912391323E+03  0.26912391323E+03  0.00000000000E+00 0.  1.
         23    2    1    2    0    0  0.11750801751E+02  0.14167156067E+02 -0.20734803335E+03  0.22866423343E+03  0.94632632126E+02 0.  0.
         13    1    3    3    0    0  0.35134694684E+02 -0.22912746330E+02 -0.15402675236E+03  0.15963608977E+03  0.00000000000E+00 0. -1.
        -13    1    3    3    0    0 -0.23383892933E+02  0.37079902397E+02 -0.53321280989E+02  0.69028143657E+02  0.00000000000E+00 0.  1.
         22    1    1    2    0    0 -0.11750801751E+02 -0.14167156067E+02 -0.49460872723E+02  0.52774686957E+02  0.00000000000E+00 0. -1.
<mgrwt>
<rscale>  0 0.63726410E+02</rscale>
<asrwt>0</asrwt>
<pdfrwt beam="1">  1        1 0.18946166E-02 0.96406041E+02</pdfrwt>
<pdfrwt beam="2">  1       -1 0.41403676E-01 0.96406041E+02</pdfrwt>
<totfact> 0.33362356E+04</totfact>
</mgrwt>
</event>
<event>
 6    1  0.1535970E-002  0.9539006E+02  0.7546771E-02  0.1368269E+00
          2   -1    0    0  501    0  0.00000000000E+00  0.00000000000E+00  0.96705577588E+03  0.96705577588E+03  0.00000000000E+00 0. -1.
         -2   -1    0    0    0  501 -0.00000000000E+00 -0.00000000000E+00 -0.37956093839E+01  0.37956093839E+01  0.00000000000E+00 0.  1.
         23    2    1    2    0    0  0.66995935707E+00  0.24122045366E+02  0.82556715014E+03  0.83105979513E+03  0.92287278524E+02 0.  0.
         13    1    3    3    0    0 -0.27934006413E+02  0.62640928957E+01  0.71241335177E+03  0.71298831081E+03  0.00000000000E+00 0. -1.
        -13    1    3    3    0    0  0.28603965770E+02  0.17857952470E+02  0.11315379837E+03  0.11807148432E+03  0.00000000000E+00 0.  1.
         22    1    1    2    0    0 -0.66995935707E+00 -0.24122045366E+02  0.13769301635E+03  0.13979159013E+03  0.00000000000E+00 0. -1.
<mgrwt>
<rscale>  0 0.67650769E+02</rscale>
<asrwt>0</asrwt>
<pdfrwt beam="1">  1        2 0.14877762E+00 0.95390061E+02</pdfrwt>
<pdfrwt beam="2">  1       -2 0.58394068E-03 0.95390061E+02</pdfrwt>
<totfact> 0.11327712E+05</totfact>
</mgrwt>
</event>
<event>
 6    1  0.1535970E-002  0.8842106E+02  0.7546771E-02  0.1413495E+00
          4   -1    0    0  501    0  0.00000000000E+00  0.00000000000E+00  0.18184662056E+03  0.18184662056E+03  0.00000000000E+00 0. -1.
         -4   -1    0    0    0  501 -0.00000000000E+00 -0.00000000000E+00 -0.14698427481E+02  0.14698427481E+02  0.00000000000E+00 0.  1.
         23    2    1    2    0    0  0.14129398240E+02 -0.39046518438E+01  0.14841771541E+03  0.17276024209E+03  0.87197458665E+02 0.  0.
         13    1    3    3    0    0  0.24131947589E+02 -0.23427643314E+01  0.15738168161E+03  0.15923829045E+03  0.00000000000E+00 0. -1.
        -13    1    3    3    0    0 -0.10002549349E+02 -0.15618875125E+01 -0.89639661986E+01  0.13521951638E+02  0.00000000000E+00 0.  1.
         22    1    1    2    0    0 -0.14129398240E+02  0.39046518438E+01  0.18730477673E+02  0.23784805959E+02  0.00000000000E+00 0.  1.
<mgrwt>
<rscale>  0 0.56421267E+02</rscale>
<asrwt>0</asrwt>
<pdfrwt beam="1">  1        4 0.27976402E-01 0.88421055E+02</pdfrwt>
<pdfrwt beam="2">  1       -4 0.22612967E-02 0.88421055E+02</pdfrwt>
<totfact> 0.14615192E+04</totfact>
</mgrwt>
</event>
<event>
 6    1  0.1535970E-002  0.9181705E+02  0.7546771E-02  0.1421758E+00
          2   -1    0    0  501    0  0.00000000000E+00  0.00000000000E+00  0.35251774145E+02  0.35251774145E+02  0.00000000000E+00 0. -1.
         -2   -1    0    0    0  501 -0.00000000000E+00 -0.00000000000E+00 -0.88755788176E+02  0.88755788176E+02  0.00000000000E+00 0.  1.
         23    2    1    2    0    0  0.44247836614E+01  0.10640893073E+02 -0.27952849322E+02  0.95977768639E+02  0.91090959880E+02 0.  0.
         13    1    3    3    0    0  0.29248171268E+02  0.10170436399E+02 -0.52571456308E+02  0.61013533888E+02  0.00000000000E+00 0.  1.
        -13    1    3    3    0    0 -0.24823387607E+02  0.47045667360E+00  0.24618606987E+02  0.34964234751E+02  0.00000000000E+00 0. -1.
         22    1    1    2    0    0 -0.44247836614E+01 -0.10640893073E+02 -0.25551164709E+02  0.28029793682E+02  0.00000000000E+00 0.  1.
<mgrwt>
<rscale>  0 0.54650639E+02</rscale>
<asrwt>0</asrwt>
<pdfrwt beam="1">  1        2 0.54233499E-02 0.91817048E+02</pdfrwt>
<pdfrwt beam="2">  1       -2 0.13654737E-01 0.91817048E+02</pdfrwt>
<totfact> 0.48598543E+04</totfact>
</mgrwt>
</event>
<event>
 6    1  0.1535970E-002  0.8619030E+02  0.7546771E-02  0.1396053E+00
         -1   -1    0    0    0  501 -0.00000000000E+00  0.00000000000E+00  0.90439543691E+02  0.90439543691E+02  0.00000000000E+00 0.  1.
          1   -1    0    0  501    0  0.00000000000E+00 -0.00000000000E+00 -0.49098932898E+02  0.49098932898E+02  0.00000000000E+00 0. -1.
         23    2    1    2    0    0  0.13038739615E+02  0.16234025433E+02 -0.74290492567E+01  0.86509880022E+02  0.83637409430E+02 0.  0.
         13    1    3    3    0    0  0.24278835239E+02  0.43828716456E+02 -0.20290255943E+02  0.54056569563E+02  0.00000000000E+00 0. -1.
        -13    1    3    3    0    0 -0.11240095625E+02 -0.27594691023E+02  0.12861206687E+02  0.32453310459E+02  0.00000000000E+00 0.  1.
         22    1    1    2    0    0 -0.13038739615E+02 -0.16234025433E+02  0.48769660049E+02  0.53028596567E+02  0.00000000000E+00 0.  1.
<mgrwt>
<rscale>  0 0.60426021E+02</rscale>
<asrwt>0</asrwt>
<pdfrwt beam="1">  1        1 0.75536820E-02 0.86190304E+02</pdfrwt>
<pdfrwt beam="2">  1       -1 0.13913776E-01 0.86190304E+02</pdfrwt>
<totfact> 0.29557794E+04</totfact>
</mgrwt>
</event>
<event>
 6    1  0.1535970E-002  0.9778174E+02  0.7546771E-02  0.1339758E+00
         -2   -1    0    0    0  501 -0.00000000000E+00  0.00000000000E+00  0.29192573236E+02  0.29192573236E+02  0.00000000000E+00 0.  1.
          2   -1    0    0  501    0  0.00000000000E+00 -0.00000000000E+00 -0.15960336704E+03  0.15960336704E+03  0.00000000000E+00 0. -1.
         23    2    1    2    0    0 -0.34802599052E+02 -0.10443603284E+02 -0.10977374406E+03  0.14700865067E+03  0.90779836621E+02 0.  0.
         11    1    3    3    0    0  0.18891544402E+02 -0.17355899764E+02 -0.11946928504E+01  0.25681608157E+02  0.00000000000E+00 0.  1.
        -11    1    3    3    0    0 -0.53694143454E+02  0.69122964803E+01 -0.10857905121E+03  0.12132704251E+03  0.00000000000E+00 0. -1.
         22    1    1    2    0    0  0.34802599052E+02  0.10443603284E+02 -0.20637049745E+02  0.41787289605E+02  0.00000000000E+00 0. -1.
<mgrwt>
<rscale>  0 0.76344363E+02</rscale>
<asrwt>0</asrwt>
<pdfrwt beam="1">  1        2 0.24554364E-01 0.97781739E+02</pdfrwt>
<pdfrwt beam="2">  1       -2 0.44911651E-02 0.97781739E+02</pdfrwt>
<totfact> 0.44511842E+04</totfact>
</mgrwt>
</event>
<event>
 6    1  0.1535970E-002  0.8823533E+02  0.7546771E-02  0.1396147E+00
          2   -1    0    0  501    0  0.00000000000E+00  0.00000000000E+00  0.87962767993E+03  0.87962767993E+03  0.00000000000E+00 0. -1.
         -2   -1    0    0    0  501 -0.00000000000E+00 -0.00000000000E+00 -0.71780267303E+01  0.71780267303E+01  0.00000000000E+00 0.  1.
         23    2    1    2    0    0 -0.15505958493E+02 -0.11622717101E+02  0.85826971443E+03  0.86279335640E+03  0.86081071305E+02 0.  0.
         11    1    3    3    0    0  0.58519081115E+01  0.21040651830E+02  0.65129156561E+02  0.68693237602E+02  0.00000000000E+00 0.  1.
        -11    1    3    3    0    0 -0.21357866604E+02 -0.32663368931E+02  0.79314055787E+03  0.79410011880E+03  0.00000000000E+00 0. -1.
         22    1    1    2    0    0  0.15505958493E+02  0.11622717101E+02  0.14179938771E+02  0.24012350263E+02  0.00000000000E+00 0.  1.
<mgrwt>
<rscale>  0 0.60403395E+02</rscale>
<asrwt>0</asrwt>
<pdfrwt beam="1">  1        2 0.13532725E+00 0.88235328E+02</pdfrwt>
<pdfrwt beam="2">  1       -2 0.11043125E-02 0.88235328E+02</pdfrwt>
<totfact> 0.51631472E+04</totfact>
</mgrwt>
</event>
<event>
 6    1  0.1535970E-002  0.9055591E+02  0.7546771E-02  0.1427901E+00
          2   -1    0    0  501    0  0.00000000000E+00  0.00000000000E+00  0.18353944291E+03  0.18353944291E+03  0.00000000000E+00 0. -1.
         -2   -1    0    0    0  501 -0.00000000000E+00 -0.00000000000E+00 -0.14115872783E+02  0.14115872783E+02  0.00000000000E+00 0.  1.
         23    2    1    2    0    0 -0.10899329190E+02 -0.90305434864E+00  0.15554948563E+03  0.17998893223E+03  0.89893060701E+02 0.  0.
         13    1    3    3    0    0 -0.45784679785E+02 -0.19404170523E+01  0.12661872649E+03  0.13465624390E+03  0.00000000000E+00 0.  1.
        -13    1    3    3    0    0  0.34885350595E+02  0.10373627037E+01  0.28930759138E+02  0.45332688336E+02  0.00000000000E+00 0. -1.
         22    1    1    2    0    0  0.10899329190E+02  0.90305434864E+00  0.13874084490E+02  0.17666383455E+02  0.00000000000E+00 0.  1.
<mgrwt>
<rscale>  0 0.53383734E+02</rscale>
<asrwt>0</asrwt>
<pdfrwt beam="1">  1        2 0.28236836E-01 0.90555912E+02</pdfrwt>
<pdfrwt beam="2">  1       -2 0.21716729E-02 0.90555912E+02</pdfrwt>
<totfact> 0.10918418E+05</totfact>
</mgrwt>
</event>
<event>
 6    1  0.1535970E-002  0.9430731E+02  0.7546771E-02  0.1358584E+00
          2   -1    0    0  501    0  0.00000000000E+00  0.00000000000E+00  0.11155793932E+04  0.11155793932E+04  0.00000000000E+00 0. -1.
         -2   -1    0    0    0  501 -0.00000000000E+00 -0.00000000000E+00 -0.79527117321E+01  0.79527117321E+01  0.00000000000E+00 0.  1.
         23    2    1    2    0    0  0.25123240951E+02  0.15196393622E+02  0.10769393711E+04  0.10810607189E+04  0.89620094420E+02 0.  0.
         11    1    3    3    0    0  0.55601413019E+02 -0.67426107428E+01  0.70952873428E+03  0.71173590937E+03  0.00000000000E+00 0. -1.
        -11    1    3    3    0    0 -0.30478172068E+02  0.21939004365E+02  0.36741063679E+03  0.36932480950E+03  0.00000000000E+00 0.  1.
         22    1    1    2    0    0 -0.25123240951E+02 -0.15196393622E+02  0.30687310443E+02  0.42471386100E+02  0.00000000000E+00 0.  1.
<mgrwt>
<rscale>  0 0.70445654E+02</rscale>
<asrwt>0</asrwt>
<pdfrwt beam="1">  1        2 0.17162747E+00 0.94307311E+02</pdfrwt>
<pdfrwt beam="2">  1       -2 0.12234950E-02 0.94307311E+02</pdfrwt>
<totfact> 0.32644194E+04</totfact>
</mgrwt>
</event>
<event>
 6    1  0.1535970E-002  0.9928736E+02  0.7546771E-02  0.1332443E+00
          2   -1    0    0  501    0  0.00000000000E+00  0.00000000000E+00  0.11473071210E+04  0.11473071210E+04  0.00000000000E+00 0. -1.
         -2   -1    0    0    0  501 -0.00000000000E+00 -0.00000000000E+00 -0.14604702468E+02  0.14604702468E+02  0.00000000000E+00 0.  1.
         23    2    1    2    0    0  0.33788202992E+02 -0.20318906632E+02  0.11137485859E+04  0.11181654133E+04  0.91123423519E+02 0.  0.
         11    1    3    3    0    0  0.47128703427E+02  0.15984142242E+02  0.86476394505E+03  0.86619471722E+03  0.00000000000E+00 0. -1.
        -11    1    3    3    0    0 -0.13340500435E+02 -0.36303048874E+02  0.24898464084E+03  0.25197069608E+03  0.00000000000E+00 0.  1.
         22    1    1    2    0    0 -0.33788202992E+02  0.20318906632E+02  0.18953832602E+02  0.43746410121E+02  0.00000000000E+00 0.  1.
<mgrwt>
<rscale>  0 0.78816895E+02</rscale>
<asrwt>0</asrwt>
<pdfrwt beam="1">  1        2 0.17650872E+00 0.99287355E+02</pdfrwt>
<pdfrwt beam="2">  1       -2 0.22468782E-02 0.99287355E+02</pdfrwt>
<totfact> 0.13175445E+04</totfact>
</mgrwt>
</event>
<event>
 6    1  0.1535970E-002  0.9127115E+02  0.7546771E-02  0.1421649E+00
          4   -1    0    0  501    0  0.00000000000E+00  0.00000000000E+00  0.54151101111E+02  0.54151101111E+02  0.00000000000E+00 0. -1.
         -4   -1    0    0    0  501 -0.00000000000E+00 -0.00000000000E+00 -0.50661056669E+02  0.50661056669E+02  0.00000000000E+00 0.  1.
         23    2    1    2    0    0  0.10814687855E+02 -0.45988329498E+01  0.92239543111E+01  0.91736055138E+02  0.90511412216E+02 0.  0.
         13    1    3    3    0    0 -0.37206230538E+02 -0.15318959162E+02 -0.49309917525E+01  0.40537498446E+02  0.00000000000E+00 0.  1.
        -13    1    3    3    0    0  0.48020918393E+02  0.10720126212E+02  0.14154946064E+02  0.51198556692E+02  0.00000000000E+00 0. -1.
         22    1    1    2    0    0 -0.10814687855E+02  0.45988329498E+01 -0.57339098690E+01  0.13076102641E+02  0.00000000000E+00 0. -1.
<mgrwt>
<rscale>  0 0.54673515E+02</rscale>
<asrwt>0</asrwt>
<pdfrwt beam="1">  1        4 0.83309387E-02 0.91271148E+02</pdfrwt>
<pdfrwt beam="2">  1       -4 0.77940087E-02 0.91271148E+02</pdfrwt>
<totfact> 0.17161662E+04</totfact>
</mgrwt>
</event>
<event>
 6    1  0.1535970E-002  0.1489533E+03  0.7546771E-02  0.1217089E+00
         -2   -1    0    0    0  501 -0.00000000000E+00  0.00000000000E+00  0.14456868613E+02  0.14456868613E+02  0.00000000000E+00 0.  1.
          2   -1    0    0  501    0  0.00000000000E+00 -0.00000000000E+00 -0.11977590456E+04  0.11977590456E+04  0.00000000000E+00 0. -1.
         23    2    1    2    0    0  0.81634585815E+02 -0.69710097137E+02 -0.81866498011E+03  0.83210541897E+03  0.10326362081E+03 0.  0.
         11    1    3    3    0    0  0.86962764314E+02 -0.73997720964E+02 -0.48086116515E+03  0.49423237979E+03  0.00000000000E+00 0. -1.
        -11    1    3    3    0    0 -0.53281784994E+01  0.42876238264E+01 -0.33780381496E+03  0.33787303919E+03  0.00000000000E+00 0.  1.
         22    1    1    2    0    0 -0.81634585815E+02  0.69710097137E+02 -0.36463719686E+03  0.38011049522E+03  0.00000000000E+00 0.  1.
<mgrwt>
<rscale>  0 0.13724185E+03</rscale>
<asrwt>0</asrwt>
<pdfrwt beam="1">  1        2 0.18427065E+00 0.14895328E+03</pdfrwt>
<pdfrwt beam="2">  1       -2 0.22241334E-02 0.14895328E+03</pdfrwt>
<totfact> 0.12846334E+04</totfact>
</mgrwt>
</event>
<event>
 6    1  0.1535970E-002  0.9121145E+02  0.7546771E-02  0.1419545E+00
          2   -1    0    0  501    0  0.00000000000E+00  0.00000000000E+00  0.14580347273E+04  0.14580347273E+04  0.00000000000E+00 0. -1.
         -2   -1    0    0    0  501 -0.00000000000E+00 -0.00000000000E+00 -0.22260420921E+01  0.22260420921E+01  0.00000000000E+00 0.  1.
         23    2    1    2    0    0 -0.71808521341E+01  0.98156944676E+01  0.14072271990E+04  0.14101801015E+04  0.90396994075E+02 0.  0.
         11    1    3    3    0    0  0.40891848233E+02 -0.29351124346E+01  0.70842871684E+03  0.70961398308E+03  0.00000000000E+00 0. -1.
        -11    1    3    3    0    0 -0.48072700367E+02  0.12750806902E+02  0.69879848221E+03  0.70056611846E+03  0.00000000000E+00 0.  1.
         22    1    1    2    0    0  0.71808521341E+01 -0.98156944676E+01  0.48581486171E+02  0.50080667865E+02  0.00000000000E+00 0. -1.
<mgrwt>
<rscale>  0 0.55117262E+02</rscale>
<asrwt>0</asrwt>
<pdfrwt beam="1">  1        2 0.22431227E+00 0.91211452E+02</pdfrwt>
<pdfrwt beam="2">  1       -2 0.34246918E-03 0.91211452E+02</pdfrwt>
<totfact> 0.12822423E+05</totfact>
</mgrwt>
</event>
<event>
 6    1  0.1535970E-002  0.9152840E+02  0.7546771E-02  0.1417728E+00
         -2   -1    0    0    0  501 -0.00000000000E+00  0.00000000000E+00  0.51243057944E+01  0.51243057944E+01  0.00000000000E+00 0.  1.
          2   -1    0    0  501    0  0.00000000000E+00 -0.00000000000E+00 -0.66936379336E+03  0.66936379336E+03  0.00000000000E+00 0. -1.
         23    2    1    2    0    0  0.27135201091E-01 -0.12377881027E+02 -0.64595859316E+03  0.65241087615E+03  0.90687565723E+02 0.  0.
         11    1    3    3    0    0 -0.23529086792E+02  0.60099317460E+01 -0.57374085079E+03  0.57425456121E+03  0.00000000000E+00 0. -1.
        -11    1    3    3    0    0  0.23556221994E+02 -0.18387812773E+02 -0.72217742362E+02  0.78156314941E+02  0.00000000000E+00 0.  1.
         22    1    1    2    0    0 -0.27135201091E-01  0.12377881027E+02 -0.18280894414E+02  0.22077223005E+02  0.00000000000E+00 0.  1.
<mgrwt>
<rscale>  0 0.55504568E+02</rscale>
<asrwt>0</asrwt>
<pdfrwt beam="1">  1        2 0.10297902E+00 0.91528396E+02</pdfrwt>
<pdfrwt beam="2">  1       -2 0.78835491E-03 0.91528396E+02</pdfrwt>
<totfact> 0.11609209E+05</totfact>
</mgrwt>
</event>
<event>
 6    1  0.1535970E-002  0.9515778E+02  0.7546771E-02  0.1352286E+00
          1   -1    0    0  501    0  0.00000000000E+00  0.00000000000E+00  0.42440365796E+03  0.42440365796E+03  0.00000000000E+00 0. -1.
         -1   -1    0    0    0  501 -0.00000000000E+00 -0.00000000000E+00 -0.28882578619E+02  0.28882578619E+02  0.00000000000E+00 0.  1.
         23    2    1    2    0    0  0.75153386887E+01 -0.30895234446E+02  0.40813355462E+03  0.41907994535E+03  0.89688384737E+02 0.  0.
         13    1    3    3    0    0  0.42632891793E+01 -0.37130777877E+02  0.41008259834E+03  0.41178223343E+03  0.00000000000E+00 0. -1.
        -13    1    3    3    0    0  0.32520495094E+01  0.62355434310E+01 -0.19490437203E+01  0.72977119232E+01  0.00000000000E+00 0.  1.
         22    1    1    2    0    0 -0.75153386887E+01  0.30895234446E+02 -0.12612475281E+02  0.34206291231E+02  0.00000000000E+00 0.  1.
<mgrwt>
<rscale>  0 0.72348058E+02</rscale>
<asrwt>0</asrwt>
<pdfrwt beam="1">  1        1 0.65292866E-01 0.95157775E+02</pdfrwt>
<pdfrwt beam="2">  1       -1 0.44434739E-02 0.95157775E+02</pdfrwt>
<totfact> 0.10864125E+04</totfact>
</mgrwt>
</event>
<event>
 6    1  0.1535970E-002  0.9543459E+02  0.7546771E-02  0.1359815E+00
         -2   -1    0    0    0  501 -0.00000000000E+00  0.00000000000E+00  0.30535442779E+03  0.30535442779E+03  0.00000000000E+00 0.  1.
          2   -1    0    0  501    0  0.00000000000E+00 -0.00000000000E+00 -0.15605889660E+02  0.15605889660E+02  0.00000000000E+00 0. -1.
         23    2    1    2    0    0 -0.14300836055E+02  0.23784427730E+02  0.14508612552E+03  0.17365985398E+03  0.91310175522E+02 0.  0.
         13    1    3    3    0    0 -0.12321085151E+02  0.58933074596E+02  0.89706270635E+02  0.10803763887E+03  0.00000000000E+00 0. -1.
        -13    1    3    3    0    0 -0.19797509040E+01 -0.35148646866E+02  0.55379854881E+02  0.65622215116E+02  0.00000000000E+00 0.  1.
         22    1    1    2    0    0  0.14300836055E+02 -0.23784427730E+02  0.14466241261E+03  0.14730046346E+03  0.00000000000E+00 0.  1.
<mgrwt>
<rscale>  0 0.70081875E+02</rscale>
<asrwt>0</asrwt>
<pdfrwt beam="1">  1        2 0.24009063E-02 0.95434591E+02</pdfrwt>
<pdfrwt beam="2">  1       -2 0.46977600E-01 0.95434591E+02</pdfrwt>
<totfact> 0.16478807E+04</totfact>
</mgrwt>
</event>
<event>
 6    1  0.1535970E-002  0.9153597E+02  0.7546771E-02  0.1384546E+00
         -2   -1    0    0    0  501 -0.00000000000E+00  0.00000000000E+00  0.31633012163E+02  0.31633012163E+02  0.00000000000E+00 0.  1.
          2   -1    0    0  501    0  0.00000000000E+00 -0.00000000000E+00 -0.34387782493E+03  0.34387782493E+03  0.00000000000E+00 0. -1.
         23    2    1    2    0    0  0.66737813549E+01 -0.19818294852E+02 -0.33341611958E+03  0.34575300787E+03  0.89115259563E+02 0.  0.
         13    1    3    3    0    0 -0.27141896617E+00 -0.26682697688E+02 -0.33482521596E+03  0.33588683402E+03  0.00000000000E+00 0. -1.
        -13    1    3    3    0    0  0.69452003211E+01  0.68644028359E+01  0.14090963833E+01  0.98661738486E+01  0.00000000000E+00 0.  1.
         22    1    1    2    0    0 -0.66737813549E+01  0.19818294852E+02  0.21171306808E+02  0.29757829228E+02  0.00000000000E+00 0.  1.
<mgrwt>
<rscale>  0 0.63283689E+02</rscale>
<asrwt>0</asrwt>
<pdfrwt beam="1">  1        2 0.52904278E-01 0.91535969E+02</pdfrwt>
<pdfrwt beam="2">  1       -2 0.48666175E-02 0.91535969E+02</pdfrwt>
<totfact> 0.17375362E+04</totfact>
</mgrwt>
</event>
<event>
 6    1  0.1535970E-002  0.9635535E+02  0.7546771E-02  0.1351166E+00
         -2   -1    0    0    0  501 -0.00000000000E+00  0.00000000000E+00  0.25550318955E+02  0.25550318955E+02  0.00000000000E+00 0.  1.
          2   -1    0    0  501    0  0.00000000000E+00 -0.00000000000E+00 -0.15965471573E+03  0.15965471573E+03  0.00000000000E+00 0. -1.
         23    2    1    2    0    0  0.20186819068E+02 -0.23808221302E+02 -0.97117887907E+02  0.13680729813E+03  0.91159276017E+02 0.  0.
         13    1    3    3    0    0  0.86671430879E+01  0.65868937340E+01 -0.10317091440E+03  0.10374364615E+03  0.00000000000E+00 0. -1.
        -13    1    3    3    0    0  0.11519675980E+02 -0.30395115036E+02  0.60530264890E+01  0.33063651982E+02  0.00000000000E+00 0.  1.
         22    1    1    2    0    0 -0.20186819068E+02  0.23808221302E+02 -0.36986508868E+02  0.48397736558E+02  0.00000000000E+00 0.  1.
<mgrwt>
<rscale>  0 0.72693508E+02</rscale>
<asrwt>0</asrwt>
<pdfrwt beam="1">  1        2 0.24562264E-01 0.96355346E+02</pdfrwt>
<pdfrwt beam="2">  1       -2 0.39308183E-02 0.96355346E+02</pdfrwt>
<totfact> 0.54065495E+04</totfact>
</mgrwt>
</event>
<event>
 6    1  0.1535970E-002  0.9251335E+02  0.7546771E-02  0.1422052E+00
          2   -1    0    0  501    0  0.00000000000E+00  0.00000000000E+00  0.18483892756E+02  0.18483892756E+02  0.00000000000E+00 0. -1.
         -2   -1    0    0    0  501 -0.00000000000E+00 -0.00000000000E+00 -0.18156553259E+03  0.18156553259E+03  0.00000000000E+00 0.  1.
         23    2    1    2    0    0 -0.55347758602E+01 -0.97544279347E+01 -0.10101318252E+03  0.13697584926E+03  0.91831027585E+02 0.  0.
         13    1    3    3    0    0 -0.29293557633E+02  0.15822937280E+02 -0.35898556874E+01  0.33486787347E+02  0.00000000000E+00 0. -1.
        -13    1    3    3    0    0  0.23758781773E+02 -0.25577365214E+02 -0.97423326837E+02  0.10348906191E+03  0.00000000000E+00 0.  1.
         22    1    1    2    0    0  0.55347758602E+01  0.97544279347E+01 -0.62068457311E+02  0.63073576093E+02  0.00000000000E+00 0.  1.
<mgrwt>
<rscale>  0 0.54589094E+02</rscale>
<asrwt>0</asrwt>
<pdfrwt beam="1">  1        2 0.28436758E-02 0.92513352E+02</pdfrwt>
<pdfrwt beam="2">  1       -2 0.27933159E-01 0.92513352E+02</pdfrwt>
<totfact> 0.34166975E+04</totfact>
</mgrwt>
</event>
<event>
 6    1  0.1535970E-002  0.9877700E+02  0.7546771E-02  0.1332229E+00
         -2   -1    0    0    0  501 -0.00000000000E+00  0.00000000000E+00  0.13441529296E+02  0.13441529296E+02  0.00000000000E+00 0.  1.
          2   -1    0    0  501    0  0.00000000000E+00 -0.00000000000E+00 -0.61377452440E+03  0.61377452440E+03  0.00000000000E+00 0. -1.
         23    2    1    2    0    0 -0.20143930362E+02  0.34779439762E+02 -0.56540390941E+03  0.57396731298E+03  0.90230306608E+02 0.  0.
         13    1    3    3    0    0 -0.25366226998E+02  0.30752623165E+02 -0.89026736456E+02  0.97544498090E+02  0.00000000000E+00 0.  1.
        -13    1    3    3    0    0  0.52222966362E+01  0.40268165967E+01 -0.47637717295E+03  0.47642281489E+03  0.00000000000E+00 0. -1.
         22    1    1    2    0    0  0.20143930362E+02 -0.34779439762E+02 -0.34929085694E+02  0.53248740717E+02  0.00000000000E+00 0.  1.
<mgrwt>
<rscale>  0 0.78890818E+02</rscale>
<asrwt>0</asrwt>
<pdfrwt beam="1">  1        2 0.94426850E-01 0.98776999E+02</pdfrwt>
<pdfrwt beam="2">  1       -2 0.20679276E-02 0.98776999E+02</pdfrwt>
<totfact> 0.32760078E+04</totfact>
</mgrwt>
</event>
<event>
 6    1  0.1535970E-002  0.9879967E+02  0.7546771E-02  0.1355379E+00
         -2   -1    0    0    0  501 -0.00000000000E+00  0.00000000000E+00  0.32627059308E+02  0.32627059308E+02  0.00000000000E+00 0.  1.
          2   -1    0    0  501    0  0.00000000000E+00 -0.00000000000E+00 -0.13853516043E+03  0.13853516043E+03  0.00000000000E+00 0. -1.
         23    2    1    2    0    0 -0.12014522722E+02 -0.24129949679E+02 -0.10502380182E+03  0.14419213978E+03  0.95051412388E+02 0.  0.
         11    1    3    3    0    0  0.29714402754E+02 -0.79953202898E+01 -0.81133078982E+00  0.30781961198E+02  0.00000000000E+00 0.  1.
        -11    1    3    3    0    0 -0.41728925475E+02 -0.16134629389E+02 -0.10421247103E+03  0.11341017858E+03  0.00000000000E+00 0. -1.
         22    1    1    2    0    0  0.12014522722E+02  0.24129949679E+02 -0.88429929948E+00  0.26970079959E+02  0.00000000000E+00 0. -1.
<mgrwt>
<rscale>  0 0.71405025E+02</rscale>
<asrwt>0</asrwt>
<pdfrwt beam="1">  1        2 0.21313102E-01 0.98799667E+02</pdfrwt>
<pdfrwt beam="2">  1       -2 0.50195475E-02 0.98799667E+02</pdfrwt>
<totfact> 0.44167539E+04</totfact>
</mgrwt>
</event>
<event>
 6    1  0.1535970E-002  0.8823024E+02  0.7546771E-02  0.1430137E+00
         -2   -1    0    0    0  501 -0.00000000000E+00  0.00000000000E+00  0.46459446354E+01  0.46459446354E+01  0.00000000000E+00 0.  1.
          2   -1    0    0  501    0  0.00000000000E+00 -0.00000000000E+00 -0.54026642731E+03  0.54026642731E+03  0.00000000000E+00 0. -1.
         23    2    1    2    0    0 -0.38829454099E+01  0.10750063238E+02 -0.49012458945E+03  0.49800269890E+03  0.87486763605E+02 0.  0.
         13    1    3    3    0    0 -0.23460064795E+02  0.22044495823E+02 -0.45561299115E+03  0.45674887207E+03  0.00000000000E+00 0. -1.
        -13    1    3    3    0    0  0.19577119386E+02 -0.11294432585E+02 -0.34511598307E+02  0.41253826835E+02  0.00000000000E+00 0.  1.
         22    1    1    2    0    0  0.38829454099E+01 -0.10750063238E+02 -0.45495893219E+02  0.46909673038E+02  0.00000000000E+00 0.  1.
<mgrwt>
<rscale>  0 0.52932582E+02</rscale>
<asrwt>0</asrwt>
<pdfrwt beam="1">  1        2 0.83117934E-01 0.88230238E+02</pdfrwt>
<pdfrwt beam="2">  1       -2 0.71476052E-03 0.88230238E+02</pdfrwt>
<totfact> 0.16848669E+05</totfact>
</mgrwt>
</event>
<event>
 6    1  0.1535970E-002  0.9315863E+02  0.7546771E-02  0.1386156E+00
         -2   -1    0    0    0  501 -0.00000000000E+00  0.00000000000E+00  0.29185411684E+01  0.29185411684E+01  0.00000000000E+00 0.  1.
          2   -1    0    0  501    0  0.00000000000E+00 -0.00000000000E+00 -0.11893901705E+04  0.11893901705E+04  0.00000000000E+00 0. -1.
         23    2    1    2    0    0  0.62131000770E+01 -0.18302008956E+02 -0.10864568236E+04  0.10904434697E+04  0.91131580929E+02 0.  0.
         11    1    3    3    0    0  0.24528975694E+02 -0.99384411378E+00 -0.80245119438E+02  0.83916253302E+02  0.00000000000E+00 0.  1.
        -11    1    3    3    0    0 -0.18315875617E+02 -0.17308164842E+02 -0.10062117041E+04  0.10065272164E+04  0.00000000000E+00 0. -1.
         22    1    1    2    0    0 -0.62131000770E+01  0.18302008956E+02 -0.10001480577E+03  0.10186524195E+03  0.00000000000E+00 0.  1.
<mgrwt>
<rscale>  0 0.62872868E+02</rscale>
<asrwt>0</asrwt>
<pdfrwt beam="1">  1        2 0.18298334E+00 0.93158635E+02</pdfrwt>
<pdfrwt beam="2">  1       -2 0.44900576E-03 0.93158635E+02</pdfrwt>
<totfact> 0.12202983E+05</totfact>
</mgrwt>
</event>
<event>
 6    1  0.1535970E-002  0.9415207E+02  0.7546771E-02  0.1366592E+00
          1   -1    0    0  501    0  0.00000000000E+00  0.00000000000E+00  0.19590794544E+02  0.19590794544E+02  0.00000000000E+00 0. -1.
         -1   -1    0    0    0  501 -0.00000000000E+00 -0.00000000000E+00 -0.21266222655E+03  0.21266222655E+03  0.00000000000E+00 0.  1.
         23    2    1    2    0    0 -0.11409145970E+02 -0.23145975054E+02 -0.10762821771E+03  0.14299806245E+03  0.90546716364E+02 0.  0.
         13    1    3    3    0    0 -0.43684923318E+02 -0.38248608836E+02 -0.73386246918E+02  0.93578148303E+02  0.00000000000E+00 0. -1.
        -13    1    3    3    0    0  0.32275777348E+02  0.15102633782E+02 -0.34241970788E+02  0.49419914144E+02  0.00000000000E+00 0.  1.
         22    1    1    2    0    0  0.11409145970E+02  0.23145975054E+02 -0.85443214300E+02  0.89254958646E+02  0.00000000000E+00 0. -1.
<mgrwt>
<rscale>  0 0.68123810E+02</rscale>
<asrwt>0</asrwt>
<pdfrwt beam="1">  1        1 0.30139685E-02 0.94152072E+02</pdfrwt>
<pdfrwt beam="2">  1       -1 0.32717265E-01 0.94152072E+02</pdfrwt>
<totfact> 0.26282085E+04</totfact>
</mgrwt>
</event>
<event>
 6    1  0.1535970E-002  0.9652349E+02  0.7546771E-02  0.1358539E+00
          2   -1    0    0  501    0  0.00000000000E+00  0.00000000000E+00  0.81877258258E+03  0.81877258258E+03  0.00000000000E+00 0. -1.
         -2   -1    0    0    0  501 -0.00000000000E+00 -0.00000000000E+00 -0.92838550727E+01  0.92838550727E+01  0.00000000000E+00 0.  1.
         23    2    1    2    0    0 -0.25975542162E+02  0.87391283436E+01  0.78616696295E+03  0.79207024784E+03  0.92550973697E+02 0.  0.
         13    1    3    3    0    0  0.12923182399E+02  0.58507370971E+01  0.18021123058E+02  0.22934703926E+02  0.00000000000E+00 0.  1.
        -13    1    3    3    0    0 -0.38898724561E+02  0.28883912465E+01  0.76814583989E+03  0.76913554392E+03  0.00000000000E+00 0. -1.
         22    1    1    2    0    0  0.25975542162E+02 -0.87391283436E+01  0.23321764558E+02  0.35986189808E+02  0.00000000000E+00 0.  1.
<mgrwt>
<rscale>  0 0.70459095E+02</rscale>
<asrwt>0</asrwt>
<pdfrwt beam="1">  1        2 0.12596496E+00 0.96523489E+02</pdfrwt>
<pdfrwt beam="2">  1       -2 0.14282860E-02 0.96523489E+02</pdfrwt>
<totfact> 0.39569095E+04</totfact>
</mgrwt>
</event>
<event>
 6    1  0.1535970E-002  0.9515534E+02  0.7546771E-02  0.1383818E+00
          2   -1    0    0  501    0  0.00000000000E+00  0.00000000000E+00  0.64998162646E+03  0.64998162646E+03  0.00000000000E+00 0. -1.
         -2   -1    0    0    0  501 -0.00000000000E+00 -0.00000000000E+00 -0.53398209191E+01  0.53398209191E+01  0.00000000000E+00 0.  1.
         23    2    1    2    0    0  0.99792997173E+01 -0.15975592394E+02  0.58747254736E+03  0.59512900552E+03  0.93272361087E+02 0.  0.
         11    1    3    3    0    0  0.12432949572E+00 -0.53348455685E+02  0.26251066473E+03  0.26787669230E+03  0.00000000000E+00 0.  1.
        -11    1    3    3    0    0  0.98549702216E+01  0.37372863291E+02  0.32496188262E+03  0.32725231322E+03  0.00000000000E+00 0. -1.
         22    1    1    2    0    0 -0.99792997173E+01  0.15975592394E+02  0.57169258185E+02  0.60192441856E+02  0.00000000000E+00 0. -1.
<mgrwt>
<rscale>  0 0.63470768E+02</rscale>
<asrwt>0</asrwt>
<pdfrwt beam="1">  1        2 0.99997111E-01 0.95155343E+02</pdfrwt>
<pdfrwt beam="2">  1       -2 0.82151142E-03 0.95155343E+02</pdfrwt>
<totfact> 0.11391526E+05</totfact>
</mgrwt>
</event>
<event>
 6    1  0.1535970E-002  0.1268920E+03  0.7546771E-02  0.1249832E+00
          2   -1    0    0  501    0  0.00000000000E+00  0.00000000000E+00  0.87808852547E+03  0.87808852547E+03  0.00000000000E+00 0. -1.
         -2   -1    0    0    0  501 -0.00000000000E+00 -0.00000000000E+00 -0.14504229346E+02  0.14504229346E+02  0.00000000000E+00 0.  1.
         23    2    1    2    0    0  0.77253839816E+02  0.43469570288E+02  0.63221827561E+03  0.64482674674E+03  0.90795517484E+02 0.  0.
         11    1    3    3    0    0 -0.47923932569E+01 -0.12568896539E+02  0.23450483709E+03  0.23489032082E+03  0.00000000000E+00 0. -1.
        -11    1    3    3    0    0  0.82046233073E+02  0.56038466827E+02  0.39771343851E+03  0.40993642592E+03  0.00000000000E+00 0.  1.
         22    1    1    2    0    0 -0.77253839816E+02 -0.43469570288E+02  0.23136602052E+03  0.24776600808E+03  0.00000000000E+00 0.  1.
<mgrwt>
<rscale>  0 0.11600804E+03</rscale>
<asrwt>0</asrwt>
<pdfrwt beam="1">  1        2 0.13509050E+00 0.12689202E+03</pdfrwt>
<pdfrwt beam="2">  1       -2 0.22314206E-02 0.12689202E+03</pdfrwt>
<totfact> 0.19538701E+04</totfact>
</mgrwt>
</event>
<event>
 6    1  0.1535970E-002  0.9346741E+02  0.7546771E-02  0.1394383E+00
         -2   -1    0    0    0  501 -0.00000000000E+00  0.00000000000E+00  0.73352401036E+01  0.73352401036E+01  0.00000000000E+00 0.  1.
          2   -1    0    0  501    0  0.00000000000E+00 -0.00000000000E+00 -0.41958684349E+03  0.41958684349E+03  0.00000000000E+00 0. -1.
         23    2    1    2    0    0  0.47919224468E+01 -0.16068716901E+02 -0.33014639366E+03  0.34312213342E+03  0.91951025104E+02 0.  0.
         11    1    3    3    0    0 -0.40718000909E+02 -0.18496304692E+02 -0.11931440028E+03  0.12742054387E+03  0.00000000000E+00 0.  1.
        -11    1    3    3    0    0  0.45509923356E+02  0.24275877909E+01 -0.21083199337E+03  0.21570158956E+03  0.00000000000E+00 0. -1.
         22    1    1    2    0    0 -0.47919224468E+01  0.16068716901E+02 -0.82105209726E+02  0.83799950165E+02  0.00000000000E+00 0.  1.
<mgrwt>
<rscale>  0 0.60829683E+02</rscale>
<asrwt>0</asrwt>
<pdfrwt beam="1">  1        2 0.64551844E-01 0.93467413E+02</pdfrwt>
<pdfrwt beam="2">  1       -2 0.11284981E-02 0.93467413E+02</pdfrwt>
<totfact> 0.11697188E+05</totfact>
</mgrwt>
</event>
<event>
 6    1  0.1535970E-002  0.9343038E+02  0.7546771E-02  0.1396066E+00
          4   -1    0    0  501    0  0.00000000000E+00  0.00000000000E+00  0.94041004814E+02  0.94041004814E+02  0.00000000000E+00 0. -1.
         -4   -1    0    0    0  501 -0.00000000000E+00 -0.00000000000E+00 -0.34498237251E+02  0.34498237251E+02  0.00000000000E+00 0.  1.
         23    2    1    2    0    0 -0.12060994881E+02 -0.11028866844E+02  0.61830198125E+02  0.11203664106E+03  0.91989847475E+02 0.  0.
         13    1    3    3    0    0  0.75045198434E+00 -0.91430733100E+01  0.85000029145E+02  0.85493648433E+02  0.00000000000E+00 0. -1.
        -13    1    3    3    0    0 -0.12811446866E+02 -0.18857935335E+01 -0.23169831021E+02  0.26542992627E+02  0.00000000000E+00 0.  1.
         22    1    1    2    0    0  0.12060994881E+02  0.11028866844E+02 -0.22874305615E+01  0.16502601006E+02  0.00000000000E+00 0. -1.
<mgrwt>
<rscale>  0 0.60422825E+02</rscale>
<asrwt>0</asrwt>
<pdfrwt beam="1">  1        4 0.14467847E-01 0.93430378E+02</pdfrwt>
<pdfrwt beam="2">  1       -4 0.53074212E-02 0.93430378E+02</pdfrwt>
<totfact> 0.12707009E+04</totfact>
</mgrwt>
</event>
<event>
 6    1  0.1535970E-002  0.9292246E+02  0.7546771E-02  0.1403323E+00
         -2   -1    0    0    0  501 -0.00000000000E+00  0.00000000000E+00  0.70549699884E+02  0.70549699884E+02  0.00000000000E+00 0.  1.
          2   -1    0    0  501    0  0.00000000000E+00 -0.00000000000E+00 -0.53122309020E+02  0.53122309020E+02  0.00000000000E+00 0. -1.
         23    2    1    2    0    0  0.13876291417E+02 -0.51707789225E+01 -0.90219101289E+01  0.93359405235E+02  0.91734918463E+02 0.  0.
         13    1    3    3    0    0  0.34146892665E+02  0.33532198217E+02  0.32796859099E+01  0.47970563220E+02  0.00000000000E+00 0.  1.
        -13    1    3    3    0    0 -0.20270601248E+02 -0.38702977140E+02 -0.12301596039E+02  0.45388842016E+02  0.00000000000E+00 0. -1.
         22    1    1    2    0    0 -0.13876291417E+02  0.51707789225E+01  0.26449300993E+02  0.30312603669E+02  0.00000000000E+00 0. -1.
<mgrwt>
<rscale>  0 0.58710731E+02</rscale>
<asrwt>0</asrwt>
<pdfrwt beam="1">  1        2 0.81726629E-02 0.92922461E+02</pdfrwt>
<pdfrwt beam="2">  1       -2 0.10853800E-01 0.92922461E+02</pdfrwt>
<totfact> 0.41747396E+04</totfact>
</mgrwt>
</event>
<event>
 6    1  0.1535970E-002  0.9629511E+02  0.7546771E-02  0.1358999E+00
          2   -1    0    0  501    0  0.00000000000E+00  0.00000000000E+00  0.19192526969E+04  0.19192526969E+04  0.00000000000E+00 0.  1.
         -2   -1    0    0    0  501 -0.00000000000E+00 -0.00000000000E+00 -0.37946174454E+01  0.37946174454E+01  0.00000000000E+00 0. -1.
         23    2    1    2    0    0  0.26666279719E+02 -0.62491076856E+01  0.18441171376E+04  0.18466295690E+04  0.92317961652E+02 0.  0.
         11    1    3    3    0    0  0.32489927700E+02 -0.32840194383E+02  0.47483578642E+03  0.47707766437E+03  0.00000000000E+00 0.  1.
        -11    1    3    3    0    0 -0.58236479811E+01  0.26591086698E+02  0.13692813512E+04  0.13695519046E+04  0.00000000000E+00 0. -1.
         22    1    1    2    0    0 -0.26666279719E+02  0.62491076856E+01  0.71340941838E+02  0.76417745343E+02  0.00000000000E+00 0. -1.
<mgrwt>
<rscale>  0 0.70322790E+02</rscale>
<asrwt>0</asrwt>
<pdfrwt beam="1">  1        2 0.29526887E+00 0.96295108E+02</pdfrwt>
<pdfrwt beam="2">  1       -2 0.58378883E-03 0.96295108E+02</pdfrwt>
<totfact> 0.35716255E+04</totfact>
</mgrwt>
</event>
<event>
 6    1  0.1535970E-002  0.9754321E+02  0.7546771E-02  0.1402890E+00
          2   -1    0    0  501    0  0.00000000000E+00  0.00000000000E+00  0.26373411570E+03  0.26373411570E+03  0.00000000000E+00 0. -1.
         -2   -1    0    0    0  501 -0.00000000000E+00 -0.00000000000E+00 -0.15826876654E+02  0.15826876654E+02  0.00000000000E+00 0.  1.
         23    2    1    2    0    0 -0.12430322589E+02 -0.34104375107E+01  0.24818798832E+03  0.26666824928E+03  0.96687815295E+02 0.  0.
         13    1    3    3    0    0  0.10496193383E+02  0.68221154005E+01  0.23990415558E+03  0.24023054593E+03  0.00000000000E+00 0. -1.
        -13    1    3    3    0    0 -0.22926515973E+02 -0.10232552911E+02  0.82838327402E+01  0.26437703353E+02  0.00000000000E+00 0.  1.
         22    1    1    2    0    0  0.12430322589E+02  0.34104375107E+01 -0.28074927374E+00  0.12892743069E+02  0.00000000000E+00 0.  1.
<mgrwt>
<rscale>  0 0.58810973E+02</rscale>
<asrwt>0</asrwt>
<pdfrwt beam="1">  1        2 0.40574476E-01 0.97543209E+02</pdfrwt>
<pdfrwt beam="2">  1       -2 0.24349043E-02 0.97543209E+02</pdfrwt>
<totfact> 0.63681872E+04</totfact>
</mgrwt>
</event>
<event>
 6    1  0.1535970E-002  0.1032391E+03  0.7546771E-02  0.1334930E+00
         -2   -1    0    0    0  501 -0.00000000000E+00  0.00000000000E+00  0.10708196490E+02  0.10708196490E+02  0.00000000000E+00 0.  1.
          2   -1    0    0  501    0  0.00000000000E+00 -0.00000000000E+00 -0.44165594517E+03  0.44165594517E+03  0.00000000000E+00 0. -1.
         23    2    1    2    0    0 -0.56680931239E+01  0.33095630793E+02 -0.34401401506E+03  0.35917121222E+03  0.97626170008E+02 0.  0.
         11    1    3    3    0    0  0.37647082984E+02  0.44656042008E+02 -0.19444310982E+03  0.20302607690E+03  0.00000000000E+00 0.  1.
        -11    1    3    3    0    0 -0.43315176108E+02 -0.11560411216E+02 -0.14957090524E+03  0.15614513532E+03  0.00000000000E+00 0. -1.
         22    1    1    2    0    0  0.56680931239E+01 -0.33095630793E+02 -0.86933733618E+02  0.93192929442E+02  0.00000000000E+00 0. -1.
<mgrwt>
<rscale>  0 0.77964214E+02</rscale>
<asrwt>0</asrwt>
<pdfrwt beam="1">  1        2 0.67947064E-01 0.10323913E+03</pdfrwt>
<pdfrwt beam="2">  1       -2 0.16474149E-02 0.10323913E+03</pdfrwt>
<totfact> 0.65460001E+04</totfact>
</mgrwt>
</event>
<event>
 6    1  0.1535970E-002  0.9793448E+02  0.7546771E-02  0.1382334E+00
         -2   -1    0    0    0  501 -0.00000000000E+00  0.00000000000E+00  0.63696887827E+01  0.63696887827E+01  0.00000000000E+00 0. -1.
          2   -1    0    0  501    0  0.00000000000E+00 -0.00000000000E+00 -0.68969813929E+03  0.68969813929E+03  0.00000000000E+00 0.  1.
         23    2    1    2    0    0 -0.11138558843E+02  0.13754841480E+02 -0.65752000954E+03  0.66477343908E+03  0.96321852159E+02 0.  0.
         13    1    3    3    0    0  0.13002509875E+02 -0.76607572768E+01 -0.58729030594E+03  0.58748417503E+03  0.00000000000E+00 0.  1.
        -13    1    3    3    0    0 -0.24141068718E+02  0.21415598757E+02 -0.70229703605E+02  0.77289264050E+02  0.00000000000E+00 0. -1.
         22    1    1    2    0    0  0.11138558843E+02 -0.13754841480E+02 -0.25808440966E+02  0.31294388992E+02  0.00000000000E+00 0. -1.
<mgrwt>
<rscale>  0 0.63854334E+02</rscale>
<asrwt>0</asrwt>
<pdfrwt beam="1">  1        2 0.10610738E+00 0.97934480E+02</pdfrwt>
<pdfrwt beam="2">  1       -2 0.97995235E-03 0.97934480E+02</pdfrwt>
<totfact> 0.83202843E+04</totfact>
</mgrwt>
</event>
<event>
 6    1  0.1535970E-002  0.1083213E+03  0.7546771E-02  0.1393632E+00
          4   -1    0    0  501    0  0.00000000000E+00  0.00000000000E+00  0.21053436742E+02  0.21053436742E+02  0.00000000000E+00 0. -1.
         -4   -1    0    0    0  501 -0.00000000000E+00 -0.00000000000E+00 -0.17026625258E+03  0.17026625258E+03  0.00000000000E+00 0.  1.
         23    2    1    2    0    0  0.10879333081E+02  0.71089820074E+00 -0.12985716102E+03  0.16910468003E+03  0.10777126368E+03 0.  0.
         13    1    3    3    0    0  0.36931918196E+02 -0.29461568391E+02 -0.11862847945E+03  0.12768972836E+03  0.00000000000E+00 0.  1.
        -13    1    3    3    0    0 -0.26052585115E+02  0.30172466592E+02 -0.11228681571E+02  0.41414951663E+02  0.00000000000E+00 0. -1.
         22    1    1    2    0    0 -0.10879333081E+02 -0.71089820074E+00 -0.19355654821E+02  0.22215009298E+02  0.00000000000E+00 0. -1.
<mgrwt>
<rscale>  0 0.61012295E+02</rscale>
<asrwt>0</asrwt>
<pdfrwt beam="1">  1        4 0.32389902E-02 0.10832133E+03</pdfrwt>
<pdfrwt beam="2">  1       -4 0.26194808E-01 0.10832133E+03</pdfrwt>
<totfact> 0.10049678E+04</totfact>
</mgrwt>
</event>
<event>
 6    1  0.1535970E-002  0.9068470E+02  0.7546771E-02  0.1380712E+00
          2   -1    0    0  501    0  0.00000000000E+00  0.00000000000E+00  0.58567461919E+03  0.58567461919E+03  0.00000000000E+00 0. -1.
         -2   -1    0    0    0  501 -0.00000000000E+00 -0.00000000000E+00 -0.65691124032E+01  0.65691124032E+01  0.00000000000E+00 0.  1.
         23    2    1    2    0    0  0.22781829885E+02 -0.22090994626E+01  0.53418768657E+03  0.54183041523E+03  0.87748632447E+02 0.  0.
         13    1    3    3    0    0  0.59046670239E+01  0.23738279776E+02  0.46930972630E+03  0.46994679509E+03  0.00000000000E+00 0. -1.
        -13    1    3    3    0    0  0.16877162861E+02 -0.25947379239E+02  0.64877960266E+02  0.71883620136E+02  0.00000000000E+00 0.  1.
         22    1    1    2    0    0 -0.22781829885E+02  0.22090994626E+01  0.44917820220E+02  0.50413316363E+02  0.00000000000E+00 0.  1.
<mgrwt>
<rscale>  0 0.64277017E+02</rscale>
<asrwt>0</asrwt>
<pdfrwt beam="1">  1        2 0.90103746E-01 0.90684698E+02</pdfrwt>
<pdfrwt beam="2">  1       -2 0.10106331E-02 0.90684698E+02</pdfrwt>
<totfact> 0.94938473E+04</totfact>
</mgrwt>
</event>
<event>
 6    1  0.1535970E-002  0.9476985E+02  0.7546771E-02  0.1366935E+00
         -2   -1    0    0    0  501 -0.00000000000E+00  0.00000000000E+00  0.84497164460E+02  0.84497164460E+02  0.00000000000E+00 0.  1.
          2   -1    0    0  501    0  0.00000000000E+00 -0.00000000000E+00 -0.75132509165E+03  0.75132509165E+03  0.00000000000E+00 0. -1.
         23    2    1    2    0    0 -0.15643096670E+02 -0.19705239616E+02 -0.74638714884E+03  0.75237962497E+03  0.91369147771E+02 0.  0.
         13    1    3    3    0    0  0.18503572952E+02 -0.39631977923E+02 -0.56714276716E+03  0.56882685786E+03  0.00000000000E+00 0. -1.
        -13    1    3    3    0    0 -0.34146669622E+02  0.19926738306E+02 -0.17924438169E+03  0.18355276711E+03  0.00000000000E+00 0.  1.
         22    1    1    2    0    0  0.15643096670E+02  0.19705239616E+02  0.79559221655E+02  0.83442631143E+02  0.00000000000E+00 0.  1.
<mgrwt>
<rscale>  0 0.68026536E+02</rscale>
<asrwt>0</asrwt>
<pdfrwt beam="1">  1        2 0.11558847E+00 0.94769848E+02</pdfrwt>
<pdfrwt beam="2">  1       -2 0.12999564E-01 0.94769848E+02</pdfrwt>
<totfact> 0.16400976E+03</totfact>
</mgrwt>
</event>
<event>
 6    1  0.1535970E-002  0.9193330E+02  0.7546771E-02  0.1384520E+00
          4   -1    0    0  501    0  0.00000000000E+00  0.00000000000E+00  0.24864390944E+02  0.24864390944E+02  0.00000000000E+00 0. -1.
         -4   -1    0    0    0  501 -0.00000000000E+00 -0.00000000000E+00 -0.12937772607E+03  0.12937772607E+03  0.00000000000E+00 0.  1.
         23    2    1    2    0    0  0.16159289914E+02  0.12857936889E+02 -0.77511519023E+02  0.12024877554E+03  0.89583945250E+02 0.  0.
         13    1    3    3    0    0  0.35565365843E+02  0.25380290015E+02 -0.47978315479E+01  0.43955358677E+02  0.00000000000E+00 0. -1.
        -13    1    3    3    0    0 -0.19406075929E+02 -0.12522353127E+02 -0.72713687475E+02  0.76293416866E+02  0.00000000000E+00 0.  1.
         22    1    1    2    0    0 -0.16159289914E+02 -0.12857936889E+02 -0.27001816107E+02  0.33993341475E+02  0.00000000000E+00 0.  1.
<mgrwt>
<rscale>  0 0.63290433E+02</rscale>
<asrwt>0</asrwt>
<pdfrwt beam="1">  1        4 0.38252909E-02 0.91933304E+02</pdfrwt>
<pdfrwt beam="2">  1       -4 0.19904266E-01 0.91933304E+02</pdfrwt>
<totfact> 0.12148465E+04</totfact>
</mgrwt>
</event>
<event>
 6    1  0.1535970E-002  0.9279850E+02  0.7546771E-02  0.1395211E+00
          2   -1    0    0  501    0  0.00000000000E+00  0.00000000000E+00  0.36319568381E+02  0.36319568381E+02  0.00000000000E+00 0. -1.
         -2   -1    0    0    0  501 -0.00000000000E+00 -0.00000000000E+00 -0.83092276236E+02  0.83092276236E+02  0.00000000000E+00 0.  1.
         23    2    1    2    0    0  0.59516847604E+01 -0.15826128703E+02 -0.37160308181E+02  0.99962239770E+02  0.91245120278E+02 0.  0.
         13    1    3    3    0    0 -0.39876661071E+02  0.56523399858E+01 -0.26582288542E+02  0.48256762320E+02  0.00000000000E+00 0. -1.
        -13    1    3    3    0    0  0.45828345832E+02 -0.21478468689E+02 -0.10578019639E+02  0.51705477450E+02  0.00000000000E+00 0.  1.
         22    1    1    2    0    0 -0.59516847604E+01  0.15826128703E+02 -0.96123996742E+01  0.19449604847E+02  0.00000000000E+00 0. -1.
<mgrwt>
<rscale>  0 0.60628994E+02</rscale>
<asrwt>0</asrwt>
<pdfrwt beam="1">  1        2 0.55876260E-02 0.92798496E+02</pdfrwt>
<pdfrwt beam="2">  1       -2 0.12783427E-01 0.92798496E+02</pdfrwt>
<totfact> 0.52046832E+04</totfact>
</mgrwt>
</event>
<event>
 6    1  0.1535970E-002  0.8877075E+02  0.7546771E-02  0.1430306E+00
          3   -1    0    0  501    0  0.00000000000E+00  0.00000000000E+00  0.72758857423E+03  0.72758857423E+03  0.00000000000E+00 0. -1.
         -3   -1    0    0    0  501 -0.00000000000E+00 -0.00000000000E+00 -0.39242090617E+01  0.39242090617E+01  0.00000000000E+00 0.  1.
         23    2    1    2    0    0  0.63605152004E+01  0.92109325222E+01  0.69647432968E+03  0.70210877912E+03  0.88062184741E+02 0.  0.
         11    1    3    3    0    0 -0.64953283902E+01  0.10736747128E+02  0.68405101595E+03  0.68416610516E+03  0.00000000000E+00 0. -1.
        -11    1    3    3    0    0  0.12855843591E+02 -0.15258146060E+01  0.12423313723E+02  0.17942673951E+02  0.00000000000E+00 0.  1.
         22    1    1    2    0    0 -0.63605152004E+01 -0.92109325222E+01  0.27190035492E+02  0.29404004176E+02  0.00000000000E+00 0.  1.
<mgrwt>
<rscale>  0 0.52898722E+02</rscale>
<asrwt>0</asrwt>
<pdfrwt beam="1">  1        3 0.11193660E+00 0.88770749E+02</pdfrwt>
<pdfrwt beam="2">  1       -3 0.60372505E-03 0.88770749E+02</pdfrwt>
<totfact> 0.83970181E+03</totfact>
</mgrwt>
</event>
<event>
 6    1  0.1535970E-002  0.9281419E+02  0.7546771E-02  0.1404276E+00
         -2   -1    0    0    0  501 -0.00000000000E+00  0.00000000000E+00  0.27096940311E+01  0.27096940311E+01  0.00000000000E+00 0. -1.
          2   -1    0    0  501    0  0.00000000000E+00 -0.00000000000E+00 -0.11608281600E+04  0.11608281600E+04  0.00000000000E+00 0.  1.
         23    2    1    2    0    0 -0.14083803640E+02  0.39934447782E+01 -0.10853631758E+04  0.10893244228E+04  0.91652461062E+02 0.  0.
         11    1    3    3    0    0 -0.37449937997E+02 -0.15443207977E+02 -0.23848143817E+03  0.24189747183E+03  0.00000000000E+00 0. -1.
        -11    1    3    3    0    0  0.23366134357E+02  0.19436652756E+02 -0.84688173760E+03  0.84742695095E+03  0.00000000000E+00 0.  1.
         22    1    1    2    0    0  0.14083803640E+02 -0.39934447782E+01 -0.72755290152E+02  0.74213431205E+02  0.00000000000E+00 0. -1.
<mgrwt>
<rscale>  0 0.58490975E+02</rscale>
<asrwt>0</asrwt>
<pdfrwt beam="1">  1        2 0.17858889E+00 0.92814195E+02</pdfrwt>
<pdfrwt beam="2">  1       -2 0.41687615E-03 0.92814195E+02</pdfrwt>
<totfact> 0.14029101E+05</totfact>
</mgrwt>
</event>
<event>
 6    1  0.1535970E-002  0.8932669E+02  0.7546771E-02  0.1428654E+00
         -4   -1    0    0    0  501 -0.00000000000E+00  0.00000000000E+00  0.91763973585E+02  0.91763973585E+02  0.00000000000E+00 0.  1.
          4   -1    0    0  501    0  0.00000000000E+00 -0.00000000000E+00 -0.33936309399E+02  0.33936309399E+02  0.00000000000E+00 0. -1.
         23    2    1    2    0    0 -0.68188283198E+01  0.89663931945E+01  0.27680347307E+02  0.93517160986E+02  0.88613572015E+02 0.  0.
         13    1    3    3    0    0  0.55841912386E+01 -0.34366750944E+02  0.33197538064E+02  0.48107518079E+02  0.00000000000E+00 0.  1.
        -13    1    3    3    0    0 -0.12403019558E+02  0.43333144139E+02 -0.55171907568E+01  0.45409642907E+02  0.00000000000E+00 0. -1.
         22    1    1    2    0    0  0.68188283198E+01 -0.89663931945E+01  0.30147316878E+02  0.32183121998E+02  0.00000000000E+00 0.  1.
<mgrwt>
<rscale>  0 0.53231105E+02</rscale>
<asrwt>0</asrwt>
<pdfrwt beam="1">  1        4 0.52209707E-02 0.89326691E+02</pdfrwt>
<pdfrwt beam="2">  1       -4 0.14117534E-01 0.89326691E+02</pdfrwt>
<totfact> 0.13422682E+04</totfact>
</mgrwt>
</event>
<event>
 6    1  0.1535970E-002  0.9337184E+02  0.7546771E-02  0.1403629E+00
         -2   -1    0    0    0  501 -0.00000000000E+00  0.00000000000E+00  0.28113917307E+01  0.28113917307E+01  0.00000000000E+00 0.  1.
          2   -1    0    0  501    0  0.00000000000E+00 -0.00000000000E+00 -0.27283383652E+04  0.27283383652E+04  0.00000000000E+00 0. -1.
         23    2    1    2    0    0  0.75228904114E+01  0.12425549817E+02 -0.27012206549E+04  0.27028339435E+04  0.92235087944E+02 0.  0.
         13    1    3    3    0    0  0.44135948721E+02  0.12276664510E+02 -0.83622178814E+03  0.83747571751E+03  0.00000000000E+00 0.  1.
        -13    1    3    3    0    0 -0.36613058309E+02  0.14888530698E+00 -0.18649988668E+04  0.18653582260E+04  0.00000000000E+00 0. -1.
         22    1    1    2    0    0 -0.75228904114E+01 -0.12425549817E+02 -0.24306318557E+02  0.28315813430E+02  0.00000000000E+00 0. -1.
<mgrwt>
<rscale>  0 0.58640030E+02</rscale>
<asrwt>0</asrwt>
<pdfrwt beam="1">  1        2 0.41974621E+00 0.93371835E+02</pdfrwt>
<pdfrwt beam="2">  1       -2 0.43251991E-03 0.93371835E+02</pdfrwt>
<totfact> 0.20688757E+04</totfact>
</mgrwt>
</event>
<event>
 6    1  0.1535970E-002  0.1239436E+03  0.7546771E-02  0.1259202E+00
          2   -1    0    0  501    0  0.00000000000E+00  0.00000000000E+00  0.58326101412E+03  0.58326101412E+03  0.00000000000E+00 0.  1.
         -2   -1    0    0    0  501 -0.00000000000E+00 -0.00000000000E+00 -0.33023223488E+02  0.33023223488E+02  0.00000000000E+00 0. -1.
         23    2    1    2    0    0 -0.70369364108E+02  0.35883849885E+02  0.51515147143E+03  0.52985190637E+03  0.95511811253E+02 0.  0.
         11    1    3    3    0    0 -0.32227543320E+02  0.59081152971E+02  0.18828669275E+03  0.19995268403E+03  0.00000000000E+00 0. -1.
        -11    1    3    3    0    0 -0.38141820788E+02 -0.23197303086E+02  0.32686477867E+03  0.32989922234E+03  0.00000000000E+00 0.  1.
         22    1    1    2    0    0  0.70369364108E+02 -0.35883849885E+02  0.35086319210E+02  0.86432331238E+02  0.00000000000E+00 0. -1.
<mgrwt>
<rscale>  0 0.11074182E+03</rscale>
<asrwt>0</asrwt>
<pdfrwt beam="1">  1        2 0.89732456E-01 0.12394355E+03</pdfrwt>
<pdfrwt beam="2">  1       -2 0.50804964E-02 0.12394355E+03</pdfrwt>
<totfact> 0.94642818E+03</totfact>
</mgrwt>
</event>
<event>
 6    1  0.1535970E-002  0.1081129E+03  0.7546771E-02  0.1297777E+00
          3   -1    0    0  501    0  0.00000000000E+00  0.00000000000E+00  0.50697358545E+03  0.50697358545E+03  0.00000000000E+00 0. -1.
         -3   -1    0    0    0  501 -0.00000000000E+00 -0.00000000000E+00 -0.14095298672E+02  0.14095298672E+02  0.00000000000E+00 0.  1.
         23    2    1    2    0    0  0.26857785261E+02  0.50286096251E+02  0.26585320873E+03  0.28699535258E+03  0.91860610195E+02 0.  0.
         13    1    3    3    0    0  0.32458340980E+02  0.38262191706E+02  0.26877070713E+03  0.27341403078E+03  0.00000000000E+00 0. -1.
        -13    1    3    3    0    0 -0.56005557186E+01  0.12023904545E+02 -0.29174984062E+01  0.13581321800E+02  0.00000000000E+00 0.  1.
         22    1    1    2    0    0 -0.26857785261E+02 -0.50286096251E+02  0.22702507805E+03  0.23407353154E+03  0.00000000000E+00 0. -1.
<mgrwt>
<rscale>  0 0.92128534E+02</rscale>
<asrwt>0</asrwt>
<pdfrwt beam="1">  1        3 0.77995922E-01 0.10811292E+03</pdfrwt>
<pdfrwt beam="2">  1       -3 0.21685079E-02 0.10811292E+03</pdfrwt>
<totfact> 0.29113725E+03</totfact>
</mgrwt>
</event>
<event>
 6    1  0.1535970E-002  0.9593203E+02  0.7546771E-02  0.1406056E+00
          2   -1    0    0  501    0  0.00000000000E+00  0.00000000000E+00  0.10743882184E+04  0.10743882184E+04  0.00000000000E+00 0. -1.
         -2   -1    0    0    0  501 -0.00000000000E+00 -0.00000000000E+00 -0.30096563878E+01  0.30096563878E+01  0.00000000000E+00 0.  1.
         23    2    1    2    0    0  0.50215365995E+01 -0.11873553011E+02  0.10168894561E+04  0.10214044846E+04  0.95061863915E+02 0.  0.
         11    1    3    3    0    0 -0.35366566486E+02 -0.34466267937E+02  0.56319212159E+03  0.56535306091E+03  0.00000000000E+00 0.  1.
        -11    1    3    3    0    0  0.40388103086E+02  0.22592714926E+02  0.45369733454E+03  0.45605142365E+03  0.00000000000E+00 0. -1.
         22    1    1    2    0    0 -0.50215365995E+01  0.11873553011E+02  0.54489105876E+02  0.55993390236E+02  0.00000000000E+00 0.  1.
<mgrwt>
<rscale>  0 0.58083217E+02</rscale>
<asrwt>0</asrwt>
<pdfrwt beam="1">  1        2 0.16529019E+00 0.95932034E+02</pdfrwt>
<pdfrwt beam="2">  1       -2 0.46302492E-03 0.95932034E+02</pdfrwt>
<totfact> 0.13596462E+05</totfact>
</mgrwt>
</event>
<event>
 6    1  0.1535970E-002  0.9557760E+02  0.7546771E-02  0.1358942E+00
         -2   -1    0    0    0  501 -0.00000000000E+00  0.00000000000E+00  0.12361695002E+02  0.12361695002E+02  0.00000000000E+00 0.  1.
          2   -1    0    0  501    0  0.00000000000E+00 -0.00000000000E+00 -0.32640415558E+03  0.32640415558E+03  0.00000000000E+00 0. -1.
         23    2    1    2    0    0  0.25750592391E+02  0.11089609542E+02 -0.27134628330E+03  0.28768712700E+03  0.91372890585E+02 0.  0.
         11    1    3    3    0    0 -0.18639950777E+01  0.41104560865E+02 -0.62044307673E+02  0.74448341259E+02  0.00000000000E+00 0.  1.
        -11    1    3    3    0    0  0.27614587469E+02 -0.30014951323E+02 -0.20930197563E+03  0.21323878574E+03  0.00000000000E+00 0. -1.
         22    1    1    2    0    0 -0.25750592391E+02 -0.11089609542E+02 -0.42696177280E+02  0.51078723581E+02  0.00000000000E+00 0.  1.
<mgrwt>
<rscale>  0 0.70339603E+02</rscale>
<asrwt>0</asrwt>
<pdfrwt beam="1">  1        2 0.50216021E-01 0.95577600E+02</pdfrwt>
<pdfrwt beam="2">  1       -2 0.19017994E-02 0.95577600E+02</pdfrwt>
<totfact> 0.72532679E+04</totfact>
</mgrwt>
</event>
<event>
 6    1  0.1535970E-002  0.9189421E+02  0.7546771E-02  0.1386721E+00
          2   -1    0    0  501    0  0.00000000000E+00  0.00000000000E+00  0.24265286684E+03  0.24265286684E+03  0.00000000000E+00 0. -1.
         -2   -1    0    0    0  501 -0.00000000000E+00 -0.00000000000E+00 -0.13718730399E+02  0.13718730399E+02  0.00000000000E+00 0.  1.
         23    2    1    2    0    0 -0.31024991043E+00  0.19951330723E+02  0.20828992490E+03  0.22766035688E+03  0.89701691342E+02 0.  0.
         11    1    3    3    0    0 -0.21773643366E+02  0.38286523984E+02  0.18749584099E+03  0.19259968809E+03  0.00000000000E+00 0. -1.
        -11    1    3    3    0    0  0.21463393456E+02 -0.18335193261E+02  0.20794083907E+02  0.35060668791E+02  0.00000000000E+00 0.  1.
         22    1    1    2    0    0  0.31024991043E+00 -0.19951330723E+02  0.20644211546E+02  0.28711240359E+02  0.00000000000E+00 0.  1.
<mgrwt>
<rscale>  0 0.62729553E+02</rscale>
<asrwt>0</asrwt>
<pdfrwt beam="1">  1        2 0.37331207E-01 0.91894207E+02</pdfrwt>
<pdfrwt beam="2">  1       -2 0.21105741E-02 0.91894207E+02</pdfrwt>
<totfact> 0.84730330E+04</totfact>
</mgrwt>
</event>
<event>
 6    1  0.1535970E-002  0.9455494E+02  0.7546771E-02  0.1362933E+00
         -2   -1    0    0    0  501 -0.00000000000E+00  0.00000000000E+00  0.48599834978E+02  0.48599834978E+02  0.00000000000E+00 0.  1.
          2   -1    0    0  501    0  0.00000000000E+00 -0.00000000000E+00 -0.76316689478E+02  0.76316689478E+02  0.00000000000E+00 0. -1.
         23    2    1    2    0    0 -0.23883327287E+02  0.12764922732E+02 -0.18800739067E+02  0.96405935387E+02  0.90594039615E+02 0.  0.
         11    1    3    3    0    0 -0.18789257364E+02  0.26528044483E+02 -0.51308008725E+02  0.60739485475E+02  0.00000000000E+00 0. -1.
        -11    1    3    3    0    0 -0.50940699228E+01 -0.13763121751E+02  0.32507269658E+02  0.35666449912E+02  0.00000000000E+00 0.  1.
         22    1    1    2    0    0  0.23883327287E+02 -0.12764922732E+02 -0.89161154332E+01  0.28510589069E+02  0.00000000000E+00 0.  1.
<mgrwt>
<rscale>  0 0.69171559E+02</rscale>
<asrwt>0</asrwt>
<pdfrwt beam="1">  1        2 0.11741029E-01 0.94554940E+02</pdfrwt>
<pdfrwt beam="2">  1       -2 0.74768977E-02 0.94554940E+02</pdfrwt>
<totfact> 0.47892325E+04</totfact>
</mgrwt>
</event>
<event>
 6    1  0.1535970E-002  0.9194567E+02  0.7546771E-02  0.1422665E+00
          2   -1    0    0  501    0  0.00000000000E+00  0.00000000000E+00  0.16634741470E+02  0.16634741470E+02  0.00000000000E+00 0. -1.
         -2   -1    0    0    0  501 -0.00000000000E+00 -0.00000000000E+00 -0.16491271487E+03  0.16491271487E+03  0.00000000000E+00 0.  1.
         23    2    1    2    0    0 -0.13986871792E+00 -0.11316561263E+02 -0.12065437220E+03  0.15169536319E+03  0.91246487937E+02 0.  0.
         11    1    3    3    0    0  0.25820589655E+02  0.21404396840E+02 -0.99246443640E+02  0.10476023878E+03  0.00000000000E+00 0.  1.
        -11    1    3    3    0    0 -0.25960458373E+02 -0.32720958103E+02 -0.21407928557E+02  0.46935124408E+02  0.00000000000E+00 0. -1.
         22    1    1    2    0    0  0.13986871792E+00  0.11316561263E+02 -0.27623601202E+02  0.29852093150E+02  0.00000000000E+00 0. -1.
<mgrwt>
<rscale>  0 0.54460969E+02</rscale>
<asrwt>0</asrwt>
<pdfrwt beam="1">  1        2 0.25591909E-02 0.91945667E+02</pdfrwt>
<pdfrwt beam="2">  1       -2 0.25371188E-01 0.91945667E+02</pdfrwt>
<totfact> 0.46488569E+04</totfact>
</mgrwt>
</event>
<event>
 6    1  0.1535970E-002  0.9124312E+02  0.7546771E-02  0.1424765E+00
          2   -1    0    0  501    0  0.00000000000E+00  0.00000000000E+00  0.11731964027E+02  0.11731964027E+02  0.00000000000E+00 0. -1.
         -2   -1    0    0    0  501 -0.00000000000E+00 -0.00000000000E+00 -0.22507187000E+03  0.22507187000E+03  0.00000000000E+00 0.  1.
         23    2    1    2    0    0 -0.38565559511E+01 -0.10530874507E+02 -0.19528481907E+03  0.21554922265E+03  0.90551280967E+02 0.  0.
         11    1    3    3    0    0 -0.42705103779E+02 -0.92847895177E+01 -0.14811752534E+03  0.15443035491E+03  0.00000000000E+00 0.  1.
        -11    1    3    3    0    0  0.38848547828E+02 -0.12460849890E+01 -0.47167293733E+02  0.61118867743E+02  0.00000000000E+00 0. -1.
         22    1    1    2    0    0  0.38565559511E+01  0.10530874507E+02 -0.18055086901E+02  0.21254611374E+02  0.00000000000E+00 0.  1.
<mgrwt>
<rscale>  0 0.54025431E+02</rscale>
<asrwt>0</asrwt>
<pdfrwt beam="1">  1        2 0.18049176E-02 0.91243119E+02</pdfrwt>
<pdfrwt beam="2">  1       -2 0.34626441E-01 0.91243119E+02</pdfrwt>
<totfact> 0.42710340E+04</totfact>
</mgrwt>
</event>
<event>
 6    1  0.1535970E-002  0.9386924E+02  0.7546771E-02  0.1372171E+00
         -2   -1    0    0    0  501 -0.00000000000E+00  0.00000000000E+00  0.41900217612E+02  0.41900217612E+02  0.00000000000E+00 0.  1.
          2   -1    0    0  501    0  0.00000000000E+00 -0.00000000000E+00 -0.14844315842E+03  0.14844315842E+03  0.00000000000E+00 0. -1.
         23    2    1    2    0    0 -0.61895803490E+01 -0.22918499422E+02 -0.12773757697E+03  0.15851915377E+03  0.90817757186E+02 0.  0.
         13    1    3    3    0    0  0.35379571410E+01 -0.18221396560E+02 -0.14054448754E+03  0.14176490895E+03  0.00000000000E+00 0. -1.
        -13    1    3    3    0    0 -0.97275374900E+01 -0.46971028625E+01  0.12806910569E+02  0.16754244813E+02  0.00000000000E+00 0.  1.
         22    1    1    2    0    0  0.61895803490E+01  0.22918499422E+02  0.21194636163E+02  0.31824222264E+02  0.00000000000E+00 0. -1.
<mgrwt>
<rscale>  0 0.66567279E+02</rscale>
<asrwt>0</asrwt>
<pdfrwt beam="1">  1        2 0.22837409E-01 0.93869236E+02</pdfrwt>
<pdfrwt beam="2">  1       -2 0.64461874E-02 0.93869236E+02</pdfrwt>
<totfact> 0.27952683E+04</totfact>
</mgrwt>
</event>
<event>
 6    1  0.1535970E-002  0.9208753E+02  0.7546771E-02  0.1385266E+00
         -2   -1    0    0    0  501 -0.00000000000E+00  0.00000000000E+00  0.37896124554E+02  0.37896124554E+02  0.00000000000E+00 0.  1.
          2   -1    0    0  501    0  0.00000000000E+00 -0.00000000000E+00 -0.83475261904E+02  0.83475261904E+02  0.00000000000E+00 0. -1.
         23    2    1    2    0    0  0.10472187693E+02 -0.17390880144E+02 -0.39290107505E+02  0.10011906132E+03  0.89822071147E+02 0.  0.
         13    1    3    3    0    0  0.44533215661E+02 -0.32773174009E+01 -0.44312754513E+02  0.62909206949E+02  0.00000000000E+00 0. -1.
        -13    1    3    3    0    0 -0.34061027968E+02 -0.14113562743E+02  0.50226470085E+01  0.37209854373E+02  0.00000000000E+00 0.  1.
         22    1    1    2    0    0 -0.10472187693E+02  0.17390880144E+02 -0.62890298453E+01  0.21252325135E+02  0.00000000000E+00 0.  1.
<mgrwt>
<rscale>  0 0.63099686E+02</rscale>
<asrwt>0</asrwt>
<pdfrwt beam="1">  1        2 0.12842348E-01 0.92087534E+02</pdfrwt>
<pdfrwt beam="2">  1       -2 0.58301730E-02 0.92087534E+02</pdfrwt>
<totfact> 0.62473159E+04</totfact>
</mgrwt>
</event>
<event>
 6    1  0.1535970E-002  0.9377334E+02  0.7546771E-02  0.1386737E+00
          1   -1    0    0  501    0  0.00000000000E+00  0.00000000000E+00  0.15391402583E+04  0.15391402583E+04  0.00000000000E+00 0. -1.
         -1   -1    0    0    0  501 -0.00000000000E+00 -0.00000000000E+00 -0.27321297991E+01  0.27321297991E+01  0.00000000000E+00 0.  1.
         23    2    1    2    0    0  0.51427982970E+01  0.18055063050E+02  0.14662629620E+04  0.14692584909E+04  0.91874946602E+02 0.  0.
         11    1    3    3    0    0  0.33315216118E+02 -0.89332440312E+01  0.11610466685E+04  0.11615588977E+04  0.00000000000E+00 0. -1.
        -11    1    3    3    0    0 -0.28172417821E+02  0.26988307081E+02  0.30521629348E+03  0.30769959319E+03  0.00000000000E+00 0.  1.
         22    1    1    2    0    0 -0.51427982970E+01 -0.18055063050E+02  0.70145166503E+02  0.72613897153E+02  0.00000000000E+00 0.  1.
<mgrwt>
<rscale>  0 0.62725512E+02</rscale>
<asrwt>0</asrwt>
<pdfrwt beam="1">  1        1 0.23679012E+00 0.93773341E+02</pdfrwt>
<pdfrwt beam="2">  1       -1 0.42032889E-03 0.93773341E+02</pdfrwt>
<totfact> 0.40681928E+04</totfact>
</mgrwt>
</event>
<event>
 6    1  0.1535970E-002  0.1121570E+03  0.7546771E-02  0.1379255E+00
          1   -1    0    0  501    0  0.00000000000E+00  0.00000000000E+00  0.12675321939E+02  0.12675321939E+02  0.00000000000E+00 0. -1.
         -1   -1    0    0    0  501 -0.00000000000E+00 -0.00000000000E+00 -0.30638034612E+03  0.30638034612E+03  0.00000000000E+00 0.  1.
         23    2    1    2    0    0  0.12359694729E+00 -0.12389148905E+02 -0.26072538149E+03  0.28382552303E+03  0.11147060905E+03 0.  0.
         11    1    3    3    0    0 -0.39606220443E+02  0.31085701225E+02 -0.88640683907E+02  0.10194186756E+03  0.00000000000E+00 0. -1.
        -11    1    3    3    0    0  0.39729817390E+02 -0.43474850131E+02 -0.17208469758E+03  0.18188365547E+03  0.00000000000E+00 0.  1.
         22    1    1    2    0    0 -0.12359694729E+00  0.12389148905E+02 -0.32979642691E+02  0.35230145030E+02  0.00000000000E+00 0.  1.
<mgrwt>
<rscale>  0 0.64659999E+02</rscale>
<asrwt>0</asrwt>
<pdfrwt beam="1">  1        1 0.19500495E-02 0.11215705E+03</pdfrwt>
<pdfrwt beam="2">  1       -1 0.47135438E-01 0.11215705E+03</pdfrwt>
<totfact> 0.25978469E+04</totfact>
</mgrwt>
</event>
<event>
 6    1  0.1535970E-002  0.9609479E+02  0.7546771E-02  0.1358708E+00
          4   -1    0    0  501    0  0.00000000000E+00  0.00000000000E+00  0.41359730302E+03  0.41359730302E+03  0.00000000000E+00 0. -1.
         -4   -1    0    0    0  501 -0.00000000000E+00 -0.00000000000E+00 -0.12556943028E+02  0.12556943028E+02  0.00000000000E+00 0.  1.
         23    2    1    2    0    0 -0.43231985731E+01  0.27356291771E+02  0.37831396731E+03  0.39032764043E+03  0.92017130372E+02 0.  0.
         13    1    3    3    0    0 -0.37496119991E+02  0.35481384663E+02  0.30636753407E+03  0.31068626233E+03  0.00000000000E+00 0. -1.
        -13    1    3    3    0    0  0.33172921418E+02 -0.81250928918E+01  0.71946433238E+02  0.79641378100E+02  0.00000000000E+00 0.  1.
         22    1    1    2    0    0  0.43231985731E+01 -0.27356291771E+02  0.22726392684E+02  0.35826605613E+02  0.00000000000E+00 0.  1.
<mgrwt>
<rscale>  0 0.70409024E+02</rscale>
<asrwt>0</asrwt>
<pdfrwt beam="1">  1        4 0.63630344E-01 0.96094792E+02</pdfrwt>
<pdfrwt beam="2">  1       -4 0.19318377E-02 0.96094792E+02</pdfrwt>
<totfact> 0.37713126E+03</totfact>
</mgrwt>
</event>
<event>
 6    1  0.1535970E-002  0.9599909E+02  0.7546771E-02  0.1421998E+00
         -2   -1    0    0    0  501 -0.00000000000E+00  0.00000000000E+00  0.19672012448E+03  0.19672012448E+03  0.00000000000E+00 0.  1.
          2   -1    0    0  501    0  0.00000000000E+00 -0.00000000000E+00 -0.14343386011E+02  0.14343386011E+02  0.00000000000E+00 0. -1.
         23    2    1    2    0    0 -0.18950229557E+01  0.98654289798E+01  0.16857029262E+03  0.19398909256E+03  0.95472020374E+02 0.  0.
         11    1    3    3    0    0  0.36906448460E+01 -0.32898785996E+02  0.18667355126E+02  0.38005540737E+02  0.00000000000E+00 0. -1.
        -11    1    3    3    0    0 -0.55856678017E+01  0.42764214975E+02  0.14990293750E+03  0.15598355182E+03  0.00000000000E+00 0.  1.
         22    1    1    2    0    0  0.18950229557E+01 -0.98654289798E+01  0.13806445847E+02  0.17074417937E+02  0.00000000000E+00 0. -1.
<mgrwt>
<rscale>  0 0.54600459E+02</rscale>
<asrwt>0</asrwt>
<pdfrwt beam="1">  1        2 0.22066749E-02 0.95999086E+02</pdfrwt>
<pdfrwt beam="2">  1       -2 0.30264633E-01 0.95999086E+02</pdfrwt>
<totfact> 0.41841130E+04</totfact>
</mgrwt>
</event>
<event>
 6    1  0.1535970E-002  0.9330198E+02  0.7546771E-02  0.1410816E+00
         -4   -1    0    0    0  501 -0.00000000000E+00  0.00000000000E+00  0.26265716665E+02  0.26265716665E+02  0.00000000000E+00 0.  1.
          4   -1    0    0  501    0  0.00000000000E+00 -0.00000000000E+00 -0.11096569956E+03  0.11096569956E+03  0.00000000000E+00 0. -1.
         23    2    1    2    0    0  0.12536726697E+02 -0.34678186406E+01 -0.81381817333E+02  0.12380735182E+03  0.92390826875E+02 0.  0.
         13    1    3    3    0    0  0.90328143801E+01  0.20999760515E+02  0.12962172931E+02  0.26279261869E+02  0.00000000000E+00 0.  1.
        -13    1    3    3    0    0  0.35039123168E+01 -0.24467579155E+02 -0.94343990264E+02  0.97528089954E+02  0.00000000000E+00 0. -1.
         22    1    1    2    0    0 -0.12536726697E+02  0.34678186406E+01 -0.33181655624E+01  0.13424064403E+02  0.00000000000E+00 0.  1.
<mgrwt>
<rscale>  0 0.57012054E+02</rscale>
<asrwt>0</asrwt>
<pdfrwt beam="1">  1        4 0.17071647E-01 0.93301984E+02</pdfrwt>
<pdfrwt beam="2">  1       -4 0.40408794E-02 0.93301984E+02</pdfrwt>
<totfact> 0.14684247E+04</totfact>
</mgrwt>
</event>
<event>
 6    1  0.1535970E-002  0.9013062E+02  0.7546771E-02  0.1433869E+00
          1   -1    0    0  501    0  0.00000000000E+00  0.00000000000E+00  0.34252414640E+02  0.34252414640E+02  0.00000000000E+00 0. -1.
         -1   -1    0    0    0  501 -0.00000000000E+00 -0.00000000000E+00 -0.75615921299E+02  0.75615921299E+02  0.00000000000E+00 0.  1.
         23    2    1    2    0    0  0.81376327202E+01  0.60393245843E+01 -0.30845258524E+02  0.95262581883E+02  0.89559114700E+02 0.  0.
         11    1    3    3    0    0  0.31723342095E+02 -0.67792663312E+01  0.19755885702E+02  0.37981889178E+02  0.00000000000E+00 0. -1.
        -11    1    3    3    0    0 -0.23585709375E+02  0.12818590916E+02 -0.50601144226E+02  0.57280692705E+02  0.00000000000E+00 0.  1.
         22    1    1    2    0    0 -0.81376327202E+01 -0.60393245843E+01 -0.10518248136E+02  0.14605754057E+02  0.00000000000E+00 0.  1.
<mgrwt>
<rscale>  0 0.52191249E+02</rscale>
<asrwt>0</asrwt>
<pdfrwt beam="1">  1        1 0.52696024E-02 0.90130625E+02</pdfrwt>
<pdfrwt beam="2">  1       -1 0.11633218E-01 0.90130625E+02</pdfrwt>
<totfact> 0.63329647E+04</totfact>
</mgrwt>
</event>
<event>
 6    1  0.1535970E-002  0.9303347E+02  0.7546771E-02  0.1422976E+00
          2   -1    0    0  501    0  0.00000000000E+00  0.00000000000E+00  0.67213153527E+03  0.67213153527E+03  0.00000000000E+00 0. -1.
         -2   -1    0    0    0  501 -0.00000000000E+00 -0.00000000000E+00 -0.21300350055E+02  0.21300350055E+02  0.00000000000E+00 0.  1.
         23    2    1    2    0    0 -0.89833277767E+01 -0.61259337691E+01  0.66726896662E+03  0.67372331104E+03  0.92395880773E+02 0.  0.
         11    1    3    3    0    0 -0.42390123204E+02 -0.26946324419E+02  0.28102647942E+03  0.28548013780E+03  0.00000000000E+00 0.  1.
        -11    1    3    3    0    0  0.33406795427E+02  0.20820390650E+02  0.38624248720E+03  0.38824317324E+03  0.00000000000E+00 0. -1.
         22    1    1    2    0    0  0.89833277767E+01  0.61259337691E+01 -0.16437781409E+02  0.19708574280E+02  0.00000000000E+00 0.  1.
<mgrwt>
<rscale>  0 0.54396267E+02</rscale>
<asrwt>0</asrwt>
<pdfrwt beam="1">  1        2 0.10340484E+00 0.93033467E+02</pdfrwt>
<pdfrwt beam="2">  1       -2 0.32769774E-02 0.93033467E+02</pdfrwt>
<totfact> 0.15066115E+04</totfact>
</mgrwt>
</event>
